
     Program PWSCF v.6.0 (svn rev. 13079) starts on  4Aug2017 at  6:52: 6 

     This program is part of the open-source Quantum ESPRESSO suite
     for quantum simulation of materials; please cite
         "P. Giannozzi et al., J. Phys.:Condens. Matter 21 395502 (2009);
          URL http://www.quantum-espresso.org", 
     in publications or presentations arising from this work. More details at
     http://www.quantum-espresso.org/quote

     Parallel version (MPI), running on    10 processors
     R & G space division:  proc/nbgrp/npool/nimage =      10
     Reading input from input/multi/minchecks-Gold5-797.in

     Current dimensions of program PWSCF are:
     Max number of different atomic species (ntypx) = 10
     Max number of k-points (npk) =  40000
     Max angular momentum in pseudopotentials (lmaxx) =  3
     Message from routine iosys:
     pot_extrapolation='second-order' not available, using 'atomic'
     Message from routine iosys:
     wfc_extrapolation='second-order' not available, using 'atomic'

     Subspace diagonalization in iterative solution of the eigenvalue problem:
     a serial algorithm will be used

 
     Parallelization info
     --------------------
     sticks:   dense  smooth     PW     G-vecs:    dense   smooth      PW
     Min         380     380     94                17748    17748    2208
     Max         381     381     95                17753    17753    2213
     Sum        3809    3809    949               177509   177509   22119
 


     bravais-lattice index     =            1
     lattice parameter (alat)  =      20.0000  a.u.
     unit-cell volume          =    8000.0000 (a.u.)^3
     number of atoms/cell      =            5
     number of atomic types    =            1
     number of electrons       =        55.00
     number of Kohn-Sham states=           34
     kinetic-energy cutoff     =      30.0000  Ry
     charge density cutoff     =     120.0000  Ry
     convergence threshold     =      1.0E-08
     mixing beta               =       0.7000
     number of iterations used =            8  plain     mixing
     Exchange-correlation      = BLYP ( 1  3  1  3 0 0)
     nstep                     =           50


     celldm(1)=  20.000000  celldm(2)=   0.000000  celldm(3)=   0.000000
     celldm(4)=   0.000000  celldm(5)=   0.000000  celldm(6)=   0.000000

     crystal axes: (cart. coord. in units of alat)
               a(1) = (   1.000000   0.000000   0.000000 )  
               a(2) = (   0.000000   1.000000   0.000000 )  
               a(3) = (   0.000000   0.000000   1.000000 )  

     reciprocal axes: (cart. coord. in units 2 pi/alat)
               b(1) = (  1.000000  0.000000  0.000000 )  
               b(2) = (  0.000000  1.000000  0.000000 )  
               b(3) = (  0.000000  0.000000  1.000000 )  


     PseudoPot. # 1 for Au read from file:
     ./Au.blyp-d-hgh.UPF
     MD5 check sum: c10d8bae01f806c36a1643a1c69a8479
     Pseudo is Norm-conserving, Zval = 11.0
     Generated in analytical, separable form
     Using radial grid of 1279 points,  6 beta functions with: 
                l(1) =   0
                l(2) =   0
                l(3) =   1
                l(4) =   1
                l(5) =   2
                l(6) =   2

     atomic species   valence    mass     pseudopotential
        Au            11.00    28.08600     Au( 1.00)

     No symmetry found



   Cartesian axes

     site n.     atom                  positions (alat units)
         1           Au  tau(   1) = (   0.0990966   0.0177512   0.0372181  )
         2           Au  tau(   2) = (  -0.0098971   0.1958661   0.1910295  )
         3           Au  tau(   3) = (   0.1618629   0.2081959  -0.0466283  )
         4           Au  tau(   4) = (   0.2318655   0.2416412   0.2697612  )
         5           Au  tau(   5) = (   0.2166909  -0.0171629   0.2134238  )

     number of k points=     1  Marzari-Vanderbilt smearing, width (Ry)=  0.0250
                       cart. coord. in units 2pi/alat
        k(    1) = (   0.0000000   0.0000000   0.0000000), wk =   2.0000000

     Dense  grid:   177509 G-vectors     FFT dimensions: (  72,  72,  72)

     Estimated max dynamical RAM per process >      15.04Mb

     Estimated total allocated dynamical RAM >     150.39Mb

     Initial potential from superposition of free atoms
     Check: negative starting charge=   -0.006370

     starting charge   54.99940, renormalised to   55.00000

     negative rho (up, down):  6.370E-03 0.000E+00
     Starting wfc are   45 randomized atomic wfcs

     total cpu time spent up to now is        0.3 secs

     per-process dynamical memory:    41.0 Mb

     Self-consistent Calculation

     iteration #  1     ecut=    30.00 Ry     beta=0.70
     Davidson diagonalization with overlap
     ethr =  1.00E-02,  avg # of iterations =  3.0

     Threshold (ethr) on eigenvalues was too large:
     Diagonalizing with lowered threshold

     Davidson diagonalization with overlap
     ethr =  9.18E-04,  avg # of iterations =  2.0

     negative rho (up, down):  7.117E-04 0.000E+00

     total cpu time spent up to now is        0.7 secs

     total energy              =    -328.96840009 Ry
     Harris-Foulkes estimate   =    -329.33670914 Ry
     estimated scf accuracy    <       0.54869920 Ry

     iteration #  2     ecut=    30.00 Ry     beta=0.70
     Davidson diagonalization with overlap
     ethr =  9.98E-04,  avg # of iterations =  4.0

     negative rho (up, down):  4.439E-04 0.000E+00

     total cpu time spent up to now is        1.0 secs

     total energy              =    -328.89731336 Ry
     Harris-Foulkes estimate   =    -329.60623153 Ry
     estimated scf accuracy    <       1.90551327 Ry

     iteration #  3     ecut=    30.00 Ry     beta=0.70
     Davidson diagonalization with overlap
     ethr =  9.98E-04,  avg # of iterations =  4.0

     negative rho (up, down):  2.117E-04 0.000E+00

     total cpu time spent up to now is        1.2 secs

     total energy              =    -329.18976606 Ry
     Harris-Foulkes estimate   =    -329.30487627 Ry
     estimated scf accuracy    <       0.30410888 Ry

     iteration #  4     ecut=    30.00 Ry     beta=0.70
     Davidson diagonalization with overlap
     ethr =  5.53E-04,  avg # of iterations =  2.0

     negative rho (up, down):  1.193E-04 0.000E+00

     total cpu time spent up to now is        1.4 secs

     total energy              =    -329.23163903 Ry
     Harris-Foulkes estimate   =    -329.24785444 Ry
     estimated scf accuracy    <       0.05888741 Ry

     iteration #  5     ecut=    30.00 Ry     beta=0.70
     Davidson diagonalization with overlap
     ethr =  1.07E-04,  avg # of iterations =  2.0

     negative rho (up, down):  2.376E-05 0.000E+00

     total cpu time spent up to now is        1.6 secs

     total energy              =    -329.23830066 Ry
     Harris-Foulkes estimate   =    -329.24176031 Ry
     estimated scf accuracy    <       0.01044192 Ry

     iteration #  6     ecut=    30.00 Ry     beta=0.70
     Davidson diagonalization with overlap
     ethr =  1.90E-05,  avg # of iterations =  2.0

     negative rho (up, down):  1.470E-07 0.000E+00

     total cpu time spent up to now is        1.8 secs

     total energy              =    -329.24010419 Ry
     Harris-Foulkes estimate   =    -329.24085611 Ry
     estimated scf accuracy    <       0.00214858 Ry

     iteration #  7     ecut=    30.00 Ry     beta=0.70
     Davidson diagonalization with overlap
     ethr =  3.91E-06,  avg # of iterations =  6.0

     total cpu time spent up to now is        2.1 secs

     total energy              =    -329.24047834 Ry
     Harris-Foulkes estimate   =    -329.24069556 Ry
     estimated scf accuracy    <       0.00055932 Ry

     iteration #  8     ecut=    30.00 Ry     beta=0.70
     Davidson diagonalization with overlap
     ethr =  1.02E-06,  avg # of iterations =  2.0

     total cpu time spent up to now is        2.3 secs

     total energy              =    -329.24057222 Ry
     Harris-Foulkes estimate   =    -329.24061410 Ry
     estimated scf accuracy    <       0.00011007 Ry

     iteration #  9     ecut=    30.00 Ry     beta=0.70
     Davidson diagonalization with overlap
     ethr =  2.00E-07,  avg # of iterations =  2.0

     total cpu time spent up to now is        2.5 secs

     total energy              =    -329.24059056 Ry
     Harris-Foulkes estimate   =    -329.24059581 Ry
     estimated scf accuracy    <       0.00001344 Ry

     iteration # 10     ecut=    30.00 Ry     beta=0.70
     Davidson diagonalization with overlap
     ethr =  2.44E-08,  avg # of iterations =  3.0

     total cpu time spent up to now is        2.8 secs

     total energy              =    -329.24059313 Ry
     Harris-Foulkes estimate   =    -329.24059494 Ry
     estimated scf accuracy    <       0.00000540 Ry

     iteration # 11     ecut=    30.00 Ry     beta=0.70
     Davidson diagonalization with overlap
     ethr =  9.82E-09,  avg # of iterations =  2.0

     total cpu time spent up to now is        3.0 secs

     total energy              =    -329.24059414 Ry
     Harris-Foulkes estimate   =    -329.24059432 Ry
     estimated scf accuracy    <       0.00000078 Ry

     iteration # 12     ecut=    30.00 Ry     beta=0.70
     Davidson diagonalization with overlap
     ethr =  1.41E-09,  avg # of iterations =  3.0

     total cpu time spent up to now is        3.2 secs

     total energy              =    -329.24059428 Ry
     Harris-Foulkes estimate   =    -329.24059431 Ry
     estimated scf accuracy    <       0.00000009 Ry

     iteration # 13     ecut=    30.00 Ry     beta=0.70
     Davidson diagonalization with overlap
     ethr =  1.70E-10,  avg # of iterations =  2.0

     total cpu time spent up to now is        3.4 secs

     total energy              =    -329.24059429 Ry
     Harris-Foulkes estimate   =    -329.24059432 Ry
     estimated scf accuracy    <       0.00000006 Ry

     iteration # 14     ecut=    30.00 Ry     beta=0.70
     Davidson diagonalization with overlap
     ethr =  1.11E-10,  avg # of iterations =  2.0

     total cpu time spent up to now is        3.7 secs

     total energy              =    -329.24059431 Ry
     Harris-Foulkes estimate   =    -329.24059432 Ry
     estimated scf accuracy    <       0.00000007 Ry

     iteration # 15     ecut=    30.00 Ry     beta=0.70
     Davidson diagonalization with overlap
     ethr =  1.11E-10,  avg # of iterations =  1.0

     total cpu time spent up to now is        3.8 secs

     End of self-consistent calculation

          k = 0.0000 0.0000 0.0000 ( 22119 PWs)   bands (ev):

    -9.2891  -9.1572  -8.6360  -8.1001  -7.9735  -7.1927  -7.1162  -6.8422
    -6.4891  -6.2439  -6.1692  -5.9675  -5.8023  -5.7218  -5.6252  -5.4544
    -5.3654  -5.2200  -5.1367  -5.1325  -5.0310  -4.9206  -4.8618  -4.8020
    -4.5717  -4.3770  -3.8291  -3.6742  -3.2391  -1.6403  -0.3877  -0.0661
     0.2151   0.2868

     the Fermi energy is    -3.5963 ev

!    total energy              =    -329.24059433 Ry
     Harris-Foulkes estimate   =    -329.24059432 Ry
     estimated scf accuracy    <          1.3E-09 Ry

     The total energy is the sum of the following terms:

     one-electron contribution =    -656.52329841 Ry
     hartree contribution      =     349.40255977 Ry
     xc contribution           =     -51.55495819 Ry
     ewald contribution        =      29.44176291 Ry
     smearing contrib. (-TS)   =      -0.00666041 Ry

     convergence has been achieved in  15 iterations

     Forces acting on atoms (Ry/au):

     atom    1 type  1   force =    -0.21207533   -0.17975084   -0.15798978
     atom    2 type  1   force =     0.00982936    0.02612430    0.01104961
     atom    3 type  1   force =     0.05609199    0.20851345   -0.09588213
     atom    4 type  1   force =    -0.01376230   -0.00073337    0.00660258
     atom    5 type  1   force =     0.15991627   -0.05415355    0.23621972

     Total force =     0.493462     Total SCF correction =     0.000154

     BFGS Geometry Optimization

     number of scf cycles    =   1
     number of bfgs steps    =   0

     energy   new            =    -329.2405943331 Ry

     new trust radius        =       0.3197609681 bohr
     new conv_thr            =       0.0000000100 Ry


ATOMIC_POSITIONS (bohr)
Au       1.769856673   0.175272163   0.586373224
Au      -0.188112640   3.943446302   3.831640608
Au       3.293349993   4.372431455  -1.028448134
Au       4.623546700   4.832091627   5.401825580
Au       4.493734273  -0.397410547   4.504696722



     Writing output data file pwscf.save
     Check: negative starting charge=   -0.006370
     NEW-OLD atomic charge density approx. for the potential
     Check: negative starting charge=   -0.006254

     negative rho (up, down):  7.716E-03 0.000E+00

     total cpu time spent up to now is        4.0 secs

     per-process dynamical memory:    42.9 Mb

     Self-consistent Calculation

     iteration #  1     ecut=    30.00 Ry     beta=0.70
     Davidson diagonalization with overlap
     ethr =  1.00E-06,  avg # of iterations = 15.0

     negative rho (up, down):  3.967E-04 0.000E+00

     total cpu time spent up to now is        4.7 secs

     total energy              =    -281.99142950 Ry
     Harris-Foulkes estimate   =    -409.93993386 Ry
     estimated scf accuracy    <       4.29089365 Ry

     iteration #  2     ecut=    30.00 Ry     beta=0.70
     Davidson diagonalization with overlap
     ethr =  7.80E-03,  avg # of iterations =  4.0

     negative rho (up, down):  3.696E-05 0.000E+00

     total cpu time spent up to now is        4.9 secs

     total energy              =    -324.53823945 Ry
     Harris-Foulkes estimate   =    -333.51372985 Ry
     estimated scf accuracy    <      35.45798927 Ry

     iteration #  3     ecut=    30.00 Ry     beta=0.70
     Davidson diagonalization with overlap
     ethr =  7.80E-03,  avg # of iterations =  3.0

     negative rho (up, down):  2.387E-05 0.000E+00

     total cpu time spent up to now is        5.1 secs

     total energy              =    -328.81765599 Ry
     Harris-Foulkes estimate   =    -331.07069041 Ry
     estimated scf accuracy    <       6.52237721 Ry

     iteration #  4     ecut=    30.00 Ry     beta=0.70
     Davidson diagonalization with overlap
     ethr =  7.80E-03,  avg # of iterations =  2.0

     negative rho (up, down):  1.664E-05 0.000E+00

     total cpu time spent up to now is        5.3 secs

     total energy              =    -329.42754611 Ry
     Harris-Foulkes estimate   =    -329.85480854 Ry
     estimated scf accuracy    <       1.51656595 Ry

     iteration #  5     ecut=    30.00 Ry     beta=0.70
     Davidson diagonalization with overlap
     ethr =  2.76E-03,  avg # of iterations =  1.0

     negative rho (up, down):  1.206E-05 0.000E+00

     total cpu time spent up to now is        5.5 secs

     total energy              =    -329.46355569 Ry
     Harris-Foulkes estimate   =    -329.55646994 Ry
     estimated scf accuracy    <       0.62717273 Ry

     iteration #  6     ecut=    30.00 Ry     beta=0.70
     Davidson diagonalization with overlap
     ethr =  1.14E-03,  avg # of iterations =  1.0

     negative rho (up, down):  8.512E-06 0.000E+00

     total cpu time spent up to now is        5.7 secs

     total energy              =    -329.43051651 Ry
     Harris-Foulkes estimate   =    -329.48411803 Ry
     estimated scf accuracy    <       0.44763331 Ry

     iteration #  7     ecut=    30.00 Ry     beta=0.70
     Davidson diagonalization with overlap
     ethr =  8.14E-04,  avg # of iterations =  1.0

     negative rho (up, down):  3.813E-06 0.000E+00

     total cpu time spent up to now is        5.9 secs

     total energy              =    -329.39120142 Ry
     Harris-Foulkes estimate   =    -329.43778758 Ry
     estimated scf accuracy    <       0.32203091 Ry

     iteration #  8     ecut=    30.00 Ry     beta=0.70
     Davidson diagonalization with overlap
     ethr =  5.86E-04,  avg # of iterations =  1.0

     negative rho (up, down):  1.993E-06 0.000E+00

     total cpu time spent up to now is        6.1 secs

     total energy              =    -329.38196082 Ry
     Harris-Foulkes estimate   =    -329.39559971 Ry
     estimated scf accuracy    <       0.20463153 Ry

     iteration #  9     ecut=    30.00 Ry     beta=0.70
     Davidson diagonalization with overlap
     ethr =  3.72E-04,  avg # of iterations =  1.0

     negative rho (up, down):  3.679E-07 0.000E+00

     total cpu time spent up to now is        6.2 secs

     total energy              =    -329.36899960 Ry
     Harris-Foulkes estimate   =    -329.38300391 Ry
     estimated scf accuracy    <       0.16637075 Ry

     iteration # 10     ecut=    30.00 Ry     beta=0.70
     Davidson diagonalization with overlap
     ethr =  3.02E-04,  avg # of iterations =  1.0

     negative rho (up, down):  7.758E-03 0.000E+00

     total cpu time spent up to now is        6.4 secs

     total energy              =    -329.36909000 Ry
     Harris-Foulkes estimate   =    -329.36985881 Ry
     estimated scf accuracy    <       0.11768148 Ry

     iteration # 11     ecut=    30.00 Ry     beta=0.70
     Davidson diagonalization with overlap
     ethr =  2.14E-04,  avg # of iterations =  3.0

     negative rho (up, down):  2.256E-04 0.000E+00

     total cpu time spent up to now is        6.6 secs

     total energy              =    -329.37151873 Ry
     Harris-Foulkes estimate   =    -329.37980184 Ry
     estimated scf accuracy    <       0.01932527 Ry

     iteration # 12     ecut=    30.00 Ry     beta=0.70
     Davidson diagonalization with overlap
     ethr =  3.51E-05,  avg # of iterations =  4.0

     negative rho (up, down):  2.317E-05 0.000E+00

     total cpu time spent up to now is        6.9 secs

     total energy              =    -329.37532615 Ry
     Harris-Foulkes estimate   =    -329.37702594 Ry
     estimated scf accuracy    <       0.00430051 Ry

     iteration # 13     ecut=    30.00 Ry     beta=0.70
     Davidson diagonalization with overlap
     ethr =  7.82E-06,  avg # of iterations =  2.0

     negative rho (up, down):  2.692E-07 0.000E+00

     total cpu time spent up to now is        7.1 secs

     total energy              =    -329.37581779 Ry
     Harris-Foulkes estimate   =    -329.37604552 Ry
     estimated scf accuracy    <       0.00034167 Ry

     iteration # 14     ecut=    30.00 Ry     beta=0.70
     Davidson diagonalization with overlap
     ethr =  6.21E-07,  avg # of iterations =  5.0

     total cpu time spent up to now is        7.4 secs

     total energy              =    -329.37583449 Ry
     Harris-Foulkes estimate   =    -329.37590804 Ry
     estimated scf accuracy    <       0.00007025 Ry

     iteration # 15     ecut=    30.00 Ry     beta=0.70
     Davidson diagonalization with overlap
     ethr =  1.28E-07,  avg # of iterations =  2.0

     total cpu time spent up to now is        7.6 secs

     total energy              =    -329.37584385 Ry
     Harris-Foulkes estimate   =    -329.37585281 Ry
     estimated scf accuracy    <       0.00001441 Ry

     iteration # 16     ecut=    30.00 Ry     beta=0.70
     Davidson diagonalization with overlap
     ethr =  2.62E-08,  avg # of iterations =  2.0

     total cpu time spent up to now is        7.8 secs

     total energy              =    -329.37584670 Ry
     Harris-Foulkes estimate   =    -329.37584853 Ry
     estimated scf accuracy    <       0.00000543 Ry

     iteration # 17     ecut=    30.00 Ry     beta=0.70
     Davidson diagonalization with overlap
     ethr =  9.88E-09,  avg # of iterations =  2.0

     total cpu time spent up to now is        8.0 secs

     total energy              =    -329.37584780 Ry
     Harris-Foulkes estimate   =    -329.37584818 Ry
     estimated scf accuracy    <       0.00000201 Ry

     iteration # 18     ecut=    30.00 Ry     beta=0.70
     Davidson diagonalization with overlap
     ethr =  3.65E-09,  avg # of iterations =  2.0

     total cpu time spent up to now is        8.2 secs

     total energy              =    -329.37584824 Ry
     Harris-Foulkes estimate   =    -329.37584823 Ry
     estimated scf accuracy    <       0.00000041 Ry

     iteration # 19     ecut=    30.00 Ry     beta=0.70
     Davidson diagonalization with overlap
     ethr =  7.54E-10,  avg # of iterations =  2.0

     total cpu time spent up to now is        8.4 secs

     total energy              =    -329.37584835 Ry
     Harris-Foulkes estimate   =    -329.37584832 Ry
     estimated scf accuracy    <       0.00000004 Ry

     iteration # 20     ecut=    30.00 Ry     beta=0.70
     Davidson diagonalization with overlap
     ethr =  7.68E-11,  avg # of iterations =  3.0

     total cpu time spent up to now is        8.7 secs

     total energy              =    -329.37584835 Ry
     Harris-Foulkes estimate   =    -329.37584836 Ry
     estimated scf accuracy    <       0.00000002 Ry

     iteration # 21     ecut=    30.00 Ry     beta=0.70
     Davidson diagonalization with overlap
     ethr =  3.04E-11,  avg # of iterations =  2.0

     total cpu time spent up to now is        8.9 secs

     End of self-consistent calculation

          k = 0.0000 0.0000 0.0000 ( 22119 PWs)   bands (ev):

    -8.2366  -7.8141  -7.5862  -7.2109  -7.0599  -6.9962  -6.8124  -6.6149
    -6.4344  -6.1217  -5.9029  -5.8854  -5.6755  -5.5742  -5.5524  -5.3671
    -5.2514  -5.2000  -5.1474  -5.1196  -5.0462  -4.9663  -4.9338  -4.8657
    -4.7311  -4.5309  -3.8837  -3.7054  -3.2785  -1.8971  -0.3603  -0.0880
     0.1908   0.3037

     the Fermi energy is    -3.6337 ev

!    total energy              =    -329.37584838 Ry
     Harris-Foulkes estimate   =    -329.37584836 Ry
     estimated scf accuracy    <          4.0E-09 Ry

     The total energy is the sum of the following terms:

     one-electron contribution =    -625.54170592 Ry
     hartree contribution      =     334.27482020 Ry
     xc contribution           =     -51.39192863 Ry
     ewald contribution        =      13.29074039 Ry
     smearing contrib. (-TS)   =      -0.00777441 Ry

     convergence has been achieved in  21 iterations

     Forces acting on atoms (Ry/au):

     atom    1 type  1   force =    -0.04554014   -0.04810152   -0.03404819
     atom    2 type  1   force =     0.02046153    0.00968613   -0.00472105
     atom    3 type  1   force =     0.00276989    0.05008570   -0.01652290
     atom    4 type  1   force =    -0.00939957   -0.01204224    0.00537447
     atom    5 type  1   force =     0.03170828    0.00037193    0.04991766

     Total force =     0.112386     Total SCF correction =     0.000230

     number of scf cycles    =   2
     number of bfgs steps    =   1

     energy   old            =    -329.2405943331 Ry
     energy   new            =    -329.3758483771 Ry

     CASE: energy  _new < energy  _old

     new trust radius        =       0.0974180062 bohr
     new conv_thr            =       0.0000000050 Ry


ATOMIC_POSITIONS (bohr)
Au       1.710174467   0.112522247   0.541755400
Au      -0.161855228   3.956016366   3.825669289
Au       3.297262212   4.437909261  -1.050225779
Au       4.611424233   4.816671329   5.408748678
Au       4.535369317  -0.397288203   4.570140411



     Writing output data file pwscf.save
     Check: negative starting charge=   -0.006254
     NEW-OLD atomic charge density approx. for the potential
     Check: negative starting charge=   -0.006157

     negative rho (up, down):  1.534E-03 0.000E+00

     total cpu time spent up to now is        9.1 secs

     per-process dynamical memory:    50.7 Mb

     Self-consistent Calculation

     iteration #  1     ecut=    30.00 Ry     beta=0.70
     Davidson diagonalization with overlap
     ethr =  1.00E-06,  avg # of iterations =  7.0

     negative rho (up, down):  1.350E-04 0.000E+00

     total cpu time spent up to now is        9.5 secs

     total energy              =    -329.38666972 Ry
     Harris-Foulkes estimate   =    -329.38666382 Ry
     estimated scf accuracy    <       0.00279118 Ry

     iteration #  2     ecut=    30.00 Ry     beta=0.70
     Davidson diagonalization with overlap
     ethr =  5.07E-06,  avg # of iterations =  4.0

     negative rho (up, down):  8.538E-05 0.000E+00

     total cpu time spent up to now is        9.8 secs

     total energy              =    -329.38465065 Ry
     Harris-Foulkes estimate   =    -329.39120729 Ry
     estimated scf accuracy    <       0.02376112 Ry

     iteration #  3     ecut=    30.00 Ry     beta=0.70
     Davidson diagonalization with overlap
     ethr =  5.07E-06,  avg # of iterations =  4.0

     negative rho (up, down):  2.059E-05 0.000E+00

     total cpu time spent up to now is       10.1 secs

     total energy              =    -329.38793460 Ry
     Harris-Foulkes estimate   =    -329.38828606 Ry
     estimated scf accuracy    <       0.00123803 Ry

     iteration #  4     ecut=    30.00 Ry     beta=0.70
     Davidson diagonalization with overlap
     ethr =  2.25E-06,  avg # of iterations =  2.0

     negative rho (up, down):  1.038E-06 0.000E+00

     total cpu time spent up to now is       10.2 secs

     total energy              =    -329.38809300 Ry
     Harris-Foulkes estimate   =    -329.38819690 Ry
     estimated scf accuracy    <       0.00030885 Ry

     iteration #  5     ecut=    30.00 Ry     beta=0.70
     Davidson diagonalization with overlap
     ethr =  5.62E-07,  avg # of iterations =  2.0

     total cpu time spent up to now is       10.4 secs

     total energy              =    -329.38814464 Ry
     Harris-Foulkes estimate   =    -329.38817828 Ry
     estimated scf accuracy    <       0.00009167 Ry

     iteration #  6     ecut=    30.00 Ry     beta=0.70
     Davidson diagonalization with overlap
     ethr =  1.67E-07,  avg # of iterations =  2.0

     total cpu time spent up to now is       10.6 secs

     total energy              =    -329.38815784 Ry
     Harris-Foulkes estimate   =    -329.38816346 Ry
     estimated scf accuracy    <       0.00000995 Ry

     iteration #  7     ecut=    30.00 Ry     beta=0.70
     Davidson diagonalization with overlap
     ethr =  1.81E-08,  avg # of iterations =  2.0

     total cpu time spent up to now is       10.8 secs

     total energy              =    -329.38815907 Ry
     Harris-Foulkes estimate   =    -329.38816040 Ry
     estimated scf accuracy    <       0.00000144 Ry

     iteration #  8     ecut=    30.00 Ry     beta=0.70
     Davidson diagonalization with overlap
     ethr =  2.63E-09,  avg # of iterations =  3.0

     total cpu time spent up to now is       11.1 secs

     total energy              =    -329.38815895 Ry
     Harris-Foulkes estimate   =    -329.38815954 Ry
     estimated scf accuracy    <       0.00000051 Ry

     iteration #  9     ecut=    30.00 Ry     beta=0.70
     Davidson diagonalization with overlap
     ethr =  9.21E-10,  avg # of iterations =  3.0

     total cpu time spent up to now is       11.3 secs

     total energy              =    -329.38815893 Ry
     Harris-Foulkes estimate   =    -329.38815908 Ry
     estimated scf accuracy    <       0.00000008 Ry

     iteration # 10     ecut=    30.00 Ry     beta=0.70
     Davidson diagonalization with overlap
     ethr =  1.49E-10,  avg # of iterations =  2.0

     total cpu time spent up to now is       11.5 secs

     total energy              =    -329.38815889 Ry
     Harris-Foulkes estimate   =    -329.38815895 Ry
     estimated scf accuracy    <       0.00000001 Ry

     iteration # 11     ecut=    30.00 Ry     beta=0.70
     Davidson diagonalization with overlap
     ethr =  2.40E-11,  avg # of iterations =  3.0

     total cpu time spent up to now is       11.7 secs

     End of self-consistent calculation

          k = 0.0000 0.0000 0.0000 ( 22119 PWs)   bands (ev):

    -8.0804  -7.5791  -7.3400  -7.1627  -6.9612  -6.8732  -6.7581  -6.5274
    -6.4506  -6.0934  -5.9059  -5.8708  -5.6412  -5.5479  -5.5379  -5.3431
    -5.2332  -5.2007  -5.1367  -5.1150  -5.0444  -4.9933  -4.9351  -4.8847
    -4.7585  -4.5511  -3.9004  -3.7101  -3.2794  -1.9623  -0.3562  -0.0976
     0.1741   0.3280

     the Fermi energy is    -3.6425 ev

!    total energy              =    -329.38815889 Ry
     Harris-Foulkes estimate   =    -329.38815889 Ry
     estimated scf accuracy    <          5.3E-10 Ry

     The total energy is the sum of the following terms:

     one-electron contribution =    -618.97480547 Ry
     hartree contribution      =     331.05057750 Ry
     xc contribution           =     -51.36277396 Ry
     ewald contribution        =       9.90626686 Ry
     smearing contrib. (-TS)   =      -0.00742383 Ry

     convergence has been achieved in  11 iterations

     Forces acting on atoms (Ry/au):

     atom    1 type  1   force =    -0.02138150   -0.02389152   -0.01935166
     atom    2 type  1   force =     0.02009990    0.00668259   -0.00997747
     atom    3 type  1   force =    -0.00843565    0.02248724   -0.00332809
     atom    4 type  1   force =    -0.00562985   -0.01167402    0.00584755
     atom    5 type  1   force =     0.01534710    0.00639571    0.02680967

     Total force =     0.061122     Total SCF correction =     0.000102

     number of scf cycles    =   3
     number of bfgs steps    =   2

     energy   old            =    -329.3758483771 Ry
     energy   new            =    -329.3881588925 Ry

     CASE: energy  _new < energy  _old

     new trust radius        =       0.1071598069 bohr
     new conv_thr            =       0.0000000027 Ry


ATOMIC_POSITIONS (bohr)
Au       1.647427602   0.044182267   0.488129827
Au      -0.113768064   3.973390211   3.804077500
Au       3.282173497   4.504560525  -1.064381703
Au       4.596414570   4.788743164   5.422563147
Au       4.580127395  -0.385045166   4.645699229



     Writing output data file pwscf.save
     Check: negative starting charge=   -0.006157
     NEW-OLD atomic charge density approx. for the potential
     Check: negative starting charge=   -0.006104

     negative rho (up, down):  1.926E-03 0.000E+00

     total cpu time spent up to now is       11.9 secs

     per-process dynamical memory:    50.7 Mb

     Self-consistent Calculation

     iteration #  1     ecut=    30.00 Ry     beta=0.70
     Davidson diagonalization with overlap
     ethr =  1.00E-06,  avg # of iterations =  8.0

     negative rho (up, down):  1.852E-04 0.000E+00

     total cpu time spent up to now is       12.4 secs

     total energy              =    -329.39363239 Ry
     Harris-Foulkes estimate   =    -329.39333273 Ry
     estimated scf accuracy    <       0.00314427 Ry

     iteration #  2     ecut=    30.00 Ry     beta=0.70
     Davidson diagonalization with overlap
     ethr =  5.72E-06,  avg # of iterations =  4.0

     negative rho (up, down):  1.156E-04 0.000E+00

     total cpu time spent up to now is       12.7 secs

     total energy              =    -329.39173751 Ry
     Harris-Foulkes estimate   =    -329.39801270 Ry
     estimated scf accuracy    <       0.02122742 Ry

     iteration #  3     ecut=    30.00 Ry     beta=0.70
     Davidson diagonalization with overlap
     ethr =  5.72E-06,  avg # of iterations =  4.0

     negative rho (up, down):  2.931E-05 0.000E+00

     total cpu time spent up to now is       12.9 secs

     total energy              =    -329.39490657 Ry
     Harris-Foulkes estimate   =    -329.39537734 Ry
     estimated scf accuracy    <       0.00167668 Ry

     iteration #  4     ecut=    30.00 Ry     beta=0.70
     Davidson diagonalization with overlap
     ethr =  3.05E-06,  avg # of iterations =  2.0

     negative rho (up, down):  1.826E-06 0.000E+00

     total cpu time spent up to now is       13.1 secs

     total energy              =    -329.39511191 Ry
     Harris-Foulkes estimate   =    -329.39527167 Ry
     estimated scf accuracy    <       0.00048799 Ry

     iteration #  5     ecut=    30.00 Ry     beta=0.70
     Davidson diagonalization with overlap
     ethr =  8.87E-07,  avg # of iterations =  2.0

     total cpu time spent up to now is       13.3 secs

     total energy              =    -329.39519345 Ry
     Harris-Foulkes estimate   =    -329.39522968 Ry
     estimated scf accuracy    <       0.00010131 Ry

     iteration #  6     ecut=    30.00 Ry     beta=0.70
     Davidson diagonalization with overlap
     ethr =  1.84E-07,  avg # of iterations =  2.0

     total cpu time spent up to now is       13.5 secs

     total energy              =    -329.39520813 Ry
     Harris-Foulkes estimate   =    -329.39521521 Ry
     estimated scf accuracy    <       0.00001147 Ry

     iteration #  7     ecut=    30.00 Ry     beta=0.70
     Davidson diagonalization with overlap
     ethr =  2.09E-08,  avg # of iterations =  2.0

     total cpu time spent up to now is       13.7 secs

     total energy              =    -329.39520934 Ry
     Harris-Foulkes estimate   =    -329.39521148 Ry
     estimated scf accuracy    <       0.00000233 Ry

     iteration #  8     ecut=    30.00 Ry     beta=0.70
     Davidson diagonalization with overlap
     ethr =  4.24E-09,  avg # of iterations =  3.0

     total cpu time spent up to now is       13.9 secs

     total energy              =    -329.39520916 Ry
     Harris-Foulkes estimate   =    -329.39521001 Ry
     estimated scf accuracy    <       0.00000065 Ry

     iteration #  9     ecut=    30.00 Ry     beta=0.70
     Davidson diagonalization with overlap
     ethr =  1.18E-09,  avg # of iterations =  3.0

     total cpu time spent up to now is       14.1 secs

     total energy              =    -329.39520898 Ry
     Harris-Foulkes estimate   =    -329.39520931 Ry
     estimated scf accuracy    <       0.00000008 Ry

     iteration # 10     ecut=    30.00 Ry     beta=0.70
     Davidson diagonalization with overlap
     ethr =  1.54E-10,  avg # of iterations =  2.0

     total cpu time spent up to now is       14.4 secs

     total energy              =    -329.39520893 Ry
     Harris-Foulkes estimate   =    -329.39520901 Ry
     estimated scf accuracy    <       0.00000002 Ry

     iteration # 11     ecut=    30.00 Ry     beta=0.70
     Davidson diagonalization with overlap
     ethr =  4.15E-11,  avg # of iterations =  2.0

     total cpu time spent up to now is       14.6 secs

     End of self-consistent calculation

          k = 0.0000 0.0000 0.0000 ( 22119 PWs)   bands (ev):

    -7.9768  -7.4196  -7.1850  -7.0513  -6.9316  -6.8171  -6.6376  -6.5112
    -6.4015  -6.0697  -5.9201  -5.8707  -5.6185  -5.5361  -5.5120  -5.3135
    -5.2290  -5.1923  -5.1288  -5.1077  -5.0373  -5.0130  -4.9327  -4.8973
    -4.7785  -4.5621  -3.9207  -3.7090  -3.2664  -2.0202  -0.3532  -0.1094
     0.1570   0.3633

     the Fermi energy is    -3.6488 ev

!    total energy              =    -329.39520896 Ry
     Harris-Foulkes estimate   =    -329.39520894 Ry
     estimated scf accuracy    <          6.7E-10 Ry

     The total energy is the sum of the following terms:

     one-electron contribution =    -613.80564264 Ry
     hartree contribution      =     328.51457697 Ry
     xc contribution           =     -51.34329871 Ry
     ewald contribution        =       7.24572918 Ry
     smearing contrib. (-TS)   =      -0.00657376 Ry

     convergence has been achieved in  11 iterations

     Forces acting on atoms (Ry/au):

     atom    1 type  1   force =    -0.00429029   -0.00530528   -0.00858605
     atom    2 type  1   force =     0.01701710    0.00314288   -0.01580863
     atom    3 type  1   force =    -0.01623572    0.00284973    0.00418028
     atom    4 type  1   force =     0.00018066   -0.00993599    0.00873284
     atom    5 type  1   force =     0.00332825    0.00924866    0.01148157

     Total force =     0.036909     Total SCF correction =     0.000116

     number of scf cycles    =   4
     number of bfgs steps    =   3

     energy   old            =    -329.3881588925 Ry
     energy   new            =    -329.3952089646 Ry

     CASE: energy  _new < energy  _old

     new trust radius        =       0.0813058773 bohr
     new conv_thr            =       0.0000000017 Ry


ATOMIC_POSITIONS (bohr)
Au       1.602141694  -0.005434347   0.442325636
Au      -0.060214311   3.988332745   3.767269959
Au       3.249373299   4.549979485  -1.067622821
Au       4.588275039   4.757562314   5.444390146
Au       4.612799279  -0.364609196   4.709725080



     Writing output data file pwscf.save
     Check: negative starting charge=   -0.006104
     NEW-OLD atomic charge density approx. for the potential
     Check: negative starting charge=   -0.006089

     negative rho (up, down):  1.500E-03 0.000E+00

     total cpu time spent up to now is       14.8 secs

     per-process dynamical memory:    50.7 Mb

     Self-consistent Calculation

     iteration #  1     ecut=    30.00 Ry     beta=0.70
     Davidson diagonalization with overlap
     ethr =  1.00E-06,  avg # of iterations =  7.0

     negative rho (up, down):  1.283E-04 0.000E+00

     total cpu time spent up to now is       15.2 secs

     total energy              =    -329.39766942 Ry
     Harris-Foulkes estimate   =    -329.39709724 Ry
     estimated scf accuracy    <       0.00207661 Ry

     iteration #  2     ecut=    30.00 Ry     beta=0.70
     Davidson diagonalization with overlap
     ethr =  3.78E-06,  avg # of iterations =  4.0

     negative rho (up, down):  6.916E-05 0.000E+00

     total cpu time spent up to now is       15.5 secs

     total energy              =    -329.39685601 Ry
     Harris-Foulkes estimate   =    -329.39987147 Ry
     estimated scf accuracy    <       0.00888533 Ry

     iteration #  3     ecut=    30.00 Ry     beta=0.70
     Davidson diagonalization with overlap
     ethr =  3.78E-06,  avg # of iterations =  4.0

     negative rho (up, down):  1.467E-05 0.000E+00

     total cpu time spent up to now is       15.8 secs

     total energy              =    -329.39835155 Ry
     Harris-Foulkes estimate   =    -329.39874102 Ry
     estimated scf accuracy    <       0.00134894 Ry

     iteration #  4     ecut=    30.00 Ry     beta=0.70
     Davidson diagonalization with overlap
     ethr =  2.45E-06,  avg # of iterations =  2.0

     negative rho (up, down):  6.414E-07 0.000E+00

     total cpu time spent up to now is       16.0 secs

     total energy              =    -329.39851361 Ry
     Harris-Foulkes estimate   =    -329.39864865 Ry
     estimated scf accuracy    <       0.00042441 Ry

     iteration #  5     ecut=    30.00 Ry     beta=0.70
     Davidson diagonalization with overlap
     ethr =  7.72E-07,  avg # of iterations =  2.0

     total cpu time spent up to now is       16.1 secs

     total energy              =    -329.39858065 Ry
     Harris-Foulkes estimate   =    -329.39860721 Ry
     estimated scf accuracy    <       0.00007304 Ry

     iteration #  6     ecut=    30.00 Ry     beta=0.70
     Davidson diagonalization with overlap
     ethr =  1.33E-07,  avg # of iterations =  2.0

     total cpu time spent up to now is       16.3 secs

     total energy              =    -329.39859206 Ry
     Harris-Foulkes estimate   =    -329.39859751 Ry
     estimated scf accuracy    <       0.00000991 Ry

     iteration #  7     ecut=    30.00 Ry     beta=0.70
     Davidson diagonalization with overlap
     ethr =  1.80E-08,  avg # of iterations =  2.0

     total cpu time spent up to now is       16.6 secs

     total energy              =    -329.39859333 Ry
     Harris-Foulkes estimate   =    -329.39859480 Ry
     estimated scf accuracy    <       0.00000170 Ry

     iteration #  8     ecut=    30.00 Ry     beta=0.70
     Davidson diagonalization with overlap
     ethr =  3.10E-09,  avg # of iterations =  3.0

     total cpu time spent up to now is       16.8 secs

     total energy              =    -329.39859316 Ry
     Harris-Foulkes estimate   =    -329.39859379 Ry
     estimated scf accuracy    <       0.00000044 Ry

     iteration #  9     ecut=    30.00 Ry     beta=0.70
     Davidson diagonalization with overlap
     ethr =  8.04E-10,  avg # of iterations =  2.0

     total cpu time spent up to now is       17.0 secs

     total energy              =    -329.39859306 Ry
     Harris-Foulkes estimate   =    -329.39859326 Ry
     estimated scf accuracy    <       0.00000005 Ry

     iteration # 10     ecut=    30.00 Ry     beta=0.70
     Davidson diagonalization with overlap
     ethr =  9.55E-11,  avg # of iterations =  3.0

     total cpu time spent up to now is       17.2 secs

     total energy              =    -329.39859298 Ry
     Harris-Foulkes estimate   =    -329.39859308 Ry
     estimated scf accuracy    <       0.00000002 Ry

     iteration # 11     ecut=    30.00 Ry     beta=0.70
     Davidson diagonalization with overlap
     ethr =  3.49E-11,  avg # of iterations =  2.0

     total cpu time spent up to now is       17.4 secs

     End of self-consistent calculation

          k = 0.0000 0.0000 0.0000 ( 22119 PWs)   bands (ev):

    -7.9439  -7.3939  -7.1526  -6.9508  -6.8645  -6.7958  -6.6426  -6.4763
    -6.3252  -6.0707  -5.9449  -5.8602  -5.6087  -5.5299  -5.4903  -5.2914
    -5.2300  -5.1877  -5.1241  -5.1000  -5.0284  -5.0183  -4.9276  -4.8995
    -4.7884  -4.5653  -3.9397  -3.7007  -3.2420  -2.0537  -0.3520  -0.1195
     0.1452   0.3985

     the Fermi energy is    -3.6496 ev

!    total energy              =    -329.39859293 Ry
     Harris-Foulkes estimate   =    -329.39859299 Ry
     estimated scf accuracy    <          7.7E-10 Ry

     The total energy is the sum of the following terms:

     one-electron contribution =    -611.49104518 Ry
     hartree contribution      =     327.38387249 Ry
     xc contribution           =     -51.33777259 Ry
     ewald contribution        =       6.05182391 Ry
     smearing contrib. (-TS)   =      -0.00547155 Ry

     convergence has been achieved in  11 iterations

     Forces acting on atoms (Ry/au):

     atom    1 type  1   force =     0.00355556    0.00398142   -0.00254201
     atom    2 type  1   force =     0.01191303    0.00033124   -0.02096528
     atom    3 type  1   force =    -0.01991529   -0.00642514    0.00754903
     atom    4 type  1   force =     0.00632939   -0.00678774    0.01282180
     atom    5 type  1   force =    -0.00188269    0.00890022    0.00313646

     Total force =     0.038139     Total SCF correction =     0.000120

     number of scf cycles    =   5
     number of bfgs steps    =   4

     energy   old            =    -329.3952089646 Ry
     energy   new            =    -329.3985929348 Ry

     CASE: energy  _new < energy  _old

     new trust radius        =       0.1080635651 bohr
     new conv_thr            =       0.0000000021 Ry


ATOMIC_POSITIONS (bohr)
Au       1.552615230  -0.058687466   0.384799180
Au       0.016714774   4.005629938   3.693375052
Au       3.183591877   4.595533123  -1.061809394
Au       4.589817449   4.713103552   5.489758294
Au       4.649635669  -0.329748146   4.789964868



     Writing output data file pwscf.save
     Check: negative starting charge=   -0.006089
     NEW-OLD atomic charge density approx. for the potential
     Check: negative starting charge=   -0.006005

     negative rho (up, down):  2.423E-03 0.000E+00

     total cpu time spent up to now is       17.6 secs

     per-process dynamical memory:    50.7 Mb

     Self-consistent Calculation

     iteration #  1     ecut=    30.00 Ry     beta=0.70
     Davidson diagonalization with overlap
     ethr =  1.00E-06,  avg # of iterations =  9.0

     negative rho (up, down):  2.498E-04 0.000E+00

     total cpu time spent up to now is       18.1 secs

     total energy              =    -329.40102658 Ry
     Harris-Foulkes estimate   =    -329.39998557 Ry
     estimated scf accuracy    <       0.00342604 Ry

     iteration #  2     ecut=    30.00 Ry     beta=0.70
     Davidson diagonalization with overlap
     ethr =  6.23E-06,  avg # of iterations =  4.0

     negative rho (up, down):  1.210E-04 0.000E+00

     total cpu time spent up to now is       18.4 secs

     total energy              =    -329.40056995 Ry
     Harris-Foulkes estimate   =    -329.40360376 Ry
     estimated scf accuracy    <       0.00756874 Ry

     iteration #  3     ecut=    30.00 Ry     beta=0.70
     Davidson diagonalization with overlap
     ethr =  6.23E-06,  avg # of iterations =  5.0

     negative rho (up, down):  2.140E-05 0.000E+00

     total cpu time spent up to now is       18.7 secs

     total energy              =    -329.40211047 Ry
     Harris-Foulkes estimate   =    -329.40257810 Ry
     estimated scf accuracy    <       0.00145869 Ry

     iteration #  4     ecut=    30.00 Ry     beta=0.70
     Davidson diagonalization with overlap
     ethr =  2.65E-06,  avg # of iterations =  2.0

     negative rho (up, down):  7.878E-07 0.000E+00

     total cpu time spent up to now is       18.9 secs

     total energy              =    -329.40230725 Ry
     Harris-Foulkes estimate   =    -329.40246888 Ry
     estimated scf accuracy    <       0.00046811 Ry

     iteration #  5     ecut=    30.00 Ry     beta=0.70
     Davidson diagonalization with overlap
     ethr =  8.51E-07,  avg # of iterations =  2.0

     total cpu time spent up to now is       19.1 secs

     total energy              =    -329.40237741 Ry
     Harris-Foulkes estimate   =    -329.40243575 Ry
     estimated scf accuracy    <       0.00018849 Ry

     iteration #  6     ecut=    30.00 Ry     beta=0.70
     Davidson diagonalization with overlap
     ethr =  3.43E-07,  avg # of iterations =  1.0

     total cpu time spent up to now is       19.2 secs

     total energy              =    -329.40240392 Ry
     Harris-Foulkes estimate   =    -329.40241391 Ry
     estimated scf accuracy    <       0.00002318 Ry

     iteration #  7     ecut=    30.00 Ry     beta=0.70
     Davidson diagonalization with overlap
     ethr =  4.21E-08,  avg # of iterations =  2.0

     total cpu time spent up to now is       19.4 secs

     total energy              =    -329.40240759 Ry
     Harris-Foulkes estimate   =    -329.40240955 Ry
     estimated scf accuracy    <       0.00000252 Ry

     iteration #  8     ecut=    30.00 Ry     beta=0.70
     Davidson diagonalization with overlap
     ethr =  4.58E-09,  avg # of iterations =  2.0

     total cpu time spent up to now is       19.7 secs

     total energy              =    -329.40240782 Ry
     Harris-Foulkes estimate   =    -329.40240838 Ry
     estimated scf accuracy    <       0.00000067 Ry

     iteration #  9     ecut=    30.00 Ry     beta=0.70
     Davidson diagonalization with overlap
     ethr =  1.22E-09,  avg # of iterations =  2.0

     total cpu time spent up to now is       19.9 secs

     total energy              =    -329.40240764 Ry
     Harris-Foulkes estimate   =    -329.40240797 Ry
     estimated scf accuracy    <       0.00000007 Ry

     iteration # 10     ecut=    30.00 Ry     beta=0.70
     Davidson diagonalization with overlap
     ethr =  1.27E-10,  avg # of iterations =  2.0

     total cpu time spent up to now is       20.1 secs

     total energy              =    -329.40240758 Ry
     Harris-Foulkes estimate   =    -329.40240766 Ry
     estimated scf accuracy    <       0.00000002 Ry

     iteration # 11     ecut=    30.00 Ry     beta=0.70
     Davidson diagonalization with overlap
     ethr =  4.05E-11,  avg # of iterations =  2.0

     total cpu time spent up to now is       20.3 secs

     End of self-consistent calculation

          k = 0.0000 0.0000 0.0000 ( 22119 PWs)   bands (ev):

    -7.9375  -7.4137  -7.1932  -6.9135  -6.8018  -6.7002  -6.6732  -6.4363
    -6.2432  -6.0792  -5.9992  -5.8280  -5.5947  -5.5211  -5.4619  -5.2797
    -5.2320  -5.1848  -5.1187  -5.0880  -5.0147  -5.0121  -4.9184  -4.8943
    -4.7928  -4.5661  -3.9677  -3.6816  -3.1959  -2.0832  -0.3518  -0.1321
     0.1345   0.4489

     the Fermi energy is    -3.6452 ev

!    total energy              =    -329.40240758 Ry
     Harris-Foulkes estimate   =    -329.40240759 Ry
     estimated scf accuracy    <          1.8E-09 Ry

     The total energy is the sum of the following terms:

     one-electron contribution =    -610.31571375 Ry
     hartree contribution      =     326.81862167 Ry
     xc contribution           =     -51.34044635 Ry
     ewald contribution        =       5.43881567 Ry
     smearing contrib. (-TS)   =      -0.00368484 Ry

     convergence has been achieved in  11 iterations

     Forces acting on atoms (Ry/au):

     atom    1 type  1   force =     0.00807393    0.01040215    0.00070144
     atom    2 type  1   force =     0.00490061   -0.00262561   -0.02623589
     atom    3 type  1   force =    -0.02287755   -0.01130799    0.00969556
     atom    4 type  1   force =     0.01458814   -0.00069681    0.01881557
     atom    5 type  1   force =    -0.00468512    0.00422826   -0.00297669

     Total force =     0.047480     Total SCF correction =     0.000203

     number of scf cycles    =   6
     number of bfgs steps    =   5

     energy   old            =    -329.3985929348 Ry
     energy   new            =    -329.4024075834 Ry

     CASE: energy  _new < energy  _old

     new trust radius        =       0.1188699216 bohr
     new conv_thr            =       0.0000000026 Ry


ATOMIC_POSITIONS (bohr)
Au       1.508928547  -0.103916641   0.328693205
Au       0.092809707   4.020178666   3.603219887
Au       3.104480377   4.633507362  -1.050102333
Au       4.603093149   4.671425495   5.548035863
Au       4.683063220  -0.295363882   4.866241378



     Writing output data file pwscf.save
     Check: negative starting charge=   -0.006005
     NEW-OLD atomic charge density approx. for the potential
     Check: negative starting charge=   -0.005918

     negative rho (up, down):  2.619E-03 0.000E+00

     total cpu time spent up to now is       20.5 secs

     per-process dynamical memory:    50.7 Mb

     Self-consistent Calculation

     iteration #  1     ecut=    30.00 Ry     beta=0.70
     Davidson diagonalization with overlap
     ethr =  1.00E-06,  avg # of iterations = 10.0

     negative rho (up, down):  2.765E-04 0.000E+00

     total cpu time spent up to now is       21.0 secs

     total energy              =    -329.40473987 Ry
     Harris-Foulkes estimate   =    -329.40303220 Ry
     estimated scf accuracy    <       0.00351754 Ry

     iteration #  2     ecut=    30.00 Ry     beta=0.70
     Davidson diagonalization with overlap
     ethr =  6.40E-06,  avg # of iterations =  5.0

     negative rho (up, down):  1.287E-04 0.000E+00

     total cpu time spent up to now is       21.3 secs

     total energy              =    -329.40450260 Ry
     Harris-Foulkes estimate   =    -329.40721372 Ry
     estimated scf accuracy    <       0.00662374 Ry

     iteration #  3     ecut=    30.00 Ry     beta=0.70
     Davidson diagonalization with overlap
     ethr =  6.40E-06,  avg # of iterations =  5.0

     negative rho (up, down):  2.375E-05 0.000E+00

     total cpu time spent up to now is       21.6 secs

     total energy              =    -329.40582811 Ry
     Harris-Foulkes estimate   =    -329.40632034 Ry
     estimated scf accuracy    <       0.00151494 Ry

     iteration #  4     ecut=    30.00 Ry     beta=0.70
     Davidson diagonalization with overlap
     ethr =  2.75E-06,  avg # of iterations =  3.0

     negative rho (up, down):  8.390E-07 0.000E+00

     total cpu time spent up to now is       21.8 secs

     total energy              =    -329.40604173 Ry
     Harris-Foulkes estimate   =    -329.40622723 Ry
     estimated scf accuracy    <       0.00056898 Ry

     iteration #  5     ecut=    30.00 Ry     beta=0.70
     Davidson diagonalization with overlap
     ethr =  1.03E-06,  avg # of iterations =  2.0

     total cpu time spent up to now is       21.9 secs

     total energy              =    -329.40612536 Ry
     Harris-Foulkes estimate   =    -329.40617765 Ry
     estimated scf accuracy    <       0.00015070 Ry

     iteration #  6     ecut=    30.00 Ry     beta=0.70
     Davidson diagonalization with overlap
     ethr =  2.74E-07,  avg # of iterations =  2.0

     total cpu time spent up to now is       22.1 secs

     total energy              =    -329.40614841 Ry
     Harris-Foulkes estimate   =    -329.40615786 Ry
     estimated scf accuracy    <       0.00002020 Ry

     iteration #  7     ecut=    30.00 Ry     beta=0.70
     Davidson diagonalization with overlap
     ethr =  3.67E-08,  avg # of iterations =  2.0

     total cpu time spent up to now is       22.3 secs

     total energy              =    -329.40615148 Ry
     Harris-Foulkes estimate   =    -329.40615343 Ry
     estimated scf accuracy    <       0.00000217 Ry

     iteration #  8     ecut=    30.00 Ry     beta=0.70
     Davidson diagonalization with overlap
     ethr =  3.94E-09,  avg # of iterations =  2.0

     total cpu time spent up to now is       22.6 secs

     total energy              =    -329.40615173 Ry
     Harris-Foulkes estimate   =    -329.40615214 Ry
     estimated scf accuracy    <       0.00000047 Ry

     iteration #  9     ecut=    30.00 Ry     beta=0.70
     Davidson diagonalization with overlap
     ethr =  8.52E-10,  avg # of iterations =  2.0

     total cpu time spent up to now is       22.8 secs

     total energy              =    -329.40615162 Ry
     Harris-Foulkes estimate   =    -329.40615185 Ry
     estimated scf accuracy    <       0.00000006 Ry

     iteration # 10     ecut=    30.00 Ry     beta=0.70
     Davidson diagonalization with overlap
     ethr =  1.14E-10,  avg # of iterations =  2.0

     total cpu time spent up to now is       23.0 secs

     total energy              =    -329.40615160 Ry
     Harris-Foulkes estimate   =    -329.40615164 Ry
     estimated scf accuracy    <       0.00000001 Ry

     iteration # 11     ecut=    30.00 Ry     beta=0.70
     Davidson diagonalization with overlap
     ethr =  2.02E-11,  avg # of iterations =  2.0

     total cpu time spent up to now is       23.2 secs

     End of self-consistent calculation

          k = 0.0000 0.0000 0.0000 ( 22119 PWs)   bands (ev):

    -7.9357  -7.4344  -7.2688  -6.8996  -6.7788  -6.7444  -6.5631  -6.4249
    -6.2037  -6.0734  -6.0356  -5.7946  -5.5718  -5.5091  -5.4330  -5.2911
    -5.2393  -5.1721  -5.1090  -5.0737  -5.0017  -4.9956  -4.9111  -4.8878
    -4.7829  -4.5653  -3.9990  -3.6589  -3.1414  -2.1087  -0.3529  -0.1432
     0.1282   0.5019

     the Fermi energy is    -3.6369 ev

!    total energy              =    -329.40615156 Ry
     Harris-Foulkes estimate   =    -329.40615160 Ry
     estimated scf accuracy    <          1.7E-09 Ry

     The total energy is the sum of the following terms:

     one-electron contribution =    -609.72151900 Ry
     hartree contribution      =     326.53856658 Ry
     xc contribution           =     -51.34803044 Ry
     ewald contribution        =       5.12670049 Ry
     smearing contrib. (-TS)   =      -0.00186920 Ry

     convergence has been achieved in  11 iterations

     Forces acting on atoms (Ry/au):

     atom    1 type  1   force =     0.00958081    0.01346929    0.00326884
     atom    2 type  1   force =     0.00062967   -0.00417782   -0.02612261
     atom    3 type  1   force =    -0.02282074   -0.01329306    0.00794007
     atom    4 type  1   force =     0.01917051    0.00646401    0.02056480
     atom    5 type  1   force =    -0.00656025   -0.00246242   -0.00565110

     Total force =     0.051555     Total SCF correction =     0.000177

     number of scf cycles    =   7
     number of bfgs steps    =   6

     energy   old            =    -329.4024075834 Ry
     energy   new            =    -329.4061515635 Ry

     CASE: energy  _new < energy  _old

     new trust radius        =       0.1783048824 bohr
     new conv_thr            =       0.0000000026 Ry


ATOMIC_POSITIONS (bohr)
Au       1.455200701  -0.156175765   0.254276826
Au       0.198327559   4.037064628   3.460484193
Au       2.978266521   4.676153958  -1.030330164
Au       4.636845809   4.622632541   5.643670669
Au       4.723734410  -0.253844363   4.967986476



     Writing output data file pwscf.save
     Check: negative starting charge=   -0.005918
     NEW-OLD atomic charge density approx. for the potential
     Check: negative starting charge=   -0.006024

     negative rho (up, down):  4.393E-03 0.000E+00

     total cpu time spent up to now is       23.5 secs

     per-process dynamical memory:    50.7 Mb

     Self-consistent Calculation

     iteration #  1     ecut=    30.00 Ry     beta=0.70
     Davidson diagonalization with overlap
     c_bands:  1 eigenvalues not converged
     ethr =  1.00E-06,  avg # of iterations = 20.0

     negative rho (up, down):  5.191E-04 0.000E+00

     total cpu time spent up to now is       24.0 secs

     total energy              =    -329.40710750 Ry
     Harris-Foulkes estimate   =    -329.41643264 Ry
     estimated scf accuracy    <       0.00700743 Ry

     iteration #  2     ecut=    30.00 Ry     beta=0.70
     Davidson diagonalization with overlap
     ethr =  1.27E-05,  avg # of iterations =  7.0

     negative rho (up, down):  2.814E-04 0.000E+00

     total cpu time spent up to now is       24.3 secs

     total energy              =    -329.40669955 Ry
     Harris-Foulkes estimate   =    -329.41319990 Ry
     estimated scf accuracy    <       0.01655885 Ry

     iteration #  3     ecut=    30.00 Ry     beta=0.70
     Davidson diagonalization with overlap
     ethr =  1.27E-05,  avg # of iterations =  4.0

     negative rho (up, down):  7.751E-05 0.000E+00

     total cpu time spent up to now is       24.6 secs

     total energy              =    -329.40975438 Ry
     Harris-Foulkes estimate   =    -329.41094525 Ry
     estimated scf accuracy    <       0.00379730 Ry

     iteration #  4     ecut=    30.00 Ry     beta=0.70
     Davidson diagonalization with overlap
     ethr =  6.90E-06,  avg # of iterations =  3.0

     negative rho (up, down):  2.960E-06 0.000E+00

     total cpu time spent up to now is       24.8 secs

     total energy              =    -329.41031260 Ry
     Harris-Foulkes estimate   =    -329.41069086 Ry
     estimated scf accuracy    <       0.00116177 Ry

     iteration #  5     ecut=    30.00 Ry     beta=0.70
     Davidson diagonalization with overlap
     ethr =  2.11E-06,  avg # of iterations =  2.0

     total cpu time spent up to now is       25.0 secs

     total energy              =    -329.41049667 Ry
     Harris-Foulkes estimate   =    -329.41056743 Ry
     estimated scf accuracy    <       0.00017516 Ry

     iteration #  6     ecut=    30.00 Ry     beta=0.70
     Davidson diagonalization with overlap
     ethr =  3.18E-07,  avg # of iterations =  2.0

     total cpu time spent up to now is       25.2 secs

     total energy              =    -329.41052957 Ry
     Harris-Foulkes estimate   =    -329.41054393 Ry
     estimated scf accuracy    <       0.00003275 Ry

     iteration #  7     ecut=    30.00 Ry     beta=0.70
     Davidson diagonalization with overlap
     ethr =  5.95E-08,  avg # of iterations =  2.0

     total cpu time spent up to now is       25.4 secs

     total energy              =    -329.41053439 Ry
     Harris-Foulkes estimate   =    -329.41053731 Ry
     estimated scf accuracy    <       0.00000305 Ry

     iteration #  8     ecut=    30.00 Ry     beta=0.70
     Davidson diagonalization with overlap
     ethr =  5.54E-09,  avg # of iterations =  2.0

     total cpu time spent up to now is       25.6 secs

     total energy              =    -329.41053446 Ry
     Harris-Foulkes estimate   =    -329.41053537 Ry
     estimated scf accuracy    <       0.00000080 Ry

     iteration #  9     ecut=    30.00 Ry     beta=0.70
     Davidson diagonalization with overlap
     ethr =  1.46E-09,  avg # of iterations =  2.0

     total cpu time spent up to now is       25.8 secs

     total energy              =    -329.41053438 Ry
     Harris-Foulkes estimate   =    -329.41053466 Ry
     estimated scf accuracy    <       0.00000008 Ry

     iteration # 10     ecut=    30.00 Ry     beta=0.70
     Davidson diagonalization with overlap
     ethr =  1.52E-10,  avg # of iterations =  2.0

     total cpu time spent up to now is       26.1 secs

     total energy              =    -329.41053431 Ry
     Harris-Foulkes estimate   =    -329.41053441 Ry
     estimated scf accuracy    <       0.00000001 Ry

     iteration # 11     ecut=    30.00 Ry     beta=0.70
     Davidson diagonalization with overlap
     ethr =  2.62E-11,  avg # of iterations =  2.0

     total cpu time spent up to now is       26.3 secs

     End of self-consistent calculation

          k = 0.0000 0.0000 0.0000 ( 22119 PWs)   bands (ev):

    -7.9466  -7.4844  -7.3350  -6.9076  -6.8216  -6.7132  -6.6566  -6.3704
    -6.1778  -6.1123  -5.9994  -5.7431  -5.5525  -5.4709  -5.4115  -5.3044
    -5.2656  -5.1485  -5.0773  -5.0560  -4.9826  -4.9650  -4.9184  -4.8738
    -4.7366  -4.5551  -4.0435  -3.6256  -3.0538  -2.1428  -0.3583  -0.1559
     0.1261   0.5802

     the Fermi energy is    -3.6173 ev

!    total energy              =    -329.41053430 Ry
     Harris-Foulkes estimate   =    -329.41053431 Ry
     estimated scf accuracy    <          1.7E-09 Ry

     The total energy is the sum of the following terms:

     one-electron contribution =    -609.30581752 Ry
     hartree contribution      =     326.34651393 Ry
     xc contribution           =     -51.36380391 Ry
     ewald contribution        =       4.91251975 Ry
     smearing contrib. (-TS)   =       0.00005345 Ry

     convergence has been achieved in  11 iterations

     Forces acting on atoms (Ry/au):

     atom    1 type  1   force =     0.01008182    0.01361297    0.00904703
     atom    2 type  1   force =     0.00009161   -0.00436805   -0.02153929
     atom    3 type  1   force =    -0.01759405   -0.01280895    0.00306556
     atom    4 type  1   force =     0.01808233    0.01557266    0.02096684
     atom    5 type  1   force =    -0.01066171   -0.01200864   -0.01154014

     Total force =     0.052297     Total SCF correction =     0.000167

     number of scf cycles    =   8
     number of bfgs steps    =   7

     energy   old            =    -329.4061515635 Ry
     energy   new            =    -329.4105342998 Ry

     CASE: energy  _new < energy  _old

     new trust radius        =       0.1682840204 bohr
     new conv_thr            =       0.0000000022 Ry


ATOMIC_POSITIONS (bohr)
Au       1.426195336  -0.180764710   0.207839434
Au       0.288765520   4.046279969   3.318866524
Au       2.853890233   4.692742865  -1.010594388
Au       4.683117183   4.601622124   5.746385740
Au       4.740406728  -0.234049249   5.033590691



     Writing output data file pwscf.save
     Check: negative starting charge=   -0.006024
     NEW-OLD atomic charge density approx. for the potential
     Check: negative starting charge=   -0.006060

     negative rho (up, down):  3.523E-03 0.000E+00

     total cpu time spent up to now is       26.5 secs

     per-process dynamical memory:    50.7 Mb

     Self-consistent Calculation

     iteration #  1     ecut=    30.00 Ry     beta=0.70
     Davidson diagonalization with overlap
     c_bands:  1 eigenvalues not converged
     ethr =  1.00E-06,  avg # of iterations = 20.0

     negative rho (up, down):  4.086E-04 0.000E+00

     total cpu time spent up to now is       27.0 secs

     total energy              =    -329.41119856 Ry
     Harris-Foulkes estimate   =    -329.41138703 Ry
     estimated scf accuracy    <       0.00598763 Ry

     iteration #  2     ecut=    30.00 Ry     beta=0.70
     Davidson diagonalization with overlap
     ethr =  1.09E-05,  avg # of iterations =  7.0

     negative rho (up, down):  2.343E-04 0.000E+00

     total cpu time spent up to now is       27.3 secs

     total energy              =    -329.41003257 Ry
     Harris-Foulkes estimate   =    -329.41709767 Ry
     estimated scf accuracy    <       0.01975550 Ry

     iteration #  3     ecut=    30.00 Ry     beta=0.70
     Davidson diagonalization with overlap
     ethr =  1.09E-05,  avg # of iterations =  3.0

     negative rho (up, down):  6.854E-05 0.000E+00

     total cpu time spent up to now is       27.6 secs

     total energy              =    -329.41348099 Ry
     Harris-Foulkes estimate   =    -329.41445905 Ry
     estimated scf accuracy    <       0.00320863 Ry

     iteration #  4     ecut=    30.00 Ry     beta=0.70
     Davidson diagonalization with overlap
     ethr =  5.83E-06,  avg # of iterations =  2.0

     negative rho (up, down):  1.508E-06 0.000E+00

     total cpu time spent up to now is       27.8 secs

     total energy              =    -329.41399174 Ry
     Harris-Foulkes estimate   =    -329.41418784 Ry
     estimated scf accuracy    <       0.00059776 Ry

     iteration #  5     ecut=    30.00 Ry     beta=0.70
     Davidson diagonalization with overlap
     ethr =  1.09E-06,  avg # of iterations =  4.0

     total cpu time spent up to now is       28.0 secs

     total energy              =    -329.41410275 Ry
     Harris-Foulkes estimate   =    -329.41414680 Ry
     estimated scf accuracy    <       0.00010765 Ry

     iteration #  6     ecut=    30.00 Ry     beta=0.70
     Davidson diagonalization with overlap
     ethr =  1.96E-07,  avg # of iterations =  2.0

     total cpu time spent up to now is       28.2 secs

     total energy              =    -329.41412145 Ry
     Harris-Foulkes estimate   =    -329.41413067 Ry
     estimated scf accuracy    <       0.00001929 Ry

     iteration #  7     ecut=    30.00 Ry     beta=0.70
     Davidson diagonalization with overlap
     ethr =  3.51E-08,  avg # of iterations =  2.0

     total cpu time spent up to now is       28.4 secs

     total energy              =    -329.41412419 Ry
     Harris-Foulkes estimate   =    -329.41412609 Ry
     estimated scf accuracy    <       0.00000176 Ry

     iteration #  8     ecut=    30.00 Ry     beta=0.70
     Davidson diagonalization with overlap
     ethr =  3.20E-09,  avg # of iterations =  2.0

     total cpu time spent up to now is       28.7 secs

     total energy              =    -329.41412416 Ry
     Harris-Foulkes estimate   =    -329.41412476 Ry
     estimated scf accuracy    <       0.00000045 Ry

     iteration #  9     ecut=    30.00 Ry     beta=0.70
     Davidson diagonalization with overlap
     ethr =  8.20E-10,  avg # of iterations =  2.0

     total cpu time spent up to now is       28.9 secs

     total energy              =    -329.41412396 Ry
     Harris-Foulkes estimate   =    -329.41412428 Ry
     estimated scf accuracy    <       0.00000005 Ry

     iteration # 10     ecut=    30.00 Ry     beta=0.70
     Davidson diagonalization with overlap
     ethr =  9.51E-11,  avg # of iterations =  2.0

     total cpu time spent up to now is       29.1 secs

     total energy              =    -329.41412390 Ry
     Harris-Foulkes estimate   =    -329.41412398 Ry
     estimated scf accuracy    <       0.00000001 Ry

     iteration # 11     ecut=    30.00 Ry     beta=0.70
     Davidson diagonalization with overlap
     ethr =  1.95E-11,  avg # of iterations =  2.0

     total cpu time spent up to now is       29.3 secs

     End of self-consistent calculation

          k = 0.0000 0.0000 0.0000 ( 22119 PWs)   bands (ev):

    -8.0384  -7.5514  -7.2746  -7.0171  -6.8976  -6.7342  -6.7080  -6.3858
    -6.2064  -6.1046  -6.0015  -5.7084  -5.5583  -5.4328  -5.4008  -5.3047
    -5.2804  -5.1413  -5.0534  -5.0318  -4.9618  -4.9428  -4.9308  -4.8540
    -4.6868  -4.5419  -4.0778  -3.5992  -2.9654  -2.1690  -0.3683  -0.1649
     0.1341   0.6475

     the Fermi energy is    -3.5937 ev

!    total energy              =    -329.41412385 Ry
     Harris-Foulkes estimate   =    -329.41412391 Ry
     estimated scf accuracy    <          8.3E-10 Ry

     The total energy is the sum of the following terms:

     one-electron contribution =    -610.00640731 Ry
     hartree contribution      =     326.69571782 Ry
     xc contribution           =     -51.38293731 Ry
     ewald contribution        =       5.27892126 Ry
     smearing contrib. (-TS)   =       0.00058169 Ry

     convergence has been achieved in  11 iterations

     Forces acting on atoms (Ry/au):

     atom    1 type  1   force =     0.01152842    0.00873926    0.01110740
     atom    2 type  1   force =    -0.00229675   -0.00389815   -0.00376815
     atom    3 type  1   force =    -0.00958276   -0.00735783   -0.01221718
     atom    4 type  1   force =     0.01164196    0.01851558    0.01983311
     atom    5 type  1   force =    -0.01129087   -0.01599886   -0.01495518

     Total force =     0.046275     Total SCF correction =     0.000137

     number of scf cycles    =   9
     number of bfgs steps    =   8

     energy   old            =    -329.4105342998 Ry
     energy   new            =    -329.4141238548 Ry

     CASE: energy  _new < energy  _old

     new trust radius        =       0.0565051955 bohr
     new conv_thr            =       0.0000000020 Ry


ATOMIC_POSITIONS (bohr)
Au       1.456881139  -0.150672378   0.232122839
Au       0.287946229   4.037448150   3.293679711
Au       2.823014443   4.663060210  -1.016165931
Au       4.711266581   4.630706537   5.785813463
Au       4.713266608  -0.254711519   5.000637919



     Writing output data file pwscf.save
     Check: negative starting charge=   -0.006060
     NEW-OLD atomic charge density approx. for the potential
     Check: negative starting charge=   -0.006053

     negative rho (up, down):  8.317E-04 0.000E+00

     total cpu time spent up to now is       29.5 secs

     per-process dynamical memory:    50.7 Mb

     Self-consistent Calculation

     iteration #  1     ecut=    30.00 Ry     beta=0.70
     Davidson diagonalization with overlap
     ethr =  1.00E-06,  avg # of iterations =  6.0

     negative rho (up, down):  5.293E-05 0.000E+00

     total cpu time spent up to now is       29.9 secs

     total energy              =    -329.41687707 Ry
     Harris-Foulkes estimate   =    -329.41698555 Ry
     estimated scf accuracy    <       0.00134036 Ry

     iteration #  2     ecut=    30.00 Ry     beta=0.70
     Davidson diagonalization with overlap
     ethr =  2.44E-06,  avg # of iterations =  6.0

     negative rho (up, down):  2.897E-05 0.000E+00

     total cpu time spent up to now is       30.2 secs

     total energy              =    -329.41613016 Ry
     Harris-Foulkes estimate   =    -329.41897701 Ry
     estimated scf accuracy    <       0.00959705 Ry

     iteration #  3     ecut=    30.00 Ry     beta=0.70
     Davidson diagonalization with overlap
     ethr =  2.44E-06,  avg # of iterations =  4.0

     negative rho (up, down):  2.625E-06 0.000E+00

     total cpu time spent up to now is       30.5 secs

     total energy              =    -329.41753932 Ry
     Harris-Foulkes estimate   =    -329.41762991 Ry
     estimated scf accuracy    <       0.00028867 Ry

     iteration #  4     ecut=    30.00 Ry     beta=0.70
     Davidson diagonalization with overlap
     ethr =  5.25E-07,  avg # of iterations =  2.0

     total cpu time spent up to now is       30.7 secs

     total energy              =    -329.41758919 Ry
     Harris-Foulkes estimate   =    -329.41760617 Ry
     estimated scf accuracy    <       0.00004626 Ry

     iteration #  5     ecut=    30.00 Ry     beta=0.70
     Davidson diagonalization with overlap
     ethr =  8.41E-08,  avg # of iterations =  2.0

     total cpu time spent up to now is       30.9 secs

     total energy              =    -329.41759726 Ry
     Harris-Foulkes estimate   =    -329.41760647 Ry
     estimated scf accuracy    <       0.00002461 Ry

     iteration #  6     ecut=    30.00 Ry     beta=0.70
     Davidson diagonalization with overlap
     ethr =  4.47E-08,  avg # of iterations =  2.0

     total cpu time spent up to now is       31.1 secs

     total energy              =    -329.41760103 Ry
     Harris-Foulkes estimate   =    -329.41760192 Ry
     estimated scf accuracy    <       0.00000095 Ry

     iteration #  7     ecut=    30.00 Ry     beta=0.70
     Davidson diagonalization with overlap
     ethr =  1.72E-09,  avg # of iterations =  3.0

     total cpu time spent up to now is       31.3 secs

     total energy              =    -329.41760099 Ry
     Harris-Foulkes estimate   =    -329.41760139 Ry
     estimated scf accuracy    <       0.00000024 Ry

     iteration #  8     ecut=    30.00 Ry     beta=0.70
     Davidson diagonalization with overlap
     ethr =  4.42E-10,  avg # of iterations =  2.0

     total cpu time spent up to now is       31.5 secs

     total energy              =    -329.41760104 Ry
     Harris-Foulkes estimate   =    -329.41760107 Ry
     estimated scf accuracy    <       0.00000005 Ry

     iteration #  9     ecut=    30.00 Ry     beta=0.70
     Davidson diagonalization with overlap
     ethr =  9.36E-11,  avg # of iterations =  2.0

     total cpu time spent up to now is       31.8 secs

     total energy              =    -329.41760107 Ry
     Harris-Foulkes estimate   =    -329.41760105 Ry
     estimated scf accuracy    <          3.1E-09 Ry

     iteration # 10     ecut=    30.00 Ry     beta=0.70
     Davidson diagonalization with overlap
     ethr =  5.70E-12,  avg # of iterations =  2.0

     total cpu time spent up to now is       32.0 secs

     End of self-consistent calculation

          k = 0.0000 0.0000 0.0000 ( 22119 PWs)   bands (ev):

    -8.1185  -7.5018  -7.1589  -7.0708  -6.8957  -6.8029  -6.6699  -6.4321
    -6.1669  -6.1450  -6.0317  -5.7369  -5.5428  -5.4404  -5.3974  -5.3180
    -5.2897  -5.1496  -5.0522  -5.0254  -4.9562  -4.9409  -4.9309  -4.8545
    -4.6774  -4.5400  -4.0758  -3.6009  -2.9498  -2.1692  -0.3699  -0.1666
     0.1465   0.6389

     the Fermi energy is    -3.5955 ev

!    total energy              =    -329.41760104 Ry
     Harris-Foulkes estimate   =    -329.41760108 Ry
     estimated scf accuracy    <          5.5E-10 Ry

     The total energy is the sum of the following terms:

     one-electron contribution =    -611.11505907 Ry
     hartree contribution      =     327.24421310 Ry
     xc contribution           =     -51.38434982 Ry
     ewald contribution        =       5.83695803 Ry
     smearing contrib. (-TS)   =       0.00063672 Ry

     convergence has been achieved in  10 iterations

     Forces acting on atoms (Ry/au):

     atom    1 type  1   force =     0.00978466    0.00143801    0.00975573
     atom    2 type  1   force =     0.00124921   -0.00194902    0.00566666
     atom    3 type  1   force =    -0.00549385   -0.00118706   -0.01767581
     atom    4 type  1   force =     0.00540696    0.00783107    0.01494829
     atom    5 type  1   force =    -0.01094698   -0.00613300   -0.01269486

     Total force =     0.034743     Total SCF correction =     0.000121

     number of scf cycles    =  10
     number of bfgs steps    =   9

     energy   old            =    -329.4141238548 Ry
     energy   new            =    -329.4176010399 Ry

     CASE: energy  _new < energy  _old

     new trust radius        =       0.0621557150 bohr
     new conv_thr            =       0.0000000018 Ry


ATOMIC_POSITIONS (bohr)
Au       1.494807606  -0.119990632   0.268142944
Au       0.269910690   4.027371462   3.306568807
Au       2.820751967   4.633861137  -1.033431089
Au       4.727104292   4.658330335   5.802967126
Au       4.679800445  -0.273741302   4.951840211



     Writing output data file pwscf.save
     Check: negative starting charge=   -0.006053
     NEW-OLD atomic charge density approx. for the potential
     Check: negative starting charge=   -0.006022

     negative rho (up, down):  8.544E-04 0.000E+00

     total cpu time spent up to now is       32.2 secs

     per-process dynamical memory:    50.7 Mb

     Self-consistent Calculation

     iteration #  1     ecut=    30.00 Ry     beta=0.70
     Davidson diagonalization with overlap
     ethr =  1.00E-06,  avg # of iterations = 12.0

     negative rho (up, down):  5.374E-05 0.000E+00

     total cpu time spent up to now is       32.6 secs

     total energy              =    -329.41940715 Ry
     Harris-Foulkes estimate   =    -329.41911707 Ry
     estimated scf accuracy    <       0.00090248 Ry

     iteration #  2     ecut=    30.00 Ry     beta=0.70
     Davidson diagonalization with overlap
     ethr =  1.64E-06,  avg # of iterations =  7.0

     negative rho (up, down):  2.551E-05 0.000E+00

     total cpu time spent up to now is       32.9 secs

     total energy              =    -329.41911174 Ry
     Harris-Foulkes estimate   =    -329.42041537 Ry
     estimated scf accuracy    <       0.00378333 Ry

     iteration #  3     ecut=    30.00 Ry     beta=0.70
     Davidson diagonalization with overlap
     ethr =  1.64E-06,  avg # of iterations =  3.0

     negative rho (up, down):  2.496E-06 0.000E+00

     total cpu time spent up to now is       33.2 secs

     total energy              =    -329.41974157 Ry
     Harris-Foulkes estimate   =    -329.41986275 Ry
     estimated scf accuracy    <       0.00036879 Ry

     iteration #  4     ecut=    30.00 Ry     beta=0.70
     Davidson diagonalization with overlap
     ethr =  6.71E-07,  avg # of iterations =  2.0

     total cpu time spent up to now is       33.4 secs

     total energy              =    -329.41979938 Ry
     Harris-Foulkes estimate   =    -329.41983479 Ry
     estimated scf accuracy    <       0.00010163 Ry

     iteration #  5     ecut=    30.00 Ry     beta=0.70
     Davidson diagonalization with overlap
     ethr =  1.85E-07,  avg # of iterations =  2.0

     total cpu time spent up to now is       33.6 secs

     total energy              =    -329.41981835 Ry
     Harris-Foulkes estimate   =    -329.41982615 Ry
     estimated scf accuracy    <       0.00002339 Ry

     iteration #  6     ecut=    30.00 Ry     beta=0.70
     Davidson diagonalization with overlap
     ethr =  4.25E-08,  avg # of iterations =  2.0

     total cpu time spent up to now is       33.8 secs

     total energy              =    -329.41982249 Ry
     Harris-Foulkes estimate   =    -329.41982320 Ry
     estimated scf accuracy    <       0.00000143 Ry

     iteration #  7     ecut=    30.00 Ry     beta=0.70
     Davidson diagonalization with overlap
     ethr =  2.60E-09,  avg # of iterations =  2.0

     total cpu time spent up to now is       34.0 secs

     total energy              =    -329.41982307 Ry
     Harris-Foulkes estimate   =    -329.41982301 Ry
     estimated scf accuracy    <       0.00000030 Ry

     iteration #  8     ecut=    30.00 Ry     beta=0.70
     Davidson diagonalization with overlap
     ethr =  5.41E-10,  avg # of iterations =  2.0

     total cpu time spent up to now is       34.2 secs

     total energy              =    -329.41982312 Ry
     Harris-Foulkes estimate   =    -329.41982315 Ry
     estimated scf accuracy    <       0.00000005 Ry

     iteration #  9     ecut=    30.00 Ry     beta=0.70
     Davidson diagonalization with overlap
     ethr =  8.33E-11,  avg # of iterations =  2.0

     total cpu time spent up to now is       34.4 secs

     total energy              =    -329.41982311 Ry
     Harris-Foulkes estimate   =    -329.41982314 Ry
     estimated scf accuracy    <          4.9E-09 Ry

     iteration # 10     ecut=    30.00 Ry     beta=0.70
     Davidson diagonalization with overlap
     ethr =  8.96E-12,  avg # of iterations =  3.0

     total cpu time spent up to now is       34.7 secs

     End of self-consistent calculation

          k = 0.0000 0.0000 0.0000 ( 22119 PWs)   bands (ev):

    -8.1550  -7.4608  -7.0794  -7.0520  -6.9018  -6.8763  -6.6134  -6.4825
    -6.2394  -6.0900  -6.0495  -5.7709  -5.5356  -5.4489  -5.3934  -5.3309
    -5.2971  -5.1585  -5.0530  -5.0306  -4.9549  -4.9456  -4.9288  -4.8585
    -4.6796  -4.5397  -4.0652  -3.6101  -2.9569  -2.1578  -0.3692  -0.1659
[...]
     Harris-Foulkes estimate   =    -329.45348402 Ry
     estimated scf accuracy    <       0.00015146 Ry

     iteration # 53     ecut=    30.00 Ry     beta=0.70
     Davidson diagonalization with overlap
     ethr =  3.64E-08,  avg # of iterations =  3.0

     total cpu time spent up to now is       64.3 secs

     total energy              =    -329.45345749 Ry
     Harris-Foulkes estimate   =    -329.45344576 Ry
     estimated scf accuracy    <       0.00001935 Ry

     iteration # 54     ecut=    30.00 Ry     beta=0.70
     Davidson diagonalization with overlap
     ethr =  3.52E-08,  avg # of iterations =  2.0

     total cpu time spent up to now is       64.5 secs

     total energy              =    -329.45344547 Ry
     Harris-Foulkes estimate   =    -329.45345557 Ry
     estimated scf accuracy    <       0.00002878 Ry

     iteration # 55     ecut=    30.00 Ry     beta=0.70
     Davidson diagonalization with overlap
     ethr =  3.52E-08,  avg # of iterations =  3.0

     total cpu time spent up to now is       64.7 secs

     total energy              =    -329.45344385 Ry
     Harris-Foulkes estimate   =    -329.45344367 Ry
     estimated scf accuracy    <       0.00001984 Ry

     iteration # 56     ecut=    30.00 Ry     beta=0.70
     Davidson diagonalization with overlap
     ethr =  3.52E-08,  avg # of iterations =  1.0

     total cpu time spent up to now is       64.9 secs

     total energy              =    -329.45344328 Ry
     Harris-Foulkes estimate   =    -329.45344388 Ry
     estimated scf accuracy    <       0.00001950 Ry

     iteration # 57     ecut=    30.00 Ry     beta=0.70
     Davidson diagonalization with overlap
     ethr =  3.52E-08,  avg # of iterations =  1.0

     total cpu time spent up to now is       65.1 secs

     total energy              =    -329.45344176 Ry
     Harris-Foulkes estimate   =    -329.45344327 Ry
     estimated scf accuracy    <       0.00002022 Ry

     iteration # 58     ecut=    30.00 Ry     beta=0.70
     Davidson diagonalization with overlap
     ethr =  3.52E-08,  avg # of iterations =  1.0

     total cpu time spent up to now is       65.3 secs

     total energy              =    -329.45344001 Ry
     Harris-Foulkes estimate   =    -329.45344168 Ry
     estimated scf accuracy    <       0.00002207 Ry

     iteration # 59     ecut=    30.00 Ry     beta=0.70
     Davidson diagonalization with overlap
     ethr =  3.52E-08,  avg # of iterations =  1.0

     total cpu time spent up to now is       65.5 secs

     total energy              =    -329.45343387 Ry
     Harris-Foulkes estimate   =    -329.45343992 Ry
     estimated scf accuracy    <       0.00002430 Ry

     iteration # 60     ecut=    30.00 Ry     beta=0.70
     Davidson diagonalization with overlap
     ethr =  3.52E-08,  avg # of iterations =  2.0

     total cpu time spent up to now is       65.7 secs

     total energy              =    -329.45341396 Ry
     Harris-Foulkes estimate   =    -329.45343179 Ry
     estimated scf accuracy    <       0.00004144 Ry

     iteration # 61     ecut=    30.00 Ry     beta=0.70
     Davidson diagonalization with overlap
     ethr =  3.52E-08,  avg # of iterations =  3.0

     total cpu time spent up to now is       65.9 secs

     total energy              =    -329.45393618 Ry
     Harris-Foulkes estimate   =    -329.45335155 Ry
     estimated scf accuracy    <       0.00049160 Ry

     iteration # 62     ecut=    30.00 Ry     beta=0.70
     Davidson diagonalization with overlap
     ethr =  3.52E-08,  avg # of iterations =  4.0

     total cpu time spent up to now is       66.2 secs

     total energy              =    -329.45317740 Ry
     Harris-Foulkes estimate   =    -329.45356886 Ry
     estimated scf accuracy    <       0.00084387 Ry

     iteration # 63     ecut=    30.00 Ry     beta=0.70
     Davidson diagonalization with overlap
     ethr =  3.52E-08,  avg # of iterations =  4.0

     total cpu time spent up to now is       66.6 secs

     total energy              =    -329.45359582 Ry
     Harris-Foulkes estimate   =    -329.45329611 Ry
     estimated scf accuracy    <       0.00089281 Ry

     iteration # 64     ecut=    30.00 Ry     beta=0.70
     Davidson diagonalization with overlap
     ethr =  3.52E-08,  avg # of iterations =  4.0

     total cpu time spent up to now is       66.8 secs

     total energy              =    -329.45342561 Ry
     Harris-Foulkes estimate   =    -329.45343543 Ry
     estimated scf accuracy    <       0.00003086 Ry

     iteration # 65     ecut=    30.00 Ry     beta=0.70
     Davidson diagonalization with overlap
     ethr =  3.52E-08,  avg # of iterations =  3.0

     total cpu time spent up to now is       67.0 secs

     total energy              =    -329.45340747 Ry
     Harris-Foulkes estimate   =    -329.45341923 Ry
     estimated scf accuracy    <       0.00008450 Ry

     iteration # 66     ecut=    30.00 Ry     beta=0.70
     Davidson diagonalization with overlap
     ethr =  3.52E-08,  avg # of iterations =  2.0

     total cpu time spent up to now is       67.2 secs

     total energy              =    -329.45340250 Ry
     Harris-Foulkes estimate   =    -329.45340440 Ry
     estimated scf accuracy    <       0.00015266 Ry

     iteration # 67     ecut=    30.00 Ry     beta=0.70
     Davidson diagonalization with overlap
     ethr =  3.52E-08,  avg # of iterations =  1.0

     total cpu time spent up to now is       67.4 secs

     total energy              =    -329.45343491 Ry
     Harris-Foulkes estimate   =    -329.45340249 Ry
     estimated scf accuracy    <       0.00016370 Ry

     iteration # 68     ecut=    30.00 Ry     beta=0.70
     Davidson diagonalization with overlap
     ethr =  3.52E-08,  avg # of iterations =  3.0

     total cpu time spent up to now is       67.6 secs

     total energy              =    -329.45342447 Ry
     Harris-Foulkes estimate   =    -329.45342569 Ry
     estimated scf accuracy    <       0.00005783 Ry

     iteration # 69     ecut=    30.00 Ry     beta=0.70
     Davidson diagonalization with overlap
     ethr =  3.52E-08,  avg # of iterations =  1.0

     total cpu time spent up to now is       67.8 secs

     total energy              =    -329.45341628 Ry
     Harris-Foulkes estimate   =    -329.45342446 Ry
     estimated scf accuracy    <       0.00006340 Ry

     iteration # 70     ecut=    30.00 Ry     beta=0.70
     Davidson diagonalization with overlap
     ethr =  3.52E-08,  avg # of iterations =  2.0

     total cpu time spent up to now is       68.0 secs

     total energy              =    -329.45342658 Ry
     Harris-Foulkes estimate   =    -329.45341456 Ry
     estimated scf accuracy    <       0.00010443 Ry

     iteration # 71     ecut=    30.00 Ry     beta=0.70
     Davidson diagonalization with overlap
     ethr =  3.52E-08,  avg # of iterations =  2.0

     total cpu time spent up to now is       68.2 secs

     total energy              =    -329.45346155 Ry
     Harris-Foulkes estimate   =    -329.45342467 Ry
     estimated scf accuracy    <       0.00006319 Ry

     iteration # 72     ecut=    30.00 Ry     beta=0.70
     Davidson diagonalization with overlap
     ethr =  3.52E-08,  avg # of iterations =  3.0

     total cpu time spent up to now is       68.5 secs

     total energy              =    -329.45345095 Ry
     Harris-Foulkes estimate   =    -329.45344578 Ry
     estimated scf accuracy    <       0.00002307 Ry

     iteration # 73     ecut=    30.00 Ry     beta=0.70
     Davidson diagonalization with overlap
     ethr =  3.52E-08,  avg # of iterations =  2.0

     total cpu time spent up to now is       68.7 secs

     total energy              =    -329.45345190 Ry
     Harris-Foulkes estimate   =    -329.45345039 Ry
     estimated scf accuracy    <       0.00002489 Ry

     iteration # 74     ecut=    30.00 Ry     beta=0.70
     Davidson diagonalization with overlap
     ethr =  3.52E-08,  avg # of iterations =  1.0

     total cpu time spent up to now is       68.8 secs

     total energy              =    -329.45345422 Ry
     Harris-Foulkes estimate   =    -329.45345192 Ry
     estimated scf accuracy    <       0.00002694 Ry

     iteration # 75     ecut=    30.00 Ry     beta=0.70
     Davidson diagonalization with overlap
     ethr =  3.52E-08,  avg # of iterations =  1.0

     total cpu time spent up to now is       69.0 secs

     total energy              =    -329.45344870 Ry
     Harris-Foulkes estimate   =    -329.45345424 Ry
     estimated scf accuracy    <       0.00003079 Ry

     iteration # 76     ecut=    30.00 Ry     beta=0.70
     Davidson diagonalization with overlap
     ethr =  3.52E-08,  avg # of iterations =  2.0

     total cpu time spent up to now is       69.2 secs

     total energy              =    -329.45343943 Ry
     Harris-Foulkes estimate   =    -329.45344822 Ry
     estimated scf accuracy    <       0.00002416 Ry

     iteration # 77     ecut=    30.00 Ry     beta=0.70
     Davidson diagonalization with overlap
     ethr =  3.52E-08,  avg # of iterations =  3.0

     total cpu time spent up to now is       69.5 secs

     total energy              =    -329.45339455 Ry
     Harris-Foulkes estimate   =    -329.45342265 Ry
     estimated scf accuracy    <       0.00007793 Ry

     iteration # 78     ecut=    30.00 Ry     beta=0.70
     Davidson diagonalization with overlap
     ethr =  3.52E-08,  avg # of iterations =  3.0

     total cpu time spent up to now is       69.7 secs

     total energy              =    -329.45392395 Ry
     Harris-Foulkes estimate   =    -329.45334362 Ry
     estimated scf accuracy    <       0.00056736 Ry

     iteration # 79     ecut=    30.00 Ry     beta=0.70
     Davidson diagonalization with overlap
     ethr =  3.52E-08,  avg # of iterations =  4.0

     total cpu time spent up to now is       70.0 secs

     total energy              =    -329.45335478 Ry
     Harris-Foulkes estimate   =    -329.45354059 Ry
     estimated scf accuracy    <       0.00058613 Ry

     iteration # 80     ecut=    30.00 Ry     beta=0.70
     Davidson diagonalization with overlap
     ethr =  3.52E-08,  avg # of iterations =  4.0

     total cpu time spent up to now is       70.3 secs

     total energy              =    -329.45347351 Ry
     Harris-Foulkes estimate   =    -329.45344199 Ry
     estimated scf accuracy    <       0.00002326 Ry

     iteration # 81     ecut=    30.00 Ry     beta=0.70
     Davidson diagonalization with overlap
     ethr =  3.52E-08,  avg # of iterations =  3.0

     total cpu time spent up to now is       70.6 secs

     total energy              =    -329.45345465 Ry
     Harris-Foulkes estimate   =    -329.45346544 Ry
     estimated scf accuracy    <       0.00006456 Ry

     iteration # 82     ecut=    30.00 Ry     beta=0.70
     Davidson diagonalization with overlap
     ethr =  3.52E-08,  avg # of iterations =  2.0

     total cpu time spent up to now is       70.8 secs

     total energy              =    -329.45345998 Ry
     Harris-Foulkes estimate   =    -329.45345534 Ry
     estimated scf accuracy    <       0.00003289 Ry

     iteration # 83     ecut=    30.00 Ry     beta=0.70
     Davidson diagonalization with overlap
     ethr =  3.52E-08,  avg # of iterations =  1.0

     total cpu time spent up to now is       70.9 secs

     total energy              =    -329.45345535 Ry
     Harris-Foulkes estimate   =    -329.45345994 Ry
     estimated scf accuracy    <       0.00004223 Ry

     iteration # 84     ecut=    30.00 Ry     beta=0.70
     Davidson diagonalization with overlap
     ethr =  3.52E-08,  avg # of iterations =  1.0

     total cpu time spent up to now is       71.1 secs

     total energy              =    -329.45344943 Ry
     Harris-Foulkes estimate   =    -329.45345534 Ry
     estimated scf accuracy    <       0.00003253 Ry

     iteration # 85     ecut=    30.00 Ry     beta=0.70
     Davidson diagonalization with overlap
     ethr =  3.52E-08,  avg # of iterations =  2.0

     total cpu time spent up to now is       71.3 secs

     total energy              =    -329.45344740 Ry
     Harris-Foulkes estimate   =    -329.45344949 Ry
     estimated scf accuracy    <       0.00002180 Ry

     iteration # 86     ecut=    30.00 Ry     beta=0.70
     Davidson diagonalization with overlap
     ethr =  3.52E-08,  avg # of iterations =  1.0

     total cpu time spent up to now is       71.5 secs

     total energy              =    -329.45344370 Ry
     Harris-Foulkes estimate   =    -329.45344729 Ry
     estimated scf accuracy    <       0.00002139 Ry

     iteration # 87     ecut=    30.00 Ry     beta=0.70
     Davidson diagonalization with overlap
     ethr =  3.52E-08,  avg # of iterations =  2.0

     total cpu time spent up to now is       71.7 secs

     total energy              =    -329.45343650 Ry
     Harris-Foulkes estimate   =    -329.45344343 Ry
     estimated scf accuracy    <       0.00002170 Ry

     iteration # 88     ecut=    30.00 Ry     beta=0.70
     Davidson diagonalization with overlap
     ethr =  3.52E-08,  avg # of iterations =  3.0

     total cpu time spent up to now is       71.9 secs

     total energy              =    -329.45343644 Ry
     Harris-Foulkes estimate   =    -329.45343354 Ry
     estimated scf accuracy    <       0.00003635 Ry

     iteration # 89     ecut=    30.00 Ry     beta=0.70
     Davidson diagonalization with overlap
     ethr =  3.52E-08,  avg # of iterations =  1.0

     total cpu time spent up to now is       72.1 secs

     total energy              =    -329.45343641 Ry
     Harris-Foulkes estimate   =    -329.45343626 Ry
     estimated scf accuracy    <       0.00003095 Ry

     iteration # 90     ecut=    30.00 Ry     beta=0.70
     Davidson diagonalization with overlap
     ethr =  3.52E-08,  avg # of iterations =  1.0

     total cpu time spent up to now is       72.3 secs

     total energy              =    -329.45343026 Ry
     Harris-Foulkes estimate   =    -329.45343643 Ry
     estimated scf accuracy    <       0.00003051 Ry

     iteration # 91     ecut=    30.00 Ry     beta=0.70
     Davidson diagonalization with overlap
     ethr =  3.52E-08,  avg # of iterations =  2.0

     total cpu time spent up to now is       72.5 secs

     total energy              =    -329.45342685 Ry
     Harris-Foulkes estimate   =    -329.45342797 Ry
     estimated scf accuracy    <       0.00005585 Ry

     iteration # 92     ecut=    30.00 Ry     beta=0.70
     Davidson diagonalization with overlap
     ethr =  3.52E-08,  avg # of iterations =  1.0

     total cpu time spent up to now is       72.7 secs

     total energy              =    -329.45343246 Ry
     Harris-Foulkes estimate   =    -329.45342683 Ry
     estimated scf accuracy    <       0.00006058 Ry

     iteration # 93     ecut=    30.00 Ry     beta=0.70
     Davidson diagonalization with overlap
     ethr =  3.52E-08,  avg # of iterations =  1.0

     total cpu time spent up to now is       72.9 secs

     total energy              =    -329.45351029 Ry
     Harris-Foulkes estimate   =    -329.45343169 Ry
     estimated scf accuracy    <       0.00004178 Ry

     iteration # 94     ecut=    30.00 Ry     beta=0.70
     Davidson diagonalization with overlap
     ethr =  3.52E-08,  avg # of iterations =  4.0

     total cpu time spent up to now is       73.2 secs

     total energy              =    -329.45344791 Ry
     Harris-Foulkes estimate   =    -329.45347516 Ry
     estimated scf accuracy    <       0.00010484 Ry

     iteration # 95     ecut=    30.00 Ry     beta=0.70
     Davidson diagonalization with overlap
     ethr =  3.52E-08,  avg # of iterations =  3.0

     total cpu time spent up to now is       73.4 secs

     total energy              =    -329.45346414 Ry
     Harris-Foulkes estimate   =    -329.45345256 Ry
     estimated scf accuracy    <       0.00002516 Ry

     iteration # 96     ecut=    30.00 Ry     beta=0.70
     Davidson diagonalization with overlap
     ethr =  3.52E-08,  avg # of iterations =  4.0

     total cpu time spent up to now is       73.7 secs

     total energy              =    -329.45332444 Ry
     Harris-Foulkes estimate   =    -329.45334789 Ry
     estimated scf accuracy    <       0.00052037 Ry

     iteration # 97     ecut=    30.00 Ry     beta=0.70
     Davidson diagonalization with overlap
     ethr =  3.52E-08,  avg # of iterations =  2.0

     total cpu time spent up to now is       73.9 secs

     total energy              =    -329.45348125 Ry
     Harris-Foulkes estimate   =    -329.45332183 Ry
     estimated scf accuracy    <       0.00071573 Ry

     iteration # 98     ecut=    30.00 Ry     beta=0.70
     Davidson diagonalization with overlap
     ethr =  3.52E-08,  avg # of iterations =  3.0

     total cpu time spent up to now is       74.1 secs

     total energy              =    -329.45341545 Ry
     Harris-Foulkes estimate   =    -329.45341709 Ry
     estimated scf accuracy    <       0.00009821 Ry

     iteration # 99     ecut=    30.00 Ry     beta=0.70
     Davidson diagonalization with overlap
     ethr =  3.52E-08,  avg # of iterations =  1.0

     total cpu time spent up to now is       74.3 secs

     total energy              =    -329.45341369 Ry
     Harris-Foulkes estimate   =    -329.45341543 Ry
     estimated scf accuracy    <       0.00010696 Ry

     iteration #100     ecut=    30.00 Ry     beta=0.70
     Davidson diagonalization with overlap
     ethr =  3.52E-08,  avg # of iterations =  1.0

     total cpu time spent up to now is       74.5 secs

     total energy              =    -329.45342677 Ry
     Harris-Foulkes estimate   =    -329.45341365 Ry
     estimated scf accuracy    <       0.00011660 Ry

     End of self-consistent calculation

     convergence NOT achieved after 100 iterations: stopping

     Writing output data file pwscf.save
 
     init_run     :      0.16s CPU      0.19s WALL (       1 calls)
     electrons    :     66.46s CPU     71.09s WALL (      18 calls)
     update_pot   :      1.14s CPU      1.36s WALL (      17 calls)
     forces       :      0.71s CPU      0.73s WALL (      17 calls)

     Called by init_run:
     wfcinit      :      0.07s CPU      0.09s WALL (       1 calls)
     potinit      :      0.03s CPU      0.04s WALL (       1 calls)

     Called by electrons:
     c_bands      :     50.35s CPU     50.92s WALL (     300 calls)
     sum_band     :      6.95s CPU      7.13s WALL (     300 calls)
     v_of_rho     :      5.71s CPU      5.80s WALL (     317 calls)
     mix_rho      :      3.05s CPU      6.15s WALL (     300 calls)

     Called by c_bands:
     init_us_2    :      0.89s CPU      0.94s WALL (     601 calls)
     cegterg      :     44.98s CPU     45.33s WALL (     300 calls)

     Called by sum_band:

     Called by *egterg:
     h_psi        :     34.33s CPU     34.54s WALL (    1212 calls)
     g_psi        :      0.33s CPU      0.34s WALL (     911 calls)
     cdiaghg      :      2.89s CPU      2.90s WALL (    1193 calls)

     Called by h_psi:
     h_psi:pot    :     33.80s CPU     34.01s WALL (    1212 calls)
     h_psi:calbec :      1.98s CPU      1.98s WALL (    1212 calls)
     vloc_psi     :     29.61s CPU     29.81s WALL (    1212 calls)
     add_vuspsi   :      2.21s CPU      2.21s WALL (    1212 calls)

     General routines
     calbec       :      2.19s CPU      2.20s WALL (    1280 calls)
     fft          :      3.14s CPU      3.21s WALL (    3523 calls)
     fftw         :     31.11s CPU     31.56s WALL (   66130 calls)
     davcio       :      0.48s CPU      2.81s WALL (    4327 calls)
 
     Parallel routines
     fft_scatter  :      8.01s CPU      7.75s WALL (   69653 calls)
 
     PWSCF        :  1m 8.99s CPU     1m14.57s WALL

 
   This run was terminated on:   6:53:20   4Aug2017            

=------------------------------------------------------------------------------=
   JOB DONE.
=------------------------------------------------------------------------------=
