
     Program PWSCF v.6.0 (svn rev. 13079) starts on  4Aug2017 at  4:38:20 

     This program is part of the open-source Quantum ESPRESSO suite
     for quantum simulation of materials; please cite
         "P. Giannozzi et al., J. Phys.:Condens. Matter 21 395502 (2009);
          URL http://www.quantum-espresso.org", 
     in publications or presentations arising from this work. More details at
     http://www.quantum-espresso.org/quote

     Parallel version (MPI), running on    10 processors
     R & G space division:  proc/nbgrp/npool/nimage =      10
     Reading input from input/multi/minchecks-Gold5-730.in

     Current dimensions of program PWSCF are:
     Max number of different atomic species (ntypx) = 10
     Max number of k-points (npk) =  40000
     Max angular momentum in pseudopotentials (lmaxx) =  3
     Message from routine iosys:
     pot_extrapolation='second-order' not available, using 'atomic'
     Message from routine iosys:
     wfc_extrapolation='second-order' not available, using 'atomic'

     Subspace diagonalization in iterative solution of the eigenvalue problem:
     a serial algorithm will be used

 
     Parallelization info
     --------------------
     sticks:   dense  smooth     PW     G-vecs:    dense   smooth      PW
     Min         380     380     94                17748    17748    2208
     Max         381     381     95                17753    17753    2213
     Sum        3809    3809    949               177509   177509   22119
 


     bravais-lattice index     =            1
     lattice parameter (alat)  =      20.0000  a.u.
     unit-cell volume          =    8000.0000 (a.u.)^3
     number of atoms/cell      =            5
     number of atomic types    =            1
     number of electrons       =        55.00
     number of Kohn-Sham states=           34
     kinetic-energy cutoff     =      30.0000  Ry
     charge density cutoff     =     120.0000  Ry
     convergence threshold     =      1.0E-08
     mixing beta               =       0.7000
     number of iterations used =            8  plain     mixing
     Exchange-correlation      = BLYP ( 1  3  1  3 0 0)
     nstep                     =           50


     celldm(1)=  20.000000  celldm(2)=   0.000000  celldm(3)=   0.000000
     celldm(4)=   0.000000  celldm(5)=   0.000000  celldm(6)=   0.000000

     crystal axes: (cart. coord. in units of alat)
               a(1) = (   1.000000   0.000000   0.000000 )  
               a(2) = (   0.000000   1.000000   0.000000 )  
               a(3) = (   0.000000   0.000000   1.000000 )  

     reciprocal axes: (cart. coord. in units 2 pi/alat)
               b(1) = (  1.000000  0.000000  0.000000 )  
               b(2) = (  0.000000  1.000000  0.000000 )  
               b(3) = (  0.000000  0.000000  1.000000 )  


     PseudoPot. # 1 for Au read from file:
     ./Au.blyp-d-hgh.UPF
     MD5 check sum: c10d8bae01f806c36a1643a1c69a8479
     Pseudo is Norm-conserving, Zval = 11.0
     Generated in analytical, separable form
     Using radial grid of 1279 points,  6 beta functions with: 
                l(1) =   0
                l(2) =   0
                l(3) =   1
                l(4) =   1
                l(5) =   2
                l(6) =   2

     atomic species   valence    mass     pseudopotential
        Au            11.00    28.08600     Au( 1.00)

     No symmetry found



   Cartesian axes

     site n.     atom                  positions (alat units)
         1           Au  tau(   1) = (  -0.1030733   0.0806253  -0.0239262  )
         2           Au  tau(   2) = (   0.0297975   0.1834941   0.1716415  )
         3           Au  tau(   3) = (   0.1537750   0.0562205  -0.0177030  )
         4           Au  tau(   4) = (   0.2304133   0.2345425   0.3079941  )
         5           Au  tau(   5) = (   0.3360115   0.0354934   0.1526045  )

     number of k points=     1  Marzari-Vanderbilt smearing, width (Ry)=  0.0250
                       cart. coord. in units 2pi/alat
        k(    1) = (   0.0000000   0.0000000   0.0000000), wk =   2.0000000

     Dense  grid:   177509 G-vectors     FFT dimensions: (  72,  72,  72)

     Estimated max dynamical RAM per process >      15.04Mb

     Estimated total allocated dynamical RAM >     150.39Mb

     Initial potential from superposition of free atoms
     Check: negative starting charge=   -0.006113

     starting charge   54.99940, renormalised to   55.00000

     negative rho (up, down):  6.113E-03 0.000E+00
     Starting wfc are   45 randomized atomic wfcs

     total cpu time spent up to now is        0.3 secs

     per-process dynamical memory:    41.0 Mb

     Self-consistent Calculation

     iteration #  1     ecut=    30.00 Ry     beta=0.70
     Davidson diagonalization with overlap
     ethr =  1.00E-02,  avg # of iterations =  3.0

     Threshold (ethr) on eigenvalues was too large:
     Diagonalizing with lowered threshold

     Davidson diagonalization with overlap
     ethr =  4.34E-04,  avg # of iterations =  7.0

     negative rho (up, down):  8.023E-04 0.000E+00

     total cpu time spent up to now is        0.7 secs

     total energy              =    -329.35882001 Ry
     Harris-Foulkes estimate   =    -329.53390217 Ry
     estimated scf accuracy    <       0.29467689 Ry

     iteration #  2     ecut=    30.00 Ry     beta=0.70
     Davidson diagonalization with overlap
     ethr =  5.36E-04,  avg # of iterations =  4.0

     negative rho (up, down):  3.214E-04 0.000E+00

     total cpu time spent up to now is        1.0 secs

     total energy              =    -329.43270238 Ry
     Harris-Foulkes estimate   =    -329.54126892 Ry
     estimated scf accuracy    <       0.21478661 Ry

     iteration #  3     ecut=    30.00 Ry     beta=0.70
     Davidson diagonalization with overlap
     ethr =  3.91E-04,  avg # of iterations =  2.0

     negative rho (up, down):  1.364E-04 0.000E+00

     total cpu time spent up to now is        1.2 secs

     total energy              =    -329.46962203 Ry
     Harris-Foulkes estimate   =    -329.48199709 Ry
     estimated scf accuracy    <       0.02902103 Ry

     iteration #  4     ecut=    30.00 Ry     beta=0.70
     Davidson diagonalization with overlap
     ethr =  5.28E-05,  avg # of iterations =  5.0

     negative rho (up, down):  3.553E-05 0.000E+00

     total cpu time spent up to now is        1.4 secs

     total energy              =    -329.47346800 Ry
     Harris-Foulkes estimate   =    -329.47813687 Ry
     estimated scf accuracy    <       0.01580718 Ry

     iteration #  5     ecut=    30.00 Ry     beta=0.70
     Davidson diagonalization with overlap
     ethr =  2.87E-05,  avg # of iterations =  2.0

     total cpu time spent up to now is        1.6 secs

     total energy              =    -329.47549783 Ry
     Harris-Foulkes estimate   =    -329.47739293 Ry
     estimated scf accuracy    <       0.00827258 Ry

     iteration #  6     ecut=    30.00 Ry     beta=0.70
     Davidson diagonalization with overlap
     ethr =  1.50E-05,  avg # of iterations =  1.0

     total cpu time spent up to now is        1.8 secs

     total energy              =    -329.47621293 Ry
     Harris-Foulkes estimate   =    -329.47636962 Ry
     estimated scf accuracy    <       0.00033878 Ry

     iteration #  7     ecut=    30.00 Ry     beta=0.70
     Davidson diagonalization with overlap
     ethr =  6.16E-07,  avg # of iterations =  4.0

     total cpu time spent up to now is        2.1 secs

     total energy              =    -329.47622664 Ry
     Harris-Foulkes estimate   =    -329.47631946 Ry
     estimated scf accuracy    <       0.00023703 Ry

     iteration #  8     ecut=    30.00 Ry     beta=0.70
     Davidson diagonalization with overlap
     ethr =  4.31E-07,  avg # of iterations =  2.0

     total cpu time spent up to now is        2.3 secs

     total energy              =    -329.47638265 Ry
     Harris-Foulkes estimate   =    -329.47621276 Ry
     estimated scf accuracy    <       0.00028755 Ry

     iteration #  9     ecut=    30.00 Ry     beta=0.70
     Davidson diagonalization with overlap
     ethr =  4.31E-07,  avg # of iterations =  2.0

     total cpu time spent up to now is        2.5 secs

     total energy              =    -329.47642043 Ry
     Harris-Foulkes estimate   =    -329.47632289 Ry
     estimated scf accuracy    <       0.00011972 Ry

     iteration # 10     ecut=    30.00 Ry     beta=0.70
     Davidson diagonalization with overlap
     ethr =  2.18E-07,  avg # of iterations =  3.0

     total cpu time spent up to now is        2.8 secs

     total energy              =    -329.47648369 Ry
     Harris-Foulkes estimate   =    -329.47640840 Ry
     estimated scf accuracy    <       0.00012132 Ry

     iteration # 11     ecut=    30.00 Ry     beta=0.70
     Davidson diagonalization with overlap
     ethr =  2.18E-07,  avg # of iterations =  2.0

     total cpu time spent up to now is        3.0 secs

     total energy              =    -329.47650256 Ry
     Harris-Foulkes estimate   =    -329.47648336 Ry
     estimated scf accuracy    <       0.00020324 Ry

     iteration # 12     ecut=    30.00 Ry     beta=0.70
     Davidson diagonalization with overlap
     ethr =  2.18E-07,  avg # of iterations =  1.0

     total cpu time spent up to now is        3.2 secs

     total energy              =    -329.47650291 Ry
     Harris-Foulkes estimate   =    -329.47650300 Ry
     estimated scf accuracy    <       0.00023022 Ry

     iteration # 13     ecut=    30.00 Ry     beta=0.70
     Davidson diagonalization with overlap
     ethr =  2.18E-07,  avg # of iterations =  1.0

     total cpu time spent up to now is        3.4 secs

     total energy              =    -329.47649429 Ry
     Harris-Foulkes estimate   =    -329.47650336 Ry
     estimated scf accuracy    <       0.00023516 Ry

     iteration # 14     ecut=    30.00 Ry     beta=0.70
     Davidson diagonalization with overlap
     ethr =  2.18E-07,  avg # of iterations =  1.0

     total cpu time spent up to now is        3.6 secs

     total energy              =    -329.47646615 Ry
     Harris-Foulkes estimate   =    -329.47649441 Ry
     estimated scf accuracy    <       0.00022381 Ry

     iteration # 15     ecut=    30.00 Ry     beta=0.70
     Davidson diagonalization with overlap
     ethr =  2.18E-07,  avg # of iterations =  1.0

     total cpu time spent up to now is        3.8 secs

     total energy              =    -329.47635946 Ry
     Harris-Foulkes estimate   =    -329.47646652 Ry
     estimated scf accuracy    <       0.00018288 Ry

     iteration # 16     ecut=    30.00 Ry     beta=0.70
     Davidson diagonalization with overlap
     ethr =  2.18E-07,  avg # of iterations =  3.0

     total cpu time spent up to now is        4.0 secs

     total energy              =    -329.47632531 Ry
     Harris-Foulkes estimate   =    -329.47635359 Ry
     estimated scf accuracy    <       0.00007694 Ry

     iteration # 17     ecut=    30.00 Ry     beta=0.70
     Davidson diagonalization with overlap
     ethr =  1.40E-07,  avg # of iterations =  2.0

     total cpu time spent up to now is        4.2 secs

     total energy              =    -329.47627903 Ry
     Harris-Foulkes estimate   =    -329.47631995 Ry
     estimated scf accuracy    <       0.00008647 Ry

     iteration # 18     ecut=    30.00 Ry     beta=0.70
     Davidson diagonalization with overlap
     ethr =  1.40E-07,  avg # of iterations =  4.0

     total cpu time spent up to now is        4.5 secs

     total energy              =    -329.47664492 Ry
     Harris-Foulkes estimate   =    -329.47591988 Ry
     estimated scf accuracy    <       0.00119309 Ry

     iteration # 19     ecut=    30.00 Ry     beta=0.70
     Davidson diagonalization with overlap
     ethr =  1.40E-07,  avg # of iterations =  4.0

     total cpu time spent up to now is        4.8 secs

     total energy              =    -329.47633590 Ry
     Harris-Foulkes estimate   =    -329.47629184 Ry
     estimated scf accuracy    <       0.00011639 Ry

     iteration # 20     ecut=    30.00 Ry     beta=0.70
     Davidson diagonalization with overlap
     ethr =  1.40E-07,  avg # of iterations =  2.0

     total cpu time spent up to now is        5.0 secs

     total energy              =    -329.47638934 Ry
     Harris-Foulkes estimate   =    -329.47632890 Ry
     estimated scf accuracy    <       0.00008832 Ry

     iteration # 21     ecut=    30.00 Ry     beta=0.70
     Davidson diagonalization with overlap
     ethr =  1.40E-07,  avg # of iterations =  3.0

     total cpu time spent up to now is        5.2 secs

     total energy              =    -329.47642496 Ry
     Harris-Foulkes estimate   =    -329.47637911 Ry
     estimated scf accuracy    <       0.00009777 Ry

     iteration # 22     ecut=    30.00 Ry     beta=0.70
     Davidson diagonalization with overlap
     ethr =  1.40E-07,  avg # of iterations =  2.0

     total cpu time spent up to now is        5.4 secs

     total energy              =    -329.47644580 Ry
     Harris-Foulkes estimate   =    -329.47642167 Ry
     estimated scf accuracy    <       0.00013311 Ry

     iteration # 23     ecut=    30.00 Ry     beta=0.70
     Davidson diagonalization with overlap
     ethr =  1.40E-07,  avg # of iterations =  1.0

     total cpu time spent up to now is        5.6 secs

     total energy              =    -329.47644943 Ry
     Harris-Foulkes estimate   =    -329.47644561 Ry
     estimated scf accuracy    <       0.00015952 Ry

     iteration # 24     ecut=    30.00 Ry     beta=0.70
     Davidson diagonalization with overlap
     ethr =  1.40E-07,  avg # of iterations =  1.0

     total cpu time spent up to now is        5.8 secs

     total energy              =    -329.47645164 Ry
     Harris-Foulkes estimate   =    -329.47644967 Ry
     estimated scf accuracy    <       0.00016469 Ry

     iteration # 25     ecut=    30.00 Ry     beta=0.70
     Davidson diagonalization with overlap
     ethr =  1.40E-07,  avg # of iterations =  1.0

     total cpu time spent up to now is        6.0 secs

     total energy              =    -329.47645550 Ry
     Harris-Foulkes estimate   =    -329.47645178 Ry
     estimated scf accuracy    <       0.00017070 Ry

     iteration # 26     ecut=    30.00 Ry     beta=0.70
     Davidson diagonalization with overlap
     ethr =  1.40E-07,  avg # of iterations =  1.0

     total cpu time spent up to now is        6.2 secs

     total energy              =    -329.47649283 Ry
     Harris-Foulkes estimate   =    -329.47645560 Ry
     estimated scf accuracy    <       0.00017648 Ry

     iteration # 27     ecut=    30.00 Ry     beta=0.70
     Davidson diagonalization with overlap
     ethr =  1.40E-07,  avg # of iterations =  1.0

     total cpu time spent up to now is        6.3 secs

     total energy              =    -329.47643468 Ry
     Harris-Foulkes estimate   =    -329.47649318 Ry
     estimated scf accuracy    <       0.00023569 Ry

     iteration # 28     ecut=    30.00 Ry     beta=0.70
     Davidson diagonalization with overlap
     ethr =  1.40E-07,  avg # of iterations =  4.0

     total cpu time spent up to now is        6.7 secs

     total energy              =    -329.47930267 Ry
     Harris-Foulkes estimate   =    -329.47593489 Ry
     estimated scf accuracy    <       0.00115253 Ry

     iteration # 29     ecut=    30.00 Ry     beta=0.70
     Davidson diagonalization with overlap
     ethr =  1.40E-07,  avg # of iterations =  4.0

     total cpu time spent up to now is        7.0 secs

     total energy              =    -329.47671518 Ry
     Harris-Foulkes estimate   =    -329.47720744 Ry
     estimated scf accuracy    <       0.00206791 Ry

     iteration # 30     ecut=    30.00 Ry     beta=0.70
     Davidson diagonalization with overlap
     ethr =  1.40E-07,  avg # of iterations =  3.0

     total cpu time spent up to now is        7.2 secs

     total energy              =    -329.47766463 Ry
     Harris-Foulkes estimate   =    -329.47676337 Ry
     estimated scf accuracy    <       0.00086274 Ry

     iteration # 31     ecut=    30.00 Ry     beta=0.70
     Davidson diagonalization with overlap
     ethr =  1.40E-07,  avg # of iterations =  3.0

     total cpu time spent up to now is        7.5 secs

     total energy              =    -329.47712064 Ry
     Harris-Foulkes estimate   =    -329.47785870 Ry
     estimated scf accuracy    <       0.00401406 Ry

     iteration # 32     ecut=    30.00 Ry     beta=0.70
     Davidson diagonalization with overlap
     ethr =  1.40E-07,  avg # of iterations =  3.0

     total cpu time spent up to now is        7.8 secs

     total energy              =    -329.47674659 Ry
     Harris-Foulkes estimate   =    -329.47718363 Ry
     estimated scf accuracy    <       0.00200690 Ry

     iteration # 33     ecut=    30.00 Ry     beta=0.70
     Davidson diagonalization with overlap
     ethr =  1.40E-07,  avg # of iterations =  3.0

     total cpu time spent up to now is        8.0 secs

     total energy              =    -329.47694951 Ry
     Harris-Foulkes estimate   =    -329.47678772 Ry
     estimated scf accuracy    <       0.00089913 Ry

     iteration # 34     ecut=    30.00 Ry     beta=0.70
     Davidson diagonalization with overlap
     ethr =  1.40E-07,  avg # of iterations =  2.0

     total cpu time spent up to now is        8.2 secs

     total energy              =    -329.47694205 Ry
     Harris-Foulkes estimate   =    -329.47695790 Ry
     estimated scf accuracy    <       0.00135136 Ry

     iteration # 35     ecut=    30.00 Ry     beta=0.70
     Davidson diagonalization with overlap
     ethr =  1.40E-07,  avg # of iterations =  1.0

     total cpu time spent up to now is        8.4 secs

     total energy              =    -329.47716049 Ry
     Harris-Foulkes estimate   =    -329.47694226 Ry
     estimated scf accuracy    <       0.00131607 Ry

     iteration # 36     ecut=    30.00 Ry     beta=0.70
     Davidson diagonalization with overlap
     ethr =  1.40E-07,  avg # of iterations =  2.0

     total cpu time spent up to now is        8.6 secs

     total energy              =    -329.47726411 Ry
     Harris-Foulkes estimate   =    -329.47717134 Ry
     estimated scf accuracy    <       0.00194732 Ry

     iteration # 37     ecut=    30.00 Ry     beta=0.70
     Davidson diagonalization with overlap
     ethr =  1.40E-07,  avg # of iterations =  1.0

     total cpu time spent up to now is        8.8 secs

     total energy              =    -329.47609419 Ry
     Harris-Foulkes estimate   =    -329.47726592 Ry
     estimated scf accuracy    <       0.00218432 Ry

     iteration # 38     ecut=    30.00 Ry     beta=0.70
     Davidson diagonalization with overlap
     ethr =  1.40E-07,  avg # of iterations =  4.0

     total cpu time spent up to now is        9.1 secs

     total energy              =    -329.47636963 Ry
     Harris-Foulkes estimate   =    -329.47640041 Ry
     estimated scf accuracy    <       0.00009761 Ry

     iteration # 39     ecut=    30.00 Ry     beta=0.70
     Davidson diagonalization with overlap
     ethr =  1.40E-07,  avg # of iterations =  2.0

     total cpu time spent up to now is        9.3 secs

     total energy              =    -329.47633300 Ry
     Harris-Foulkes estimate   =    -329.47636750 Ry
     estimated scf accuracy    <       0.00008115 Ry

     iteration # 40     ecut=    30.00 Ry     beta=0.70
     Davidson diagonalization with overlap
     ethr =  1.40E-07,  avg # of iterations =  3.0

     total cpu time spent up to now is        9.5 secs

     total energy              =    -329.47629485 Ry
     Harris-Foulkes estimate   =    -329.47632679 Ry
     estimated scf accuracy    <       0.00007933 Ry

     iteration # 41     ecut=    30.00 Ry     beta=0.70
     Davidson diagonalization with overlap
     ethr =  1.40E-07,  avg # of iterations =  2.0

     total cpu time spent up to now is        9.7 secs

     total energy              =    -329.47625305 Ry
     Harris-Foulkes estimate   =    -329.47628546 Ry
     estimated scf accuracy    <       0.00011565 Ry

     iteration # 42     ecut=    30.00 Ry     beta=0.70
     Davidson diagonalization with overlap
     ethr =  1.40E-07,  avg # of iterations =  2.0

     total cpu time spent up to now is        9.9 secs

     total energy              =    -329.47629650 Ry
     Harris-Foulkes estimate   =    -329.47624531 Ry
     estimated scf accuracy    <       0.00018052 Ry

     iteration # 43     ecut=    30.00 Ry     beta=0.70
     Davidson diagonalization with overlap
     ethr =  1.40E-07,  avg # of iterations =  2.0

     total cpu time spent up to now is       10.1 secs

     total energy              =    -329.47633843 Ry
     Harris-Foulkes estimate   =    -329.47628679 Ry
     estimated scf accuracy    <       0.00010483 Ry

     iteration # 44     ecut=    30.00 Ry     beta=0.70
     Davidson diagonalization with overlap
     ethr =  1.40E-07,  avg # of iterations =  3.0

     total cpu time spent up to now is       10.3 secs

     total energy              =    -329.47627327 Ry
     Harris-Foulkes estimate   =    -329.47632888 Ry
     estimated scf accuracy    <       0.00007772 Ry

     iteration # 45     ecut=    30.00 Ry     beta=0.70
     Davidson diagonalization with overlap
     ethr =  1.40E-07,  avg # of iterations =  3.0

     total cpu time spent up to now is       10.5 secs

     total energy              =    -329.47623223 Ry
     Harris-Foulkes estimate   =    -329.47618208 Ry
     estimated scf accuracy    <       0.00032813 Ry

     iteration # 46     ecut=    30.00 Ry     beta=0.70
     Davidson diagonalization with overlap
     ethr =  1.40E-07,  avg # of iterations =  1.0

     total cpu time spent up to now is       10.7 secs

     total energy              =    -329.47687176 Ry
     Harris-Foulkes estimate   =    -329.47622544 Ry
     estimated scf accuracy    <       0.00020833 Ry

     iteration # 47     ecut=    30.00 Ry     beta=0.70
     Davidson diagonalization with overlap
     ethr =  1.40E-07,  avg # of iterations =  4.0

     total cpu time spent up to now is       11.0 secs

     total energy              =    -329.47687662 Ry
     Harris-Foulkes estimate   =    -329.47652993 Ry
     estimated scf accuracy    <       0.00029599 Ry

     iteration # 48     ecut=    30.00 Ry     beta=0.70
     Davidson diagonalization with overlap
     ethr =  1.40E-07,  avg # of iterations =  3.0

     total cpu time spent up to now is       11.3 secs

     total energy              =    -329.47627524 Ry
     Harris-Foulkes estimate   =    -329.47692376 Ry
     estimated scf accuracy    <       0.00124385 Ry

     iteration # 49     ecut=    30.00 Ry     beta=0.70
     Davidson diagonalization with overlap
     ethr =  1.40E-07,  avg # of iterations =  4.0

     total cpu time spent up to now is       11.6 secs

     total energy              =    -329.47633719 Ry
     Harris-Foulkes estimate   =    -329.47640737 Ry
     estimated scf accuracy    <       0.00010800 Ry

     iteration # 50     ecut=    30.00 Ry     beta=0.70
     Davidson diagonalization with overlap
     ethr =  1.40E-07,  avg # of iterations =  3.0

     total cpu time spent up to now is       11.8 secs

     total energy              =    -329.47628375 Ry
     Harris-Foulkes estimate   =    -329.47630845 Ry
     estimated scf accuracy    <       0.00009191 Ry

     iteration # 51     ecut=    30.00 Ry     beta=0.70
     Davidson diagonalization with overlap
     ethr =  1.40E-07,  avg # of iterations =  1.0

     total cpu time spent up to now is       12.0 secs

     total energy              =    -329.47620294 Ry
     Harris-Foulkes estimate   =    -329.47627860 Ry
     estimated scf accuracy    <       0.00013053 Ry

     iteration # 52     ecut=    30.00 Ry     beta=0.70
     Davidson diagonalization with overlap
     ethr =  1.40E-07,  avg # of iterations =  3.0

     total cpu time spent up to now is       12.2 secs

     total energy              =    -329.47612660 Ry
     Harris-Foulkes estimate   =    -329.47613723 Ry
     estimated scf accuracy    <       0.00044894 Ry

     iteration # 53     ecut=    30.00 Ry     beta=0.70
     Davidson diagonalization with overlap
     ethr =  1.40E-07,  avg # of iterations =  1.0

     total cpu time spent up to now is       12.4 secs

     total energy              =    -329.47607107 Ry
     Harris-Foulkes estimate   =    -329.47612645 Ry
     estimated scf accuracy    <       0.00048674 Ry

     iteration # 54     ecut=    30.00 Ry     beta=0.70
     Davidson diagonalization with overlap
     ethr =  1.40E-07,  avg # of iterations =  2.0

     total cpu time spent up to now is       12.6 secs

     total energy              =    -329.47603945 Ry
     Harris-Foulkes estimate   =    -329.47606348 Ry
     estimated scf accuracy    <       0.00069516 Ry

     iteration # 55     ecut=    30.00 Ry     beta=0.70
     Davidson diagonalization with overlap
     ethr =  1.40E-07,  avg # of iterations =  1.0

     total cpu time spent up to now is       12.8 secs

     total energy              =    -329.47603257 Ry
     Harris-Foulkes estimate   =    -329.47603864 Ry
     estimated scf accuracy    <       0.00078439 Ry

     iteration # 56     ecut=    30.00 Ry     beta=0.70
     Davidson diagonalization with overlap
     ethr =  1.40E-07,  avg # of iterations =  1.0

     total cpu time spent up to now is       13.0 secs

     total energy              =    -329.47603439 Ry
     Harris-Foulkes estimate   =    -329.47603266 Ry
     estimated scf accuracy    <       0.00080454 Ry

     iteration # 57     ecut=    30.00 Ry     beta=0.70
     Davidson diagonalization with overlap
     ethr =  1.40E-07,  avg # of iterations =  1.0

     total cpu time spent up to now is       13.2 secs

     total energy              =    -329.47696798 Ry
     Harris-Foulkes estimate   =    -329.47603445 Ry
     estimated scf accuracy    <       0.00079301 Ry

     iteration # 58     ecut=    30.00 Ry     beta=0.70
     Davidson diagonalization with overlap
     ethr =  1.40E-07,  avg # of iterations =  4.0

     total cpu time spent up to now is       13.4 secs

     total energy              =    -329.47647544 Ry
     Harris-Foulkes estimate   =    -329.47639259 Ry
     estimated scf accuracy    <       0.00009546 Ry

     iteration # 59     ecut=    30.00 Ry     beta=0.70
     Davidson diagonalization with overlap
     ethr =  1.40E-07,  avg # of iterations =  3.0

     total cpu time spent up to now is       13.7 secs

     total energy              =    -329.47658000 Ry
     Harris-Foulkes estimate   =    -329.47647090 Ry
     estimated scf accuracy    <       0.00018891 Ry

     iteration # 60     ecut=    30.00 Ry     beta=0.70
     Davidson diagonalization with overlap
     ethr =  1.40E-07,  avg # of iterations =  3.0

     total cpu time spent up to now is       13.9 secs

     total energy              =    -329.47780679 Ry
     Harris-Foulkes estimate   =    -329.47658460 Ry
     estimated scf accuracy    <       0.00040673 Ry

     iteration # 61     ecut=    30.00 Ry     beta=0.70
     Davidson diagonalization with overlap
     ethr =  1.40E-07,  avg # of iterations =  4.0

     total cpu time spent up to now is       14.2 secs

     total energy              =    -329.47897312 Ry
     Harris-Foulkes estimate   =    -329.47821113 Ry
     estimated scf accuracy    <       0.00500373 Ry

     iteration # 62     ecut=    30.00 Ry     beta=0.70
     Davidson diagonalization with overlap
     ethr =  1.40E-07,  avg # of iterations =  3.0

     total cpu time spent up to now is       14.5 secs

     total energy              =    -329.47632762 Ry
     Harris-Foulkes estimate   =    -329.47901658 Ry
     estimated scf accuracy    <       0.00747381 Ry

     iteration # 63     ecut=    30.00 Ry     beta=0.70
     Davidson diagonalization with overlap
     ethr =  1.40E-07,  avg # of iterations =  4.0

     total cpu time spent up to now is       14.8 secs

     total energy              =    -329.47712931 Ry
     Harris-Foulkes estimate   =    -329.47686113 Ry
     estimated scf accuracy    <       0.00108379 Ry

     iteration # 64     ecut=    30.00 Ry     beta=0.70
     Davidson diagonalization with overlap
     ethr =  1.40E-07,  avg # of iterations =  2.0

     total cpu time spent up to now is       15.0 secs

     total energy              =    -329.47620639 Ry
     Harris-Foulkes estimate   =    -329.47714733 Ry
     estimated scf accuracy    <       0.00185709 Ry

     iteration # 65     ecut=    30.00 Ry     beta=0.70
     Davidson diagonalization with overlap
     ethr =  1.40E-07,  avg # of iterations =  4.0

     total cpu time spent up to now is       15.3 secs

     total energy              =    -329.47634241 Ry
     Harris-Foulkes estimate   =    -329.47642556 Ry
     estimated scf accuracy    <       0.00012606 Ry

     iteration # 66     ecut=    30.00 Ry     beta=0.70
     Davidson diagonalization with overlap
     ethr =  1.40E-07,  avg # of iterations =  3.0

     total cpu time spent up to now is       15.5 secs

     total energy              =    -329.47629724 Ry
     Harris-Foulkes estimate   =    -329.47631511 Ry
     estimated scf accuracy    <       0.00008576 Ry

     iteration # 67     ecut=    30.00 Ry     beta=0.70
     Davidson diagonalization with overlap
     ethr =  1.40E-07,  avg # of iterations =  1.0

     total cpu time spent up to now is       15.7 secs

     total energy              =    -329.47625027 Ry
     Harris-Foulkes estimate   =    -329.47629480 Ry
     estimated scf accuracy    <       0.00010754 Ry

     iteration # 68     ecut=    30.00 Ry     beta=0.70
     Davidson diagonalization with overlap
     ethr =  1.40E-07,  avg # of iterations =  2.0

     total cpu time spent up to now is       15.9 secs

     total energy              =    -329.47622024 Ry
     Harris-Foulkes estimate   =    -329.47623311 Ry
     estimated scf accuracy    <       0.00020145 Ry

     iteration # 69     ecut=    30.00 Ry     beta=0.70
     Davidson diagonalization with overlap
     ethr =  1.40E-07,  avg # of iterations =  1.0

     total cpu time spent up to now is       16.1 secs

     total energy              =    -329.47619484 Ry
     Harris-Foulkes estimate   =    -329.47621957 Ry
     estimated scf accuracy    <       0.00023498 Ry

     iteration # 70     ecut=    30.00 Ry     beta=0.70
     Davidson diagonalization with overlap
     ethr =  1.40E-07,  avg # of iterations =  1.0

     total cpu time spent up to now is       16.3 secs

     total energy              =    -329.47637651 Ry
     Harris-Foulkes estimate   =    -329.47619254 Ry
     estimated scf accuracy    <       0.00029970 Ry

     iteration # 71     ecut=    30.00 Ry     beta=0.70
     Davidson diagonalization with overlap
     ethr =  1.40E-07,  avg # of iterations =  3.0

     total cpu time spent up to now is       16.5 secs

     total energy              =    -329.47625841 Ry
     Harris-Foulkes estimate   =    -329.47630733 Ry
     estimated scf accuracy    <       0.00009076 Ry

     iteration # 72     ecut=    30.00 Ry     beta=0.70
     Davidson diagonalization with overlap
     ethr =  1.40E-07,  avg # of iterations =  3.0

     total cpu time spent up to now is       16.7 secs

     total energy              =    -329.47619584 Ry
     Harris-Foulkes estimate   =    -329.47622801 Ry
     estimated scf accuracy    <       0.00021237 Ry

     iteration # 73     ecut=    30.00 Ry     beta=0.70
     Davidson diagonalization with overlap
     ethr =  1.40E-07,  avg # of iterations =  1.0

     total cpu time spent up to now is       16.9 secs

     total energy              =    -329.47713810 Ry
     Harris-Foulkes estimate   =    -329.47619087 Ry
     estimated scf accuracy    <       0.00030693 Ry

     iteration # 74     ecut=    30.00 Ry     beta=0.70
     Davidson diagonalization with overlap
     ethr =  1.40E-07,  avg # of iterations =  4.0

     total cpu time spent up to now is       17.2 secs

     total energy              =    -329.47686941 Ry
     Harris-Foulkes estimate   =    -329.47659506 Ry
     estimated scf accuracy    <       0.00042809 Ry

     iteration # 75     ecut=    30.00 Ry     beta=0.70
     Davidson diagonalization with overlap
     ethr =  1.40E-07,  avg # of iterations =  3.0

     total cpu time spent up to now is       17.5 secs

     total energy              =    -329.47684240 Ry
     Harris-Foulkes estimate   =    -329.47689892 Ry
     estimated scf accuracy    <       0.00117562 Ry

     iteration # 76     ecut=    30.00 Ry     beta=0.70
     Davidson diagonalization with overlap
     ethr =  1.40E-07,  avg # of iterations =  1.0

     total cpu time spent up to now is       17.7 secs

     total energy              =    -329.47647124 Ry
     Harris-Foulkes estimate   =    -329.47684323 Ry
     estimated scf accuracy    <       0.00104256 Ry

     iteration # 77     ecut=    30.00 Ry     beta=0.70
     Davidson diagonalization with overlap
     ethr =  1.40E-07,  avg # of iterations =  3.0

     total cpu time spent up to now is       17.9 secs

     total energy              =    -329.47636623 Ry
     Harris-Foulkes estimate   =    -329.47651799 Ry
     estimated scf accuracy    <       0.00027812 Ry

     iteration # 78     ecut=    30.00 Ry     beta=0.70
     Davidson diagonalization with overlap
     ethr =  1.40E-07,  avg # of iterations =  4.0

     total cpu time spent up to now is       18.2 secs

     total energy              =    -329.47614836 Ry
     Harris-Foulkes estimate   =    -329.47608001 Ry
     estimated scf accuracy    <       0.00063130 Ry

     iteration # 79     ecut=    30.00 Ry     beta=0.70
     Davidson diagonalization with overlap
     ethr =  1.40E-07,  avg # of iterations =  1.0

     total cpu time spent up to now is       18.4 secs

     total energy              =    -329.47609280 Ry
     Harris-Foulkes estimate   =    -329.47614023 Ry
     estimated scf accuracy    <       0.00042659 Ry

     iteration # 80     ecut=    30.00 Ry     beta=0.70
     Davidson diagonalization with overlap
     ethr =  1.40E-07,  avg # of iterations =  1.0

     total cpu time spent up to now is       18.6 secs

     total energy              =    -329.47584425 Ry
     Harris-Foulkes estimate   =    -329.47608600 Ry
     estimated scf accuracy    <       0.00062571 Ry

     iteration # 81     ecut=    30.00 Ry     beta=0.70
     Davidson diagonalization with overlap
     ethr =  1.40E-07,  avg # of iterations =  3.0

     total cpu time spent up to now is       18.9 secs

     total energy              =    -329.47545454 Ry
     Harris-Foulkes estimate   =    -329.47569538 Ry
     estimated scf accuracy    <       0.00187344 Ry

     iteration # 82     ecut=    30.00 Ry     beta=0.70
     Davidson diagonalization with overlap
     ethr =  1.40E-07,  avg # of iterations =  3.0

     total cpu time spent up to now is       19.1 secs

     total energy              =    -329.47562786 Ry
     Harris-Foulkes estimate   =    -329.47543482 Ry
     estimated scf accuracy    <       0.00224493 Ry

     iteration # 83     ecut=    30.00 Ry     beta=0.70
     Davidson diagonalization with overlap
     ethr =  1.40E-07,  avg # of iterations =  2.0

     total cpu time spent up to now is       19.3 secs

     total energy              =    -329.47549842 Ry
     Harris-Foulkes estimate   =    -329.47562381 Ry
     estimated scf accuracy    <       0.00202272 Ry

     iteration # 84     ecut=    30.00 Ry     beta=0.70
     Davidson diagonalization with overlap
     ethr =  1.40E-07,  avg # of iterations =  2.0

     total cpu time spent up to now is       19.5 secs

     total energy              =    -329.47629093 Ry
     Harris-Foulkes estimate   =    -329.47549393 Ry
     estimated scf accuracy    <       0.00224150 Ry

     iteration # 85     ecut=    30.00 Ry     beta=0.70
     Davidson diagonalization with overlap
     ethr =  1.40E-07,  avg # of iterations =  4.0

     total cpu time spent up to now is       19.7 secs

     total energy              =    -329.47709513 Ry
     Harris-Foulkes estimate   =    -329.47608947 Ry
     estimated scf accuracy    <       0.00061539 Ry

     iteration # 86     ecut=    30.00 Ry     beta=0.70
     Davidson diagonalization with overlap
     ethr =  1.40E-07,  avg # of iterations =  4.0

     total cpu time spent up to now is       20.0 secs

     total energy              =    -329.47641898 Ry
     Harris-Foulkes estimate   =    -329.47645842 Ry
     estimated scf accuracy    <       0.00018441 Ry

     iteration # 87     ecut=    30.00 Ry     beta=0.70
     Davidson diagonalization with overlap
     ethr =  1.40E-07,  avg # of iterations =  1.0

     total cpu time spent up to now is       20.2 secs

     total energy              =    -329.47645877 Ry
     Harris-Foulkes estimate   =    -329.47641840 Ry
     estimated scf accuracy    <       0.00013925 Ry

     iteration # 88     ecut=    30.00 Ry     beta=0.70
     Davidson diagonalization with overlap
     ethr =  1.40E-07,  avg # of iterations =  1.0

     total cpu time spent up to now is       20.4 secs

     total energy              =    -329.47657171 Ry
     Harris-Foulkes estimate   =    -329.47645742 Ry
     estimated scf accuracy    <       0.00017345 Ry

     iteration # 89     ecut=    30.00 Ry     beta=0.70
     Davidson diagonalization with overlap
     ethr =  1.40E-07,  avg # of iterations =  3.0

     total cpu time spent up to now is       20.6 secs

     total energy              =    -329.47771267 Ry
     Harris-Foulkes estimate   =    -329.47657861 Ry
     estimated scf accuracy    <       0.00041482 Ry

     iteration # 90     ecut=    30.00 Ry     beta=0.70
     Davidson diagonalization with overlap
     ethr =  1.40E-07,  avg # of iterations =  4.0

     total cpu time spent up to now is       20.9 secs

     total energy              =    -329.47656349 Ry
     Harris-Foulkes estimate   =    -329.47807906 Ry
     estimated scf accuracy    <       0.00468246 Ry

     iteration # 91     ecut=    30.00 Ry     beta=0.70
     Davidson diagonalization with overlap
     ethr =  1.40E-07,  avg # of iterations =  4.0

     total cpu time spent up to now is       21.2 secs

     total energy              =    -329.47684544 Ry
     Harris-Foulkes estimate   =    -329.47681884 Ry
     estimated scf accuracy    <       0.00099628 Ry

     iteration # 92     ecut=    30.00 Ry     beta=0.70
     Davidson diagonalization with overlap
     ethr =  1.40E-07,  avg # of iterations =  1.0

     total cpu time spent up to now is       21.4 secs

     total energy              =    -329.47645334 Ry
     Harris-Foulkes estimate   =    -329.47684569 Ry
     estimated scf accuracy    <       0.00106223 Ry

     iteration # 93     ecut=    30.00 Ry     beta=0.70
     Davidson diagonalization with overlap
     ethr =  1.40E-07,  avg # of iterations =  3.0

     total cpu time spent up to now is       21.7 secs

     total energy              =    -329.47634465 Ry
     Harris-Foulkes estimate   =    -329.47650374 Ry
     estimated scf accuracy    <       0.00026254 Ry

     iteration # 94     ecut=    30.00 Ry     beta=0.70
     Davidson diagonalization with overlap
     ethr =  1.40E-07,  avg # of iterations =  4.0

     total cpu time spent up to now is       21.9 secs

     total energy              =    -329.47628755 Ry
     Harris-Foulkes estimate   =    -329.47633562 Ry
     estimated scf accuracy    <       0.00008448 Ry

     iteration # 95     ecut=    30.00 Ry     beta=0.70
     Davidson diagonalization with overlap
     ethr =  1.40E-07,  avg # of iterations =  3.0

     total cpu time spent up to now is       22.2 secs

     total energy              =    -329.47617444 Ry
     Harris-Foulkes estimate   =    -329.47625654 Ry
     estimated scf accuracy    <       0.00016116 Ry

     iteration # 96     ecut=    30.00 Ry     beta=0.70
     Davidson diagonalization with overlap
     ethr =  1.40E-07,  avg # of iterations =  3.0

     total cpu time spent up to now is       22.4 secs

     total energy              =    -329.47587550 Ry
     Harris-Foulkes estimate   =    -329.47610929 Ry
     estimated scf accuracy    <       0.00054061 Ry

     iteration # 97     ecut=    30.00 Ry     beta=0.70
     Davidson diagonalization with overlap
     ethr =  1.40E-07,  avg # of iterations =  3.0

     total cpu time spent up to now is       22.6 secs

     total energy              =    -329.47555406 Ry
     Harris-Foulkes estimate   =    -329.47570010 Ry
     estimated scf accuracy    <       0.00185737 Ry

     iteration # 98     ecut=    30.00 Ry     beta=0.70
     Davidson diagonalization with overlap
     ethr =  1.40E-07,  avg # of iterations =  2.0

     total cpu time spent up to now is       22.8 secs

     total energy              =    -329.47578306 Ry
     Harris-Foulkes estimate   =    -329.47554536 Ry
     estimated scf accuracy    <       0.00216572 Ry

     iteration # 99     ecut=    30.00 Ry     beta=0.70
     Davidson diagonalization with overlap
     ethr =  1.40E-07,  avg # of iterations =  2.0

     total cpu time spent up to now is       23.0 secs

     total energy              =    -329.47580181 Ry
     Harris-Foulkes estimate   =    -329.47576682 Ry
     estimated scf accuracy    <       0.00165567 Ry

     iteration #100     ecut=    30.00 Ry     beta=0.70
     Davidson diagonalization with overlap
     ethr =  1.40E-07,  avg # of iterations =  1.0

     total cpu time spent up to now is       23.2 secs

     total energy              =    -329.47595167 Ry
     Harris-Foulkes estimate   =    -329.47580139 Ry
     estimated scf accuracy    <       0.00154874 Ry

     End of self-consistent calculation

     convergence NOT achieved after 100 iterations: stopping

     Writing output data file pwscf.save
 
     init_run     :      0.15s CPU      0.18s WALL (       1 calls)
     electrons    :     21.18s CPU     22.94s WALL (       1 calls)

     Called by init_run:
     wfcinit      :      0.07s CPU      0.08s WALL (       1 calls)
     potinit      :      0.03s CPU      0.03s WALL (       1 calls)

     Called by electrons:
     c_bands      :     15.67s CPU     15.99s WALL (     101 calls)
     sum_band     :      2.33s CPU      2.40s WALL (     101 calls)
     v_of_rho     :      1.85s CPU      1.87s WALL (     101 calls)
     mix_rho      :      1.24s CPU      2.49s WALL (     101 calls)

     Called by c_bands:
     init_us_2    :      0.31s CPU      0.32s WALL (     203 calls)
     cegterg      :     13.89s CPU     14.14s WALL (     101 calls)

     Called by sum_band:

     Called by *egterg:
     h_psi        :     10.79s CPU     10.88s WALL (     352 calls)
     g_psi        :      0.10s CPU      0.10s WALL (     250 calls)
     cdiaghg      :      0.81s CPU      0.82s WALL (     350 calls)

     Called by h_psi:
     h_psi:pot    :     10.62s CPU     10.71s WALL (     352 calls)
     h_psi:calbec :      0.61s CPU      0.61s WALL (     352 calls)
     vloc_psi     :      9.32s CPU      9.41s WALL (     352 calls)
     add_vuspsi   :      0.69s CPU      0.69s WALL (     352 calls)

     General routines
     calbec       :      0.61s CPU      0.61s WALL (     352 calls)
     fft          :      0.98s CPU      0.99s WALL (    1113 calls)
     fftw         :      9.92s CPU     10.06s WALL (   21144 calls)
     davcio       :      0.19s CPU      1.08s WALL (    1928 calls)
 
     Parallel routines
     fft_scatter  :      2.53s CPU      2.41s WALL (   22257 calls)
 
     PWSCF        :    21.43s CPU        23.31s WALL

 
   This run was terminated on:   4:38:43   4Aug2017            

=------------------------------------------------------------------------------=
   JOB DONE.
=------------------------------------------------------------------------------=
