
     Program PWSCF v.6.0 (svn rev. 13079) starts on  3Aug2017 at 11: 4:45 

     This program is part of the open-source Quantum ESPRESSO suite
     for quantum simulation of materials; please cite
         "P. Giannozzi et al., J. Phys.:Condens. Matter 21 395502 (2009);
          URL http://www.quantum-espresso.org", 
     in publications or presentations arising from this work. More details at
     http://www.quantum-espresso.org/quote

     Parallel version (MPI), running on    10 processors
     R & G space division:  proc/nbgrp/npool/nimage =      10
     Reading input from input/multi/minchecks-Gold5-33.in

     Current dimensions of program PWSCF are:
     Max number of different atomic species (ntypx) = 10
     Max number of k-points (npk) =  40000
     Max angular momentum in pseudopotentials (lmaxx) =  3
     Message from routine iosys:
     pot_extrapolation='second-order' not available, using 'atomic'
     Message from routine iosys:
     wfc_extrapolation='second-order' not available, using 'atomic'

     Subspace diagonalization in iterative solution of the eigenvalue problem:
     a serial algorithm will be used

 
     Parallelization info
     --------------------
     sticks:   dense  smooth     PW     G-vecs:    dense   smooth      PW
     Min         380     380     94                17748    17748    2208
     Max         381     381     95                17753    17753    2213
     Sum        3809    3809    949               177509   177509   22119
 


     bravais-lattice index     =            1
     lattice parameter (alat)  =      20.0000  a.u.
     unit-cell volume          =    8000.0000 (a.u.)^3
     number of atoms/cell      =            5
     number of atomic types    =            1
     number of electrons       =        55.00
     number of Kohn-Sham states=           34
     kinetic-energy cutoff     =      30.0000  Ry
     charge density cutoff     =     120.0000  Ry
     convergence threshold     =      1.0E-08
     mixing beta               =       0.7000
     number of iterations used =            8  plain     mixing
     Exchange-correlation      = BLYP ( 1  3  1  3 0 0)
     nstep                     =           50


     celldm(1)=  20.000000  celldm(2)=   0.000000  celldm(3)=   0.000000
     celldm(4)=   0.000000  celldm(5)=   0.000000  celldm(6)=   0.000000

     crystal axes: (cart. coord. in units of alat)
               a(1) = (   1.000000   0.000000   0.000000 )  
               a(2) = (   0.000000   1.000000   0.000000 )  
               a(3) = (   0.000000   0.000000   1.000000 )  

     reciprocal axes: (cart. coord. in units 2 pi/alat)
               b(1) = (  1.000000  0.000000  0.000000 )  
               b(2) = (  0.000000  1.000000  0.000000 )  
               b(3) = (  0.000000  0.000000  1.000000 )  


     PseudoPot. # 1 for Au read from file:
     ./Au.blyp-d-hgh.UPF
     MD5 check sum: c10d8bae01f806c36a1643a1c69a8479
     Pseudo is Norm-conserving, Zval = 11.0
     Generated in analytical, separable form
     Using radial grid of 1279 points,  6 beta functions with: 
                l(1) =   0
                l(2) =   0
                l(3) =   1
                l(4) =   1
                l(5) =   2
                l(6) =   2

     atomic species   valence    mass     pseudopotential
        Au            11.00    28.08600     Au( 1.00)

     No symmetry found



   Cartesian axes

     site n.     atom                  positions (alat units)
         1           Au  tau(   1) = (  -0.0848829   0.0689620  -0.0324439  )
         2           Au  tau(   2) = (  -0.0469383   0.1852808   0.1895208  )
         3           Au  tau(   3) = (   0.1566691   0.0533912   0.0362812  )
         4           Au  tau(   4) = (   0.1974420   0.2104693   0.2613768  )
         5           Au  tau(   5) = (   0.3811720   0.0740014   0.1523719  )

     number of k points=     1  Marzari-Vanderbilt smearing, width (Ry)=  0.0250
                       cart. coord. in units 2pi/alat
        k(    1) = (   0.0000000   0.0000000   0.0000000), wk =   2.0000000

     Dense  grid:   177509 G-vectors     FFT dimensions: (  72,  72,  72)

     Estimated max dynamical RAM per process >      15.04Mb

     Estimated total allocated dynamical RAM >     150.39Mb

     Initial potential from superposition of free atoms
     Check: negative starting charge=   -0.006392

     starting charge   54.99940, renormalised to   55.00000

     negative rho (up, down):  6.392E-03 0.000E+00
     Starting wfc are   45 randomized atomic wfcs

     total cpu time spent up to now is        0.3 secs

     per-process dynamical memory:    41.0 Mb

     Self-consistent Calculation

     iteration #  1     ecut=    30.00 Ry     beta=0.70
     Davidson diagonalization with overlap
     ethr =  1.00E-02,  avg # of iterations =  3.0

     Threshold (ethr) on eigenvalues was too large:
     Diagonalizing with lowered threshold

     Davidson diagonalization with overlap
     ethr =  4.04E-04,  avg # of iterations =  5.0

     negative rho (up, down):  8.565E-04 0.000E+00

     total cpu time spent up to now is        0.7 secs

     total energy              =    -329.37690325 Ry
     Harris-Foulkes estimate   =    -329.54536896 Ry
     estimated scf accuracy    <       0.27957916 Ry

     iteration #  2     ecut=    30.00 Ry     beta=0.70
     Davidson diagonalization with overlap
     ethr =  5.08E-04,  avg # of iterations =  3.0

     negative rho (up, down):  3.845E-04 0.000E+00

     total cpu time spent up to now is        1.0 secs

     total energy              =    -329.41133224 Ry
     Harris-Foulkes estimate   =    -329.56122348 Ry
     estimated scf accuracy    <       0.30757450 Ry

     iteration #  3     ecut=    30.00 Ry     beta=0.70
     Davidson diagonalization with overlap
     ethr =  5.08E-04,  avg # of iterations =  2.0

     negative rho (up, down):  1.478E-04 0.000E+00

     total cpu time spent up to now is        1.2 secs

     total energy              =    -329.47381853 Ry
     Harris-Foulkes estimate   =    -329.50252982 Ry
     estimated scf accuracy    <       0.07635594 Ry

     iteration #  4     ecut=    30.00 Ry     beta=0.70
     Davidson diagonalization with overlap
     ethr =  1.39E-04,  avg # of iterations =  3.0

     negative rho (up, down):  6.500E-06 0.000E+00

     total cpu time spent up to now is        1.4 secs

     total energy              =    -329.48705335 Ry
     Harris-Foulkes estimate   =    -329.48830537 Ry
     estimated scf accuracy    <       0.00306529 Ry

     iteration #  5     ecut=    30.00 Ry     beta=0.70
     Davidson diagonalization with overlap
     ethr =  5.57E-06,  avg # of iterations =  7.0

     total cpu time spent up to now is        1.8 secs

     total energy              =    -329.48767377 Ry
     Harris-Foulkes estimate   =    -329.48884418 Ry
     estimated scf accuracy    <       0.00330245 Ry

     iteration #  6     ecut=    30.00 Ry     beta=0.70
     Davidson diagonalization with overlap
     ethr =  5.57E-06,  avg # of iterations =  2.0

     total cpu time spent up to now is        2.0 secs

     total energy              =    -329.48819531 Ry
     Harris-Foulkes estimate   =    -329.48833285 Ry
     estimated scf accuracy    <       0.00033572 Ry

     iteration #  7     ecut=    30.00 Ry     beta=0.70
     Davidson diagonalization with overlap
     ethr =  6.10E-07,  avg # of iterations =  2.0

     total cpu time spent up to now is        2.2 secs

     total energy              =    -329.48826183 Ry
     Harris-Foulkes estimate   =    -329.48827653 Ry
     estimated scf accuracy    <       0.00003379 Ry

     iteration #  8     ecut=    30.00 Ry     beta=0.70
     Davidson diagonalization with overlap
     ethr =  6.14E-08,  avg # of iterations =  2.0

     total cpu time spent up to now is        2.4 secs

     total energy              =    -329.48826850 Ry
     Harris-Foulkes estimate   =    -329.48827445 Ry
     estimated scf accuracy    <       0.00001284 Ry

     iteration #  9     ecut=    30.00 Ry     beta=0.70
     Davidson diagonalization with overlap
     ethr =  2.33E-08,  avg # of iterations =  2.0

     total cpu time spent up to now is        2.7 secs

     total energy              =    -329.48827075 Ry
     Harris-Foulkes estimate   =    -329.48827162 Ry
     estimated scf accuracy    <       0.00000128 Ry

     iteration # 10     ecut=    30.00 Ry     beta=0.70
     Davidson diagonalization with overlap
     ethr =  2.33E-09,  avg # of iterations =  3.0

     total cpu time spent up to now is        2.9 secs

     total energy              =    -329.48827090 Ry
     Harris-Foulkes estimate   =    -329.48827116 Ry
     estimated scf accuracy    <       0.00000027 Ry

     iteration # 11     ecut=    30.00 Ry     beta=0.70
     Davidson diagonalization with overlap
     ethr =  4.88E-10,  avg # of iterations =  2.0

     total cpu time spent up to now is        3.2 secs

     total energy              =    -329.48827096 Ry
     Harris-Foulkes estimate   =    -329.48827096 Ry
     estimated scf accuracy    <       0.00000003 Ry

     iteration # 12     ecut=    30.00 Ry     beta=0.70
     Davidson diagonalization with overlap
     ethr =  4.98E-11,  avg # of iterations =  3.0

     total cpu time spent up to now is        3.4 secs

     End of self-consistent calculation

          k = 0.0000 0.0000 0.0000 ( 22119 PWs)   bands (ev):

    -8.3810  -7.7219  -7.6293  -7.1704  -6.9757  -6.7546  -6.7450  -6.4519
    -6.2626  -6.0651  -5.9820  -5.7514  -5.7105  -5.6602  -5.4131  -5.3365
    -5.3216  -5.2223  -5.1808  -5.1719  -5.1597  -5.1364  -4.9914  -4.8882
    -4.8503  -4.6843  -4.3912  -3.7902  -2.5187  -2.1359  -0.5240  -0.1934
     0.5240   0.7938

     the Fermi energy is    -3.7734 ev

!    total energy              =    -329.48827098 Ry
     Harris-Foulkes estimate   =    -329.48827097 Ry
     estimated scf accuracy    <          9.9E-09 Ry

     The total energy is the sum of the following terms:

     one-electron contribution =    -607.47789285 Ry
     hartree contribution      =     325.21159983 Ry
     xc contribution           =     -51.41137680 Ry
     ewald contribution        =       4.19043566 Ry
     smearing contrib. (-TS)   =      -0.00103681 Ry

     convergence has been achieved in  12 iterations

     Forces acting on atoms (Ry/au):

     atom    1 type  1   force =    -0.00265775   -0.00345928   -0.00815500
     atom    2 type  1   force =     0.00169359    0.00009589   -0.00038826
     atom    3 type  1   force =    -0.00263229    0.00953030    0.01273119
     atom    4 type  1   force =    -0.00060882   -0.00079652    0.00052852
     atom    5 type  1   force =     0.00420526   -0.00537040   -0.00471646

     Total force =     0.020456     Total SCF correction =     0.000305

     BFGS Geometry Optimization

     number of scf cycles    =   1
     number of bfgs steps    =   0

     energy   new            =    -329.4882709815 Ry

     new trust radius        =       0.0161195198 bohr
     new conv_thr            =       0.0000000100 Ry


ATOMIC_POSITIONS (bohr)
Au      -1.700315745   1.375781722  -0.657034001
Au      -0.937072412   3.705711893   3.790027744
Au       3.130750714   1.077354303   0.738355194
Au       3.948231180   4.208589484   5.228064522
Au       7.627646264   1.474658599   3.042720540



     Writing output data file pwscf.save
     Check: negative starting charge=   -0.006392
     NEW-OLD atomic charge density approx. for the potential
     Check: negative starting charge=   -0.006395

     negative rho (up, down):  1.771E-05 0.000E+00

     total cpu time spent up to now is        3.7 secs

     per-process dynamical memory:    42.9 Mb

     Self-consistent Calculation

     iteration #  1     ecut=    30.00 Ry     beta=0.70
     Davidson diagonalization with overlap
     ethr =  1.00E-06,  avg # of iterations =  4.0

     Threshold (ethr) on eigenvalues was too large:
     Diagonalizing with lowered threshold

     Davidson diagonalization with overlap
     ethr =  6.54E-08,  avg # of iterations =  1.0

     negative rho (up, down):  2.322E-08 0.000E+00

     total cpu time spent up to now is        4.2 secs

     total energy              =    -329.48865844 Ry
     Harris-Foulkes estimate   =    -329.48866982 Ry
     estimated scf accuracy    <       0.00003652 Ry

     iteration #  2     ecut=    30.00 Ry     beta=0.70
     Davidson diagonalization with overlap
     ethr =  6.64E-08,  avg # of iterations =  3.0

     total cpu time spent up to now is        4.4 secs

     total energy              =    -329.48865364 Ry
     Harris-Foulkes estimate   =    -329.48868707 Ry
     estimated scf accuracy    <       0.00007845 Ry

     iteration #  3     ecut=    30.00 Ry     beta=0.70
     Davidson diagonalization with overlap
     ethr =  6.64E-08,  avg # of iterations =  2.0

     total cpu time spent up to now is        4.7 secs

     total energy              =    -329.48867021 Ry
     Harris-Foulkes estimate   =    -329.48867414 Ry
     estimated scf accuracy    <       0.00001258 Ry

     iteration #  4     ecut=    30.00 Ry     beta=0.70
     Davidson diagonalization with overlap
     ethr =  2.29E-08,  avg # of iterations =  2.0

     total cpu time spent up to now is        4.9 secs

     total energy              =    -329.48867211 Ry
     Harris-Foulkes estimate   =    -329.48867267 Ry
     estimated scf accuracy    <       0.00000094 Ry

     iteration #  5     ecut=    30.00 Ry     beta=0.70
     Davidson diagonalization with overlap
     ethr =  1.70E-09,  avg # of iterations =  3.0

     total cpu time spent up to now is        5.1 secs

     total energy              =    -329.48867241 Ry
     Harris-Foulkes estimate   =    -329.48867257 Ry
     estimated scf accuracy    <       0.00000075 Ry

     iteration #  6     ecut=    30.00 Ry     beta=0.70
     Davidson diagonalization with overlap
     ethr =  1.37E-09,  avg # of iterations =  2.0

     total cpu time spent up to now is        5.3 secs

     total energy              =    -329.48867251 Ry
     Harris-Foulkes estimate   =    -329.48867255 Ry
     estimated scf accuracy    <       0.00000004 Ry

     iteration #  7     ecut=    30.00 Ry     beta=0.70
     Davidson diagonalization with overlap
     ethr =  6.50E-11,  avg # of iterations =  3.0

     total cpu time spent up to now is        5.5 secs

     End of self-consistent calculation

          k = 0.0000 0.0000 0.0000 ( 22119 PWs)   bands (ev):

    -8.3879  -7.7229  -7.6280  -7.1787  -6.9720  -6.7526  -6.7369  -6.4496
    -6.2687  -6.0554  -5.9845  -5.7535  -5.7110  -5.6627  -5.4133  -5.3399
    -5.3265  -5.2196  -5.1824  -5.1755  -5.1616  -5.1358  -4.9928  -4.8904
    -4.8510  -4.6859  -4.3960  -3.7899  -2.5178  -2.1382  -0.5249  -0.1912
     0.5226   0.7944

     the Fermi energy is    -3.7722 ev

!    total energy              =    -329.48867240 Ry
     Harris-Foulkes estimate   =    -329.48867252 Ry
     estimated scf accuracy    <          8.9E-09 Ry

     The total energy is the sum of the following terms:

     one-electron contribution =    -607.52162309 Ry
     hartree contribution      =     325.23154358 Ry
     xc contribution           =     -51.41047917 Ry
     ewald contribution        =       4.21309577 Ry
     smearing contrib. (-TS)   =      -0.00120950 Ry

     convergence has been achieved in   7 iterations

     Forces acting on atoms (Ry/au):

     atom    1 type  1   force =    -0.00177294   -0.00292199   -0.00705894
     atom    2 type  1   force =     0.00123225   -0.00014828   -0.00112690
     atom    3 type  1   force =    -0.00341449    0.00886203    0.01186703
     atom    4 type  1   force =     0.00004200   -0.00085107    0.00053258
     atom    5 type  1   force =     0.00391318   -0.00494069   -0.00421378

     Total force =     0.018810     Total SCF correction =     0.000392

     number of scf cycles    =   2
     number of bfgs steps    =   1

     energy   old            =    -329.4882709815 Ry
     energy   new            =    -329.4886724046 Ry

     CASE: energy  _new < energy  _old


     WARNING: bfgs curvature condition failed, Theta= 0.874
     new trust radius        =       0.0177314718 bohr
     new conv_thr            =       0.0000000004 Ry


ATOMIC_POSITIONS (bohr)
Au      -1.702619445   1.372262879  -0.665473889
Au      -0.935517622   3.705615227   3.788956061
Au       3.127064233   1.087736470   0.752248558
Au       3.948083052   4.207628254   5.228675115
Au       7.632229782   1.468853169   3.037728155



     Writing output data file pwscf.save
     Check: negative starting charge=   -0.006395
     NEW-OLD atomic charge density approx. for the potential
     Check: negative starting charge=   -0.006397

     negative rho (up, down):  2.336E-05 0.000E+00

     total cpu time spent up to now is        5.8 secs

     per-process dynamical memory:    50.5 Mb

     Self-consistent Calculation

     iteration #  1     ecut=    30.00 Ry     beta=0.70
     Davidson diagonalization with overlap
     ethr =  1.00E-06,  avg # of iterations =  4.0

     Threshold (ethr) on eigenvalues was too large:
     Diagonalizing with lowered threshold

     Davidson diagonalization with overlap
     ethr =  7.55E-08,  avg # of iterations =  1.0

     negative rho (up, down):  4.299E-08 0.000E+00

     total cpu time spent up to now is        6.3 secs

     total energy              =    -329.48905330 Ry
     Harris-Foulkes estimate   =    -329.48906622 Ry
     estimated scf accuracy    <       0.00004191 Ry

     iteration #  2     ecut=    30.00 Ry     beta=0.70
     Davidson diagonalization with overlap
     ethr =  7.62E-08,  avg # of iterations =  3.0

     total cpu time spent up to now is        6.5 secs

     total energy              =    -329.48904877 Ry
     Harris-Foulkes estimate   =    -329.48908525 Ry
     estimated scf accuracy    <       0.00008519 Ry

     iteration #  3     ecut=    30.00 Ry     beta=0.70
     Davidson diagonalization with overlap
     ethr =  7.62E-08,  avg # of iterations =  2.0

     total cpu time spent up to now is        6.7 secs

     total energy              =    -329.48906651 Ry
     Harris-Foulkes estimate   =    -329.48907158 Ry
     estimated scf accuracy    <       0.00001463 Ry

     iteration #  4     ecut=    30.00 Ry     beta=0.70
     Davidson diagonalization with overlap
     ethr =  2.66E-08,  avg # of iterations =  2.0

     total cpu time spent up to now is        6.9 secs

     total energy              =    -329.48906908 Ry
     Harris-Foulkes estimate   =    -329.48906932 Ry
     estimated scf accuracy    <       0.00000092 Ry

     iteration #  5     ecut=    30.00 Ry     beta=0.70
     Davidson diagonalization with overlap
     ethr =  1.66E-09,  avg # of iterations =  3.0

     total cpu time spent up to now is        7.2 secs

     total energy              =    -329.48906911 Ry
     Harris-Foulkes estimate   =    -329.48906954 Ry
     estimated scf accuracy    <       0.00000081 Ry

     iteration #  6     ecut=    30.00 Ry     beta=0.70
     Davidson diagonalization with overlap
     ethr =  1.47E-09,  avg # of iterations =  2.0

     total cpu time spent up to now is        7.4 secs

     total energy              =    -329.48906930 Ry
     Harris-Foulkes estimate   =    -329.48906926 Ry
     estimated scf accuracy    <       0.00000004 Ry

     iteration #  7     ecut=    30.00 Ry     beta=0.70
     Davidson diagonalization with overlap
     ethr =  6.41E-11,  avg # of iterations =  3.0

     total cpu time spent up to now is        7.7 secs

     total energy              =    -329.48906927 Ry
     Harris-Foulkes estimate   =    -329.48906931 Ry
     estimated scf accuracy    <          7.8E-09 Ry

     iteration #  8     ecut=    30.00 Ry     beta=0.70
     Davidson diagonalization with overlap
     ethr =  1.43E-11,  avg # of iterations =  2.0

     total cpu time spent up to now is        7.9 secs

     total energy              =    -329.48906935 Ry
     Harris-Foulkes estimate   =    -329.48906927 Ry
     estimated scf accuracy    <          1.0E-09 Ry

     iteration #  9     ecut=    30.00 Ry     beta=0.70
     Davidson diagonalization with overlap
     ethr =  1.84E-12,  avg # of iterations =  2.0

     total cpu time spent up to now is        8.1 secs

     End of self-consistent calculation

          k = 0.0000 0.0000 0.0000 ( 22119 PWs)   bands (ev):

    -8.3959  -7.7251  -7.6278  -7.1880  -6.9680  -6.7554  -6.7248  -6.4484
    -6.2751  -6.0459  -5.9877  -5.7552  -5.7114  -5.6655  -5.4129  -5.3465
    -5.3290  -5.2171  -5.1838  -5.1798  -5.1632  -5.1351  -4.9939  -4.8931
    -4.8519  -4.6874  -4.4015  -3.7892  -2.5168  -2.1407  -0.5260  -0.1886
     0.5213   0.7950

     the Fermi energy is    -3.7704 ev

!    total energy              =    -329.48906936 Ry
     Harris-Foulkes estimate   =    -329.48906935 Ry
     estimated scf accuracy    <          2.3E-10 Ry

     The total energy is the sum of the following terms:

     one-electron contribution =    -607.60547828 Ry
     hartree contribution      =     325.27036359 Ry
     xc contribution           =     -51.40952788 Ry
     ewald contribution        =       4.25699863 Ry
     smearing contrib. (-TS)   =      -0.00142544 Ry

     convergence has been achieved in   9 iterations

     Forces acting on atoms (Ry/au):

     atom    1 type  1   force =    -0.00109736   -0.00240421   -0.00616470
     atom    2 type  1   force =     0.00079651   -0.00029603   -0.00166248
     atom    3 type  1   force =    -0.00386751    0.00805677    0.01082329
     atom    4 type  1   force =     0.00057761   -0.00085846    0.00067016
     atom    5 type  1   force =     0.00359075   -0.00449807   -0.00366628

     Total force =     0.017134     Total SCF correction =     0.000051

     number of scf cycles    =   3
     number of bfgs steps    =   2

     energy   old            =    -329.4886724046 Ry
     energy   new            =    -329.4890693629 Ry

     CASE: energy  _new < energy  _old

     new trust radius        =       0.0265972076 bohr
     new conv_thr            =       0.0000000004 Ry


ATOMIC_POSITIONS (bohr)
Au      -1.705281067   1.367417079  -0.677633022
Au      -0.933693195   3.705236363   3.786423274
Au       3.120471121   1.103135778   0.772907785
Au       3.948663454   4.206077822   5.229867691
Au       7.639079688   1.460228959   3.030568271



     Writing output data file pwscf.save
     Check: negative starting charge=   -0.006397
     NEW-OLD atomic charge density approx. for the potential
     Check: negative starting charge=   -0.006401

     negative rho (up, down):  7.858E-05 0.000E+00

     total cpu time spent up to now is        8.3 secs

     per-process dynamical memory:    50.5 Mb

     Self-consistent Calculation

     iteration #  1     ecut=    30.00 Ry     beta=0.70
     Davidson diagonalization with overlap
     ethr =  1.00E-06,  avg # of iterations =  4.0

     negative rho (up, down):  5.412E-07 0.000E+00

     total cpu time spent up to now is        8.7 secs

     total energy              =    -329.48955108 Ry
     Harris-Foulkes estimate   =    -329.48957082 Ry
     estimated scf accuracy    <       0.00008714 Ry

     iteration #  2     ecut=    30.00 Ry     beta=0.70
     Davidson diagonalization with overlap
     ethr =  1.58E-07,  avg # of iterations =  3.0

     negative rho (up, down):  5.746E-08 0.000E+00

     total cpu time spent up to now is        9.0 secs

     total energy              =    -329.48954600 Ry
     Harris-Foulkes estimate   =    -329.48961275 Ry
     estimated scf accuracy    <       0.00015142 Ry

     iteration #  3     ecut=    30.00 Ry     beta=0.70
     Davidson diagonalization with overlap
     ethr =  1.58E-07,  avg # of iterations =  2.0

     total cpu time spent up to now is        9.2 secs

     total energy              =    -329.48957890 Ry
     Harris-Foulkes estimate   =    -329.48958961 Ry
     estimated scf accuracy    <       0.00003317 Ry

     iteration #  4     ecut=    30.00 Ry     beta=0.70
     Davidson diagonalization with overlap
     ethr =  6.03E-08,  avg # of iterations =  2.0

     total cpu time spent up to now is        9.4 secs

     total energy              =    -329.48958469 Ry
     Harris-Foulkes estimate   =    -329.48958532 Ry
     estimated scf accuracy    <       0.00000196 Ry

     iteration #  5     ecut=    30.00 Ry     beta=0.70
     Davidson diagonalization with overlap
     ethr =  3.57E-09,  avg # of iterations =  3.0

     total cpu time spent up to now is        9.6 secs

     total energy              =    -329.48958496 Ry
     Harris-Foulkes estimate   =    -329.48958562 Ry
     estimated scf accuracy    <       0.00000147 Ry

     iteration #  6     ecut=    30.00 Ry     beta=0.70
     Davidson diagonalization with overlap
     ethr =  2.67E-09,  avg # of iterations =  2.0

     total cpu time spent up to now is        9.9 secs

     total energy              =    -329.48958527 Ry
     Harris-Foulkes estimate   =    -329.48958526 Ry
     estimated scf accuracy    <       0.00000009 Ry

     iteration #  7     ecut=    30.00 Ry     beta=0.70
     Davidson diagonalization with overlap
     ethr =  1.72E-10,  avg # of iterations =  3.0

     total cpu time spent up to now is       10.1 secs

     total energy              =    -329.48958531 Ry
     Harris-Foulkes estimate   =    -329.48958530 Ry
     estimated scf accuracy    <       0.00000002 Ry

     iteration #  8     ecut=    30.00 Ry     beta=0.70
     Davidson diagonalization with overlap
     ethr =  3.54E-11,  avg # of iterations =  2.0

     total cpu time spent up to now is       10.3 secs

     total energy              =    -329.48958532 Ry
     Harris-Foulkes estimate   =    -329.48958531 Ry
     estimated scf accuracy    <          2.2E-09 Ry

     iteration #  9     ecut=    30.00 Ry     beta=0.70
     Davidson diagonalization with overlap
     ethr =  4.03E-12,  avg # of iterations =  2.0

     total cpu time spent up to now is       10.5 secs

     total energy              =    -329.48958536 Ry
     Harris-Foulkes estimate   =    -329.48958532 Ry
     estimated scf accuracy    <          4.9E-10 Ry

     iteration # 10     ecut=    30.00 Ry     beta=0.70
     Davidson diagonalization with overlap
     ethr =  8.85E-13,  avg # of iterations =  2.0

     total cpu time spent up to now is       10.8 secs

     End of self-consistent calculation

          k = 0.0000 0.0000 0.0000 ( 22119 PWs)   bands (ev):

    -8.4086  -7.7299  -7.6292  -7.2014  -6.9613  -6.7610  -6.7080  -6.4486
    -6.2837  -6.0330  -5.9937  -5.7573  -5.7124  -5.6699  -5.4116  -5.3596
    -5.3298  -5.2139  -5.1868  -5.1852  -5.1653  -5.1338  -4.9956  -4.8974
    -4.8527  -4.6895  -4.4100  -3.7876  -2.5151  -2.1446  -0.5277  -0.1844
     0.5195   0.7956

     the Fermi energy is    -3.7670 ev

!    total energy              =    -329.48958537 Ry
     Harris-Foulkes estimate   =    -329.48958536 Ry
     estimated scf accuracy    <          8.1E-11 Ry

     The total energy is the sum of the following terms:

     one-electron contribution =    -607.76176319 Ry
     hartree contribution      =     325.34349796 Ry
     xc contribution           =     -51.40824004 Ry
     ewald contribution        =       4.33870060 Ry
     smearing contrib. (-TS)   =      -0.00178070 Ry

     convergence has been achieved in  10 iterations

     Forces acting on atoms (Ry/au):

     atom    1 type  1   force =    -0.00046416   -0.00174516   -0.00512772
     atom    2 type  1   force =     0.00021288   -0.00035503   -0.00205269
     atom    3 type  1   force =    -0.00381314    0.00676188    0.00895683
     atom    4 type  1   force =     0.00111194   -0.00081530    0.00104860
     atom    5 type  1   force =     0.00295248   -0.00384638   -0.00282502

     Total force =     0.014454     Total SCF correction =     0.000037

     number of scf cycles    =   4
     number of bfgs steps    =   3

     energy   old            =    -329.4890693629 Ry
     energy   new            =    -329.4895853749 Ry

     CASE: energy  _new < energy  _old

     new trust radius        =       0.0398958114 bohr
     new conv_thr            =       0.0000000005 Ry


ATOMIC_POSITIONS (bohr)
Au      -1.708551101   1.360597433  -0.695818882
Au      -0.931711528   3.704509160   3.781574337
Au       3.109719133   1.126205070   0.803630387
Au       3.950551831   4.203602496   5.232488088
Au       7.649231665   1.447181841   3.020260071



     Writing output data file pwscf.save
     Check: negative starting charge=   -0.006401
     NEW-OLD atomic charge density approx. for the potential
     Check: negative starting charge=   -0.006409

     negative rho (up, down):  2.149E-04 0.000E+00

     total cpu time spent up to now is       11.0 secs

     per-process dynamical memory:    50.6 Mb

     Self-consistent Calculation

     iteration #  1     ecut=    30.00 Ry     beta=0.70
     Davidson diagonalization with overlap
     ethr =  1.00E-06,  avg # of iterations =  4.0

     negative rho (up, down):  4.303E-06 0.000E+00

     total cpu time spent up to now is       11.4 secs

     total energy              =    -329.49012044 Ry
     Harris-Foulkes estimate   =    -329.49013388 Ry
     estimated scf accuracy    <       0.00019074 Ry

     iteration #  2     ecut=    30.00 Ry     beta=0.70
     Davidson diagonalization with overlap
     ethr =  3.47E-07,  avg # of iterations =  3.0

     negative rho (up, down):  7.001E-07 0.000E+00

     total cpu time spent up to now is       11.7 secs

     total energy              =    -329.49011167 Ry
     Harris-Foulkes estimate   =    -329.49025264 Ry
     estimated scf accuracy    <       0.00031315 Ry

     iteration #  3     ecut=    30.00 Ry     beta=0.70
     Davidson diagonalization with overlap
     ethr =  3.47E-07,  avg # of iterations =  2.0

     total cpu time spent up to now is       11.9 secs

     total energy              =    -329.49018023 Ry
     Harris-Foulkes estimate   =    -329.49020387 Ry
     estimated scf accuracy    <       0.00007329 Ry

     iteration #  4     ecut=    30.00 Ry     beta=0.70
     Davidson diagonalization with overlap
     ethr =  1.33E-07,  avg # of iterations =  2.0

     total cpu time spent up to now is       12.1 secs

     total energy              =    -329.49019378 Ry
     Harris-Foulkes estimate   =    -329.49019449 Ry
     estimated scf accuracy    <       0.00000422 Ry

     iteration #  5     ecut=    30.00 Ry     beta=0.70
     Davidson diagonalization with overlap
     ethr =  7.67E-09,  avg # of iterations =  3.0

     total cpu time spent up to now is       12.3 secs

     total energy              =    -329.49019516 Ry
     Harris-Foulkes estimate   =    -329.49019568 Ry
     estimated scf accuracy    <       0.00000278 Ry

     iteration #  6     ecut=    30.00 Ry     beta=0.70
     Davidson diagonalization with overlap
     ethr =  5.06E-09,  avg # of iterations =  2.0

     total cpu time spent up to now is       12.5 secs

     total energy              =    -329.49019556 Ry
     Harris-Foulkes estimate   =    -329.49019573 Ry
     estimated scf accuracy    <       0.00000019 Ry

     iteration #  7     ecut=    30.00 Ry     beta=0.70
     Davidson diagonalization with overlap
     ethr =  3.47E-10,  avg # of iterations =  3.0

     total cpu time spent up to now is       12.8 secs

     total energy              =    -329.49019559 Ry
     Harris-Foulkes estimate   =    -329.49019562 Ry
     estimated scf accuracy    <       0.00000004 Ry

     iteration #  8     ecut=    30.00 Ry     beta=0.70
     Davidson diagonalization with overlap
     ethr =  8.13E-11,  avg # of iterations =  2.0

     total cpu time spent up to now is       13.0 secs

     total energy              =    -329.49019565 Ry
     Harris-Foulkes estimate   =    -329.49019560 Ry
     estimated scf accuracy    <          4.9E-09 Ry

     iteration #  9     ecut=    30.00 Ry     beta=0.70
     Davidson diagonalization with overlap
     ethr =  8.83E-12,  avg # of iterations =  3.0

     total cpu time spent up to now is       13.2 secs

     total energy              =    -329.49019567 Ry
     Harris-Foulkes estimate   =    -329.49019565 Ry
     estimated scf accuracy    <          1.0E-09 Ry

     iteration # 10     ecut=    30.00 Ry     beta=0.70
     Davidson diagonalization with overlap
     ethr =  1.82E-12,  avg # of iterations =  2.0

     total cpu time spent up to now is       13.5 secs

     End of self-consistent calculation

          k = 0.0000 0.0000 0.0000 ( 22119 PWs)   bands (ev):

    -8.4276  -7.7384  -7.6344  -7.2192  -6.9499  -6.7694  -6.6847  -6.4523
    -6.2940  -6.0154  -6.0039  -5.7595  -5.7139  -5.6765  -5.4086  -5.3806
    -5.3290  -5.2110  -5.1974  -5.1863  -5.1675  -5.1311  -4.9981  -4.9044
    -4.8526  -4.6929  -4.4232  -3.7847  -2.5126  -2.1510  -0.5303  -0.1779
     0.5170   0.7962

     the Fermi energy is    -3.7614 ev

!    total energy              =    -329.49019567 Ry
     Harris-Foulkes estimate   =    -329.49019567 Ry
     estimated scf accuracy    <          1.5E-10 Ry

     The total energy is the sum of the following terms:

     one-electron contribution =    -607.98967039 Ry
     hartree contribution      =     325.44983795 Ry
     xc contribution           =     -51.40640062 Ry
     ewald contribution        =       4.45837352 Ry
     smearing contrib. (-TS)   =      -0.00233614 Ry

     convergence has been achieved in  10 iterations

     Forces acting on atoms (Ry/au):

     atom    1 type  1   force =     0.00019991   -0.00100458   -0.00399172
     atom    2 type  1   force =    -0.00051880   -0.00041141   -0.00234268
     atom    3 type  1   force =    -0.00326603    0.00517742    0.00628720
     atom    4 type  1   force =     0.00165877   -0.00078902    0.00171299
     atom    5 type  1   force =     0.00192614   -0.00297241   -0.00166580

     Total force =     0.011025     Total SCF correction =     0.000057

     number of scf cycles    =   5
     number of bfgs steps    =   4

     energy   old            =    -329.4895853749 Ry
     energy   new            =    -329.4901956728 Ry

     CASE: energy  _new < energy  _old

     new trust radius        =       0.0598437172 bohr
     new conv_thr            =       0.0000000006 Ry


ATOMIC_POSITIONS (bohr)
Au      -1.712511998   1.350856493  -0.723610513
Au      -0.929996071   3.703159513   3.772802664
Au       3.092850922   1.161224285   0.849131909
Au       3.954920772   4.199534371   5.238241681
Au       7.663976374   1.427321338   3.005568259



     Writing output data file pwscf.save
     Check: negative starting charge=   -0.006409
     NEW-OLD atomic charge density approx. for the potential
     Check: negative starting charge=   -0.006427

     negative rho (up, down):  5.056E-04 0.000E+00

     total cpu time spent up to now is       13.7 secs

     per-process dynamical memory:    50.7 Mb

     Self-consistent Calculation

     iteration #  1     ecut=    30.00 Ry     beta=0.70
     Davidson diagonalization with overlap
     ethr =  1.00E-06,  avg # of iterations =  5.0

     negative rho (up, down):  2.050E-05 0.000E+00

     total cpu time spent up to now is       14.1 secs

     total energy              =    -329.49067465 Ry
     Harris-Foulkes estimate   =    -329.49056923 Ry
     estimated scf accuracy    <       0.00041965 Ry

     iteration #  2     ecut=    30.00 Ry     beta=0.70
     Davidson diagonalization with overlap
     ethr =  7.63E-07,  avg # of iterations =  4.0

     negative rho (up, down):  4.913E-06 0.000E+00

     total cpu time spent up to now is       14.4 secs

     total energy              =    -329.49066395 Ry
     Harris-Foulkes estimate   =    -329.49096098 Ry
     estimated scf accuracy    <       0.00065730 Ry

     iteration #  3     ecut=    30.00 Ry     beta=0.70
     Davidson diagonalization with overlap
     ethr =  7.63E-07,  avg # of iterations =  2.0

     negative rho (up, down):  1.519E-07 0.000E+00

     total cpu time spent up to now is       14.6 secs

     total energy              =    -329.49080626 Ry
     Harris-Foulkes estimate   =    -329.49085989 Ry
     estimated scf accuracy    <       0.00015892 Ry

     iteration #  4     ecut=    30.00 Ry     beta=0.70
     Davidson diagonalization with overlap
     ethr =  2.89E-07,  avg # of iterations =  2.0

     total cpu time spent up to now is       14.8 secs

     total energy              =    -329.49083709 Ry
     Harris-Foulkes estimate   =    -329.49083765 Ry
     estimated scf accuracy    <       0.00000908 Ry

     iteration #  5     ecut=    30.00 Ry     beta=0.70
     Davidson diagonalization with overlap
     ethr =  1.65E-08,  avg # of iterations =  3.0

     total cpu time spent up to now is       15.1 secs

     total energy              =    -329.49083919 Ry
     Harris-Foulkes estimate   =    -329.49084096 Ry
     estimated scf accuracy    <       0.00000524 Ry

     iteration #  6     ecut=    30.00 Ry     beta=0.70
     Davidson diagonalization with overlap
     ethr =  9.53E-09,  avg # of iterations =  2.0

     total cpu time spent up to now is       15.3 secs

     total energy              =    -329.49084026 Ry
     Harris-Foulkes estimate   =    -329.49084028 Ry
     estimated scf accuracy    <       0.00000037 Ry

     iteration #  7     ecut=    30.00 Ry     beta=0.70
     Davidson diagonalization with overlap
     ethr =  6.67E-10,  avg # of iterations =  2.0

     total cpu time spent up to now is       15.5 secs

     total energy              =    -329.49084036 Ry
     Harris-Foulkes estimate   =    -329.49084036 Ry
     estimated scf accuracy    <       0.00000009 Ry

     iteration #  8     ecut=    30.00 Ry     beta=0.70
     Davidson diagonalization with overlap
     ethr =  1.59E-10,  avg # of iterations =  2.0

     total cpu time spent up to now is       15.7 secs

     total energy              =    -329.49084041 Ry
     Harris-Foulkes estimate   =    -329.49084038 Ry
     estimated scf accuracy    <       0.00000001 Ry

     iteration #  9     ecut=    30.00 Ry     beta=0.70
     Davidson diagonalization with overlap
     ethr =  2.27E-11,  avg # of iterations =  2.0

     total cpu time spent up to now is       16.0 secs

     total energy              =    -329.49084036 Ry
     Harris-Foulkes estimate   =    -329.49084041 Ry
     estimated scf accuracy    <          2.2E-09 Ry

     iteration # 10     ecut=    30.00 Ry     beta=0.70
     Davidson diagonalization with overlap
     ethr =  4.08E-12,  avg # of iterations =  2.0

     total cpu time spent up to now is       16.2 secs

     End of self-consistent calculation

          k = 0.0000 0.0000 0.0000 ( 22119 PWs)   bands (ev):

    -8.4548  -7.7524  -7.6492  -7.2389  -6.9296  -6.7808  -6.6528  -6.4649
    -6.3033  -6.0244  -5.9880  -5.7612  -5.7159  -5.6852  -5.4116  -5.4016
    -5.3262  -5.2156  -5.2084  -5.1857  -5.1686  -5.1259  -5.0014  -4.9158
    -4.8482  -4.6980  -4.4433  -3.7802  -2.5085  -2.1618  -0.5339  -0.1672
     0.5137   0.7966

     the Fermi energy is    -3.7530 ev

!    total energy              =    -329.49084039 Ry
     Harris-Foulkes estimate   =    -329.49084036 Ry
     estimated scf accuracy    <          2.8E-10 Ry

     The total energy is the sum of the following terms:

     one-electron contribution =    -608.28757957 Ry
     hartree contribution      =     325.58821536 Ry
     xc contribution           =     -51.40398225 Ry
     ewald contribution        =       4.61565550 Ry
     smearing contrib. (-TS)   =      -0.00314942 Ry

     convergence has been achieved in  10 iterations

     Forces acting on atoms (Ry/au):

     atom    1 type  1   force =     0.00135062   -0.00018179   -0.00272286
     atom    2 type  1   force =    -0.00103359   -0.00042741   -0.00273240
     atom    3 type  1   force =    -0.00355847    0.00300161    0.00328061
     atom    4 type  1   force =     0.00256144   -0.00070038    0.00258903
     atom    5 type  1   force =     0.00068000   -0.00169203   -0.00041438

     Total force =     0.008226     Total SCF correction =     0.000081

     number of scf cycles    =   6
     number of bfgs steps    =   5

     energy   old            =    -329.4901956728 Ry
     energy   new            =    -329.4908403872 Ry

     CASE: energy  _new < energy  _old

     new trust radius        =       0.0897655757 bohr
     new conv_thr            =       0.0000000004 Ry


ATOMIC_POSITIONS (bohr)
Au      -1.715902173   1.337068568  -0.766209752
Au      -0.928877510   3.700814031   3.756951936
Au       3.064239293   1.213496741   0.916264789
Au       3.964781268   4.192963779   5.250355903
Au       7.684999122   1.397752880   2.984771125



     Writing output data file pwscf.save
     Check: negative starting charge=   -0.006427
     NEW-OLD atomic charge density approx. for the potential
     Check: negative starting charge=   -0.006462

     negative rho (up, down):  1.063E-03 0.000E+00

     total cpu time spent up to now is       16.5 secs

     per-process dynamical memory:    50.7 Mb

     Self-consistent Calculation

     iteration #  1     ecut=    30.00 Ry     beta=0.70
     Davidson diagonalization with overlap
     ethr =  1.00E-06,  avg # of iterations = 10.0

     negative rho (up, down):  7.170E-05 0.000E+00

     total cpu time spent up to now is       17.0 secs

     total energy              =    -329.49079606 Ry
     Harris-Foulkes estimate   =    -329.49036656 Ry
     estimated scf accuracy    <       0.00090408 Ry

     iteration #  2     ecut=    30.00 Ry     beta=0.70
     Davidson diagonalization with overlap
     ethr =  1.64E-06,  avg # of iterations =  6.0

     negative rho (up, down):  2.237E-05 0.000E+00

     total cpu time spent up to now is       17.3 secs

     total energy              =    -329.49079456 Ry
     Harris-Foulkes estimate   =    -329.49138887 Ry
     estimated scf accuracy    <       0.00129724 Ry

     iteration #  3     ecut=    30.00 Ry     beta=0.70
     Davidson diagonalization with overlap
     ethr =  1.64E-06,  avg # of iterations =  2.0

     negative rho (up, down):  1.518E-06 0.000E+00

     total cpu time spent up to now is       17.6 secs

     total energy              =    -329.49108050 Ry
     Harris-Foulkes estimate   =    -329.49119145 Ry
     estimated scf accuracy    <       0.00033070 Ry

     iteration #  4     ecut=    30.00 Ry     beta=0.70
     Davidson diagonalization with overlap
     ethr =  6.01E-07,  avg # of iterations =  2.0

     total cpu time spent up to now is       17.8 secs

     total energy              =    -329.49114348 Ry
     Harris-Foulkes estimate   =    -329.49114803 Ry
     estimated scf accuracy    <       0.00002182 Ry

     iteration #  5     ecut=    30.00 Ry     beta=0.70
     Davidson diagonalization with overlap
     ethr =  3.97E-08,  avg # of iterations =  3.0

     total cpu time spent up to now is       18.0 secs

     total energy              =    -329.49114880 Ry
     Harris-Foulkes estimate   =    -329.49115243 Ry
     estimated scf accuracy    <       0.00001147 Ry

     iteration #  6     ecut=    30.00 Ry     beta=0.70
     Davidson diagonalization with overlap
     ethr =  2.09E-08,  avg # of iterations =  2.0

     total cpu time spent up to now is       18.2 secs

     total energy              =    -329.49115109 Ry
     Harris-Foulkes estimate   =    -329.49115112 Ry
     estimated scf accuracy    <       0.00000056 Ry

     iteration #  7     ecut=    30.00 Ry     beta=0.70
     Davidson diagonalization with overlap
     ethr =  1.02E-09,  avg # of iterations =  3.0

     total cpu time spent up to now is       18.5 secs

     total energy              =    -329.49115114 Ry
     Harris-Foulkes estimate   =    -329.49115127 Ry
     estimated scf accuracy    <       0.00000017 Ry

     iteration #  8     ecut=    30.00 Ry     beta=0.70
     Davidson diagonalization with overlap
     ethr =  3.17E-10,  avg # of iterations =  2.0

     total cpu time spent up to now is       18.7 secs

     total energy              =    -329.49115136 Ry
     Harris-Foulkes estimate   =    -329.49115119 Ry
     estimated scf accuracy    <       0.00000003 Ry

     iteration #  9     ecut=    30.00 Ry     beta=0.70
     Davidson diagonalization with overlap
     ethr =  5.61E-11,  avg # of iterations =  2.0

     total cpu time spent up to now is       18.9 secs

     total energy              =    -329.49115140 Ry
     Harris-Foulkes estimate   =    -329.49115137 Ry
     estimated scf accuracy    <          4.8E-09 Ry

     iteration # 10     ecut=    30.00 Ry     beta=0.70
     Davidson diagonalization with overlap
     ethr =  8.82E-12,  avg # of iterations =  2.0

     total cpu time spent up to now is       19.1 secs

     total energy              =    -329.49115141 Ry
     Harris-Foulkes estimate   =    -329.49115140 Ry
     estimated scf accuracy    <          5.9E-10 Ry

     iteration # 11     ecut=    30.00 Ry     beta=0.70
     Davidson diagonalization with overlap
     ethr =  1.07E-12,  avg # of iterations =  2.0

     total cpu time spent up to now is       19.4 secs

     End of self-consistent calculation

          k = 0.0000 0.0000 0.0000 ( 22119 PWs)   bands (ev):

    -8.4932  -7.7760  -7.6878  -7.2510  -6.8933  -6.7939  -6.6125  -6.4985
    -6.3045  -6.0579  -5.9509  -5.7617  -5.7174  -5.6940  -5.4525  -5.3871
    -5.3201  -5.2406  -5.2091  -5.1841  -5.1664  -5.1172  -5.0052  -4.9332
    -4.8309  -4.7057  -4.4722  -3.7735  -2.5007  -2.1794  -0.5391  -0.1497
     0.5096   0.7971

     the Fermi energy is    -3.7415 ev

!    total energy              =    -329.49115137 Ry
     Harris-Foulkes estimate   =    -329.49115141 Ry
     estimated scf accuracy    <          1.0E-10 Ry

     The total energy is the sum of the following terms:

     one-electron contribution =    -608.68334985 Ry
     hartree contribution      =     325.77317707 Ry
     xc contribution           =     -51.40150615 Ry
     ewald contribution        =       4.82473504 Ry
     smearing contrib. (-TS)   =      -0.00420748 Ry

     convergence has been achieved in  11 iterations

     Forces acting on atoms (Ry/au):

     atom    1 type  1   force =     0.00232901    0.00088578   -0.00003651
     atom    2 type  1   force =    -0.00163695    0.00020064   -0.00269759
     atom    3 type  1   force =    -0.00260754   -0.00179477   -0.00263308
     atom    4 type  1   force =     0.00351369    0.00006517    0.00433697
     atom    5 type  1   force =    -0.00159821    0.00064317    0.00103020

     Total force =     0.008267     Total SCF correction =     0.000039

     number of scf cycles    =   7
     number of bfgs steps    =   6

     energy   old            =    -329.4908403872 Ry
     energy   new            =    -329.4911513734 Ry

     CASE: energy  _new < energy  _old

     new trust radius        =       0.0141869762 bohr
     new conv_thr            =       0.0000000003 Ry


ATOMIC_POSITIONS (bohr)
Au      -1.713517915   1.339631698  -0.760685633
Au      -0.930400669   3.701318719   3.756844660
Au       3.065941039   1.205013652   0.905021500
Au       3.966427573   4.193888319   5.252507169
Au       7.680789972   1.402243612   2.988446304



     Writing output data file pwscf.save
     Check: negative starting charge=   -0.006462
     NEW-OLD atomic charge density approx. for the potential
     Check: negative starting charge=   -0.006454

     negative rho (up, down):  8.606E-06 0.000E+00

     total cpu time spent up to now is       19.6 secs

     per-process dynamical memory:    50.7 Mb

     Self-consistent Calculation

     iteration #  1     ecut=    30.00 Ry     beta=0.70
     Davidson diagonalization with overlap
     ethr =  1.00E-06,  avg # of iterations =  4.0

     Threshold (ethr) on eigenvalues was too large:
     Diagonalizing with lowered threshold

     Davidson diagonalization with overlap
     ethr =  4.55E-08,  avg # of iterations =  1.0

     total cpu time spent up to now is       20.1 secs

     total energy              =    -329.49120531 Ry
     Harris-Foulkes estimate   =    -329.49121445 Ry
     estimated scf accuracy    <       0.00002558 Ry

     iteration #  2     ecut=    30.00 Ry     beta=0.70
     Davidson diagonalization with overlap
     ethr =  4.65E-08,  avg # of iterations =  3.0

     total cpu time spent up to now is       20.4 secs

     total energy              =    -329.49120212 Ry
     Harris-Foulkes estimate   =    -329.49122635 Ry
     estimated scf accuracy    <       0.00005814 Ry

     iteration #  3     ecut=    30.00 Ry     beta=0.70
     Davidson diagonalization with overlap
     ethr =  4.65E-08,  avg # of iterations =  2.0

     total cpu time spent up to now is       20.6 secs

     total energy              =    -329.49121367 Ry
     Harris-Foulkes estimate   =    -329.49121662 Ry
     estimated scf accuracy    <       0.00000717 Ry

     iteration #  4     ecut=    30.00 Ry     beta=0.70
     Davidson diagonalization with overlap
     ethr =  1.30E-08,  avg # of iterations =  2.0

     total cpu time spent up to now is       20.8 secs

     total energy              =    -329.49121496 Ry
     Harris-Foulkes estimate   =    -329.49121515 Ry
     estimated scf accuracy    <       0.00000059 Ry

     iteration #  5     ecut=    30.00 Ry     beta=0.70
     Davidson diagonalization with overlap
     ethr =  1.08E-09,  avg # of iterations =  3.0

     total cpu time spent up to now is       21.1 secs

     total energy              =    -329.49121490 Ry
     Harris-Foulkes estimate   =    -329.49121522 Ry
     estimated scf accuracy    <       0.00000033 Ry

     iteration #  6     ecut=    30.00 Ry     beta=0.70
     Davidson diagonalization with overlap
     ethr =  5.96E-10,  avg # of iterations =  2.0

     total cpu time spent up to now is       21.3 secs

     total energy              =    -329.49121493 Ry
     Harris-Foulkes estimate   =    -329.49121497 Ry
     estimated scf accuracy    <       0.00000002 Ry

     iteration #  7     ecut=    30.00 Ry     beta=0.70
     Davidson diagonalization with overlap
     ethr =  2.74E-11,  avg # of iterations =  3.0

     total cpu time spent up to now is       21.5 secs

     total energy              =    -329.49121490 Ry
     Harris-Foulkes estimate   =    -329.49121493 Ry
     estimated scf accuracy    <          7.6E-09 Ry

     iteration #  8     ecut=    30.00 Ry     beta=0.70
     Davidson diagonalization with overlap
     ethr =  1.38E-11,  avg # of iterations =  2.0

     total cpu time spent up to now is       21.7 secs

     total energy              =    -329.49121493 Ry
     Harris-Foulkes estimate   =    -329.49121491 Ry
     estimated scf accuracy    <          5.3E-10 Ry

     iteration #  9     ecut=    30.00 Ry     beta=0.70
     Davidson diagonalization with overlap
     ethr =  9.62E-13,  avg # of iterations =  3.0

     total cpu time spent up to now is       22.0 secs

     End of self-consistent calculation

          k = 0.0000 0.0000 0.0000 ( 22119 PWs)   bands (ev):

    -8.4878  -7.7729  -7.6749  -7.2477  -6.8962  -6.7926  -6.6213  -6.4905
    -6.3025  -6.0535  -5.9588  -5.7614  -5.7182  -5.6924  -5.4471  -5.3887
    -5.3202  -5.2371  -5.2086  -5.1843  -5.1673  -5.1188  -5.0043  -4.9315
    -4.8351  -4.7052  -4.4689  -3.7734  -2.5015  -2.1789  -0.5380  -0.1523
     0.5095   0.7967

     the Fermi energy is    -3.7418 ev

!    total energy              =    -329.49121494 Ry
     Harris-Foulkes estimate   =    -329.49121493 Ry
     estimated scf accuracy    <          7.3E-11 Ry

     The total energy is the sum of the following terms:

     one-electron contribution =    -608.53725965 Ry
     hartree contribution      =     325.70216860 Ry
     xc contribution           =     -51.40143134 Ry
     ewald contribution        =       4.74943270 Ry
     smearing contrib. (-TS)   =      -0.00412525 Ry

     convergence has been achieved in   9 iterations

     Forces acting on atoms (Ry/au):

     atom    1 type  1   force =     0.00166282    0.00068774   -0.00077679
     atom    2 type  1   force =    -0.00087865    0.00029414   -0.00239291
     atom    3 type  1   force =    -0.00212977   -0.00110277   -0.00137186
     atom    4 type  1   force =     0.00277115   -0.00018466    0.00377191
     atom    5 type  1   force =    -0.00142555    0.00030555    0.00076965

     Total force =     0.006536     Total SCF correction =     0.000039

     number of scf cycles    =   8
     number of bfgs steps    =   7

     energy   old            =    -329.4911513734 Ry
     energy   new            =    -329.4912149429 Ry

     CASE: energy  _new < energy  _old

     new trust radius        =       0.0146534471 bohr
     new conv_thr            =            1.0E-10 Ry


ATOMIC_POSITIONS (bohr)
Au      -1.708019386   1.342931585  -0.759098609
Au      -0.933481072   3.702542389   3.751145363
Au       3.062196992   1.196384461   0.893785723
Au       3.974264305   4.194144460   5.263525677
Au       7.674279161   1.406093105   2.992775845



     Writing output data file pwscf.save
     Check: negative starting charge=   -0.006454
     NEW-OLD atomic charge density approx. for the potential
     Check: negative starting charge=   -0.006438

     negative rho (up, down):  2.638E-05 0.000E+00

     total cpu time spent up to now is       22.2 secs

     per-process dynamical memory:    50.7 Mb

     Self-consistent Calculation

     iteration #  1     ecut=    30.00 Ry     beta=0.70
     Davidson diagonalization with overlap
     ethr =  1.00E-06,  avg # of iterations =  4.0

     Threshold (ethr) on eigenvalues was too large:
     Diagonalizing with lowered threshold

     Davidson diagonalization with overlap
     ethr =  8.52E-08,  avg # of iterations =  1.0

     negative rho (up, down):  4.912E-08 0.000E+00

     total cpu time spent up to now is       22.7 secs

     total energy              =    -329.49128910 Ry
     Harris-Foulkes estimate   =    -329.49130062 Ry
     estimated scf accuracy    <       0.00004733 Ry

     iteration #  2     ecut=    30.00 Ry     beta=0.70
     Davidson diagonalization with overlap
     ethr =  8.61E-08,  avg # of iterations =  3.0

     total cpu time spent up to now is       23.0 secs

     total energy              =    -329.49128152 Ry
     Harris-Foulkes estimate   =    -329.49133257 Ry
     estimated scf accuracy    <       0.00012863 Ry

     iteration #  3     ecut=    30.00 Ry     beta=0.70
     Davidson diagonalization with overlap
     ethr =  8.61E-08,  avg # of iterations =  2.0

     total cpu time spent up to now is       23.2 secs

     total energy              =    -329.49130710 Ry
     Harris-Foulkes estimate   =    -329.49131016 Ry
     estimated scf accuracy    <       0.00000978 Ry

     iteration #  4     ecut=    30.00 Ry     beta=0.70
     Davidson diagonalization with overlap
     ethr =  1.78E-08,  avg # of iterations =  2.0

     total cpu time spent up to now is       23.4 secs

     total energy              =    -329.49130858 Ry
     Harris-Foulkes estimate   =    -329.49130955 Ry
     estimated scf accuracy    <       0.00000161 Ry

     iteration #  5     ecut=    30.00 Ry     beta=0.70
     Davidson diagonalization with overlap
     ethr =  2.92E-09,  avg # of iterations =  2.0

     total cpu time spent up to now is       23.7 secs

     total energy              =    -329.49130884 Ry
     Harris-Foulkes estimate   =    -329.49130904 Ry
     estimated scf accuracy    <       0.00000035 Ry

     iteration #  6     ecut=    30.00 Ry     beta=0.70
     Davidson diagonalization with overlap
     ethr =  6.30E-10,  avg # of iterations =  2.0

     total cpu time spent up to now is       23.9 secs

     total energy              =    -329.49130871 Ry
     Harris-Foulkes estimate   =    -329.49130893 Ry
     estimated scf accuracy    <       0.00000004 Ry

     iteration #  7     ecut=    30.00 Ry     beta=0.70
     Davidson diagonalization with overlap
     ethr =  6.54E-11,  avg # of iterations =  2.0

     total cpu time spent up to now is       24.1 secs

     total energy              =    -329.49130876 Ry
     Harris-Foulkes estimate   =    -329.49130873 Ry
     estimated scf accuracy    <       0.00000001 Ry

     iteration #  8     ecut=    30.00 Ry     beta=0.70
     Davidson diagonalization with overlap
     ethr =  2.29E-11,  avg # of iterations =  2.0

     total cpu time spent up to now is       24.3 secs

     total energy              =    -329.49130877 Ry
     Harris-Foulkes estimate   =    -329.49130876 Ry
     estimated scf accuracy    <          1.5E-09 Ry

     iteration #  9     ecut=    30.00 Ry     beta=0.70
     Davidson diagonalization with overlap
     ethr =  2.74E-12,  avg # of iterations =  2.0

     total cpu time spent up to now is       24.6 secs

     total energy              =    -329.49130875 Ry
     Harris-Foulkes estimate   =    -329.49130877 Ry
     estimated scf accuracy    <          1.4E-10 Ry

     iteration # 10     ecut=    30.00 Ry     beta=0.70
     Davidson diagonalization with overlap
     ethr =  2.62E-13,  avg # of iterations =  2.0

     total cpu time spent up to now is       24.8 secs

     End of self-consistent calculation

          k = 0.0000 0.0000 0.0000 ( 22119 PWs)   bands (ev):

    -8.4838  -7.7712  -7.6543  -7.2392  -6.8925  -6.7922  -6.6351  -6.4808
    -6.2952  -6.0514  -5.9696  -5.7611  -5.7203  -5.6893  -5.4426  -5.3879
    -5.3187  -5.2349  -5.2070  -5.1842  -5.1686  -5.1209  -5.0025  -4.9315
    -4.8403  -4.7059  -4.4675  -3.7716  -2.5005  -2.1828  -0.5365  -0.1544
     0.5077   0.7963

     the Fermi energy is    -3.7399 ev

!    total energy              =    -329.49130877 Ry
     Harris-Foulkes estimate   =    -329.49130875 Ry
     estimated scf accuracy    <          1.2E-11 Ry

     The total energy is the sum of the following terms:

     one-electron contribution =    -608.23591445 Ry
     hartree contribution      =     325.55397452 Ry
     xc contribution           =     -51.40077663 Ry
     ewald contribution        =       4.59556771 Ry
     smearing contrib. (-TS)   =      -0.00415992 Ry

     convergence has been achieved in  10 iterations

     Forces acting on atoms (Ry/au):

     atom    1 type  1   force =     0.00004526    0.00026737   -0.00189869
     atom    2 type  1   force =     0.00086677    0.00060733   -0.00169120
     atom    3 type  1   force =    -0.00027206   -0.00011245    0.00059613
     atom    4 type  1   force =     0.00093830   -0.00065992    0.00266854
     atom    5 type  1   force =    -0.00157827   -0.00010233    0.00032522

     Total force =     0.004376     Total SCF correction =     0.000018

     number of scf cycles    =   9
     number of bfgs steps    =   8

     energy   old            =    -329.4912149429 Ry
     energy   new            =    -329.4913087668 Ry

     CASE: energy  _new < energy  _old

     new trust radius        =       0.0175214634 bohr
     new conv_thr            =            1.0E-10 Ry


ATOMIC_POSITIONS (bohr)
Au      -1.703943508   1.343794838  -0.766791807
Au      -0.934795836   3.704056029   3.741737508
Au       3.054389697   1.197056412   0.895447567
Au       3.983598800   4.192581700   5.278271072
Au       7.669990847   1.404607020   2.993469659



     Writing output data file pwscf.save
     Check: negative starting charge=   -0.006438
     NEW-OLD atomic charge density approx. for the potential
     Check: negative starting charge=   -0.006428

     negative rho (up, down):  2.726E-05 0.000E+00

     total cpu time spent up to now is       25.1 secs

     per-process dynamical memory:    50.7 Mb

     Self-consistent Calculation

     iteration #  1     ecut=    30.00 Ry     beta=0.70
     Davidson diagonalization with overlap
     ethr =  1.00E-06,  avg # of iterations =  4.0

     Threshold (ethr) on eigenvalues was too large:
     Diagonalizing with lowered threshold

     Davidson diagonalization with overlap
     ethr =  6.45E-08,  avg # of iterations =  1.0

     negative rho (up, down):  6.428E-08 0.000E+00

     total cpu time spent up to now is       25.6 secs

     total energy              =    -329.49136200 Ry
     Harris-Foulkes estimate   =    -329.49136344 Ry
     estimated scf accuracy    <       0.00003567 Ry

     iteration #  2     ecut=    30.00 Ry     beta=0.70
     Davidson diagonalization with overlap
     ethr =  6.49E-08,  avg # of iterations =  3.0

     total cpu time spent up to now is       25.8 secs

     total energy              =    -329.49136454 Ry
     Harris-Foulkes estimate   =    -329.49138317 Ry
     estimated scf accuracy    <       0.00004190 Ry

     iteration #  3     ecut=    30.00 Ry     beta=0.70
     Davidson diagonalization with overlap
     ethr =  6.49E-08,  avg # of iterations =  2.0

     total cpu time spent up to now is       26.0 secs

     total energy              =    -329.49137353 Ry
     Harris-Foulkes estimate   =    -329.49137666 Ry
     estimated scf accuracy    <       0.00000895 Ry

     iteration #  4     ecut=    30.00 Ry     beta=0.70
     Davidson diagonalization with overlap
     ethr =  1.63E-08,  avg # of iterations =  2.0

     total cpu time spent up to now is       26.3 secs

     total energy              =    -329.49137583 Ry
     Harris-Foulkes estimate   =    -329.49137623 Ry
     estimated scf accuracy    <       0.00000230 Ry

     iteration #  5     ecut=    30.00 Ry     beta=0.70
     Davidson diagonalization with overlap
     ethr =  4.19E-09,  avg # of iterations =  2.0

     total cpu time spent up to now is       26.5 secs

     total energy              =    -329.49137615 Ry
     Harris-Foulkes estimate   =    -329.49137632 Ry
     estimated scf accuracy    <       0.00000016 Ry

     iteration #  6     ecut=    30.00 Ry     beta=0.70
     Davidson diagonalization with overlap
     ethr =  2.97E-10,  avg # of iterations =  2.0

     total cpu time spent up to now is       26.7 secs

     total energy              =    -329.49137621 Ry
     Harris-Foulkes estimate   =    -329.49137620 Ry
     estimated scf accuracy    <       0.00000002 Ry

     iteration #  7     ecut=    30.00 Ry     beta=0.70
     Davidson diagonalization with overlap
     ethr =  2.79E-11,  avg # of iterations =  3.0

     total cpu time spent up to now is       27.0 secs

     total energy              =    -329.49137623 Ry
     Harris-Foulkes estimate   =    -329.49137622 Ry
     estimated scf accuracy    <          6.8E-09 Ry

     iteration #  8     ecut=    30.00 Ry     beta=0.70
     Davidson diagonalization with overlap
     ethr =  1.24E-11,  avg # of iterations =  2.0

     total cpu time spent up to now is       27.2 secs

     total energy              =    -329.49137620 Ry
     Harris-Foulkes estimate   =    -329.49137623 Ry
     estimated scf accuracy    <          1.8E-10 Ry

     iteration #  9     ecut=    30.00 Ry     beta=0.70
     Davidson diagonalization with overlap
     ethr =  3.30E-13,  avg # of iterations =  4.0

     total cpu time spent up to now is       27.4 secs

     End of self-consistent calculation

          k = 0.0000 0.0000 0.0000 ( 22119 PWs)   bands (ev):

    -8.4870  -7.7737  -7.6428  -7.2326  -6.8823  -6.7938  -6.6412  -6.4782
    -6.2880  -6.0554  -5.9729  -5.7614  -5.7227  -5.6876  -5.4450  -5.3844
    -5.3159  -5.2372  -5.2054  -5.1837  -5.1695  -5.1212  -5.0012  -4.9343
    -4.8416  -4.7076  -4.4708  -3.7689  -2.4973  -2.1900  -0.5359  -0.1534
     0.5050   0.7967

     the Fermi energy is    -3.7363 ev

!    total energy              =    -329.49137622 Ry
     Harris-Foulkes estimate   =    -329.49137620 Ry
     estimated scf accuracy    <          4.3E-11 Ry

     The total energy is the sum of the following terms:

     one-electron contribution =    -608.01906704 Ry
     hartree contribution      =     325.44592786 Ry
     xc contribution           =     -51.39989882 Ry
     ewald contribution        =       4.48600580 Ry
     smearing contrib. (-TS)   =      -0.00434403 Ry

     convergence has been achieved in   9 iterations

     Forces acting on atoms (Ry/au):

     atom    1 type  1   force =    -0.00115621    0.00000095   -0.00215453
     atom    2 type  1   force =     0.00226534    0.00095115   -0.00114092
     atom    3 type  1   force =     0.00137103    0.00004531    0.00123086
     atom    4 type  1   force =    -0.00064482   -0.00088430    0.00182587
     atom    5 type  1   force =    -0.00183534   -0.00011310    0.00023872

     Total force =     0.004968     Total SCF correction =     0.000031

     number of scf cycles    =  10
     number of bfgs steps    =   9

     energy   old            =    -329.4913087668 Ry
     energy   new            =    -329.4913762235 Ry

     CASE: energy  _new < energy  _old

     new trust radius        =       0.0224622132 bohr
     new conv_thr            =            1.0E-10 Ry


ATOMIC_POSITIONS (bohr)
Au      -1.701190894   1.343667383  -0.781111792
Au      -0.933152750   3.706862673   3.728477190
Au       3.045394810   1.201677467   0.903762972
Au       3.993794199   4.189258570   5.298008389
Au       7.664394634   1.400629907   2.992997241



     Writing output data file pwscf.save
     Check: negative starting charge=   -0.006428
     NEW-OLD atomic charge density approx. for the potential
     Check: negative starting charge=   -0.006420

     negative rho (up, down):  8.131E-05 0.000E+00

     total cpu time spent up to now is       27.7 secs

     per-process dynamical memory:    50.7 Mb

     Self-consistent Calculation

     iteration #  1     ecut=    30.00 Ry     beta=0.70
     Davidson diagonalization with overlap
     ethr =  1.00E-06,  avg # of iterations =  4.0

     negative rho (up, down):  5.948E-07 0.000E+00

     total cpu time spent up to now is       28.1 secs

     total energy              =    -329.49141108 Ry
     Harris-Foulkes estimate   =    -329.49141883 Ry
     estimated scf accuracy    <       0.00007405 Ry

     iteration #  2     ecut=    30.00 Ry     beta=0.70
     Davidson diagonalization with overlap
     ethr =  1.35E-07,  avg # of iterations =  3.0

     negative rho (up, down):  3.929E-08 0.000E+00

     total cpu time spent up to now is       28.3 secs

     total energy              =    -329.49142021 Ry
     Harris-Foulkes estimate   =    -329.49145251 Ry
     estimated scf accuracy    <       0.00006912 Ry

     iteration #  3     ecut=    30.00 Ry     beta=0.70
     Davidson diagonalization with overlap
     ethr =  1.26E-07,  avg # of iterations =  2.0

     total cpu time spent up to now is       28.5 secs

     total energy              =    -329.49143504 Ry
     Harris-Foulkes estimate   =    -329.49144037 Ry
     estimated scf accuracy    <       0.00001488 Ry

     iteration #  4     ecut=    30.00 Ry     beta=0.70
     Davidson diagonalization with overlap
     ethr =  2.71E-08,  avg # of iterations =  2.0

     total cpu time spent up to now is       28.7 secs

     total energy              =    -329.49143905 Ry
     Harris-Foulkes estimate   =    -329.49144026 Ry
     estimated scf accuracy    <       0.00000568 Ry

     iteration #  5     ecut=    30.00 Ry     beta=0.70
     Davidson diagonalization with overlap
     ethr =  1.03E-08,  avg # of iterations =  2.0

     total cpu time spent up to now is       29.0 secs

     total energy              =    -329.49144023 Ry
     Harris-Foulkes estimate   =    -329.49144021 Ry
     estimated scf accuracy    <       0.00000038 Ry

     iteration #  6     ecut=    30.00 Ry     beta=0.70
     Davidson diagonalization with overlap
     ethr =  6.84E-10,  avg # of iterations =  2.0

     total cpu time spent up to now is       29.2 secs

     total energy              =    -329.49144048 Ry
     Harris-Foulkes estimate   =    -329.49144034 Ry
     estimated scf accuracy    <       0.00000003 Ry

     iteration #  7     ecut=    30.00 Ry     beta=0.70
     Davidson diagonalization with overlap
     ethr =  5.56E-11,  avg # of iterations =  3.0

     total cpu time spent up to now is       29.5 secs

     total energy              =    -329.49144044 Ry
     Harris-Foulkes estimate   =    -329.49144049 Ry
     estimated scf accuracy    <       0.00000002 Ry

     iteration #  8     ecut=    30.00 Ry     beta=0.70
     Davidson diagonalization with overlap
     ethr =  4.35E-11,  avg # of iterations =  2.0

     total cpu time spent up to now is       29.7 secs

     total energy              =    -329.49144043 Ry
     Harris-Foulkes estimate   =    -329.49144045 Ry
     estimated scf accuracy    <          1.2E-09 Ry

     iteration #  9     ecut=    30.00 Ry     beta=0.70
     Davidson diagonalization with overlap
     ethr =  2.24E-12,  avg # of iterations =  3.0

     total cpu time spent up to now is       29.9 secs

     total energy              =    -329.49144045 Ry
     Harris-Foulkes estimate   =    -329.49144043 Ry
     estimated scf accuracy    <          4.8E-10 Ry

     iteration # 10     ecut=    30.00 Ry     beta=0.70
     Davidson diagonalization with overlap
     ethr =  8.68E-13,  avg # of iterations =  2.0

     total cpu time spent up to now is       30.2 secs

     End of self-consistent calculation

          k = 0.0000 0.0000 0.0000 ( 22119 PWs)   bands (ev):

    -8.4939  -7.7779  -7.6353  -7.2271  -6.8694  -6.7958  -6.6436  -6.4783
    -6.2816  -6.0624  -5.9724  -5.7622  -5.7256  -5.6867  -5.4506  -5.3793
    -5.3126  -5.2415  -5.2035  -5.1825  -5.1707  -5.1205  -5.0001  -4.9381
    -4.8409  -4.7098  -4.4759  -3.7659  -2.4920  -2.1990  -0.5359  -0.1511
     0.5012   0.7984

     the Fermi energy is    -3.7323 ev

!    total energy              =    -329.49144046 Ry
     Harris-Foulkes estimate   =    -329.49144045 Ry
     estimated scf accuracy    <          5.3E-11 Ry

     The total energy is the sum of the following terms:

     one-electron contribution =    -607.84230789 Ry
     hartree contribution      =     325.35712133 Ry
     xc contribution           =     -51.39901016 Ry
     ewald contribution        =       4.39733201 Ry
     smearing contrib. (-TS)   =      -0.00457575 Ry

     convergence has been achieved in  10 iterations

     Forces acting on atoms (Ry/au):

     atom    1 type  1   force =    -0.00190748   -0.00024740   -0.00172439
     atom    2 type  1   force =     0.00343012    0.00125107   -0.00076484
     atom    3 type  1   force =     0.00238990   -0.00016919    0.00107071
     atom    4 type  1   force =    -0.00209117   -0.00086349    0.00097172
     atom    5 type  1   force =    -0.00182137    0.00002901    0.00044679

     Total force =     0.006087     Total SCF correction =     0.000029

     number of scf cycles    =  11
     number of bfgs steps    =  10

     energy   old            =    -329.4913762235 Ry
     energy   new            =    -329.4914404634 Ry

     CASE: energy  _new < energy  _old

     new trust radius        =       0.0198573458 bohr
     new conv_thr            =            1.0E-10 Ry


ATOMIC_POSITIONS (bohr)
Au      -1.700941644   1.343326164  -0.795350887
Au      -0.927465328   3.710852553   3.715723668
Au       3.040259866   1.205281393   0.911999444
Au       4.000122202   4.185330117   5.316415937
Au       7.657264904   1.397305774   2.993345839



     Writing output data file pwscf.save
     Check: negative starting charge=   -0.006420
     NEW-OLD atomic charge density approx. for the potential
     Check: negative starting charge=   -0.006413

     negative rho (up, down):  6.727E-05 0.000E+00

     total cpu time spent up to now is       30.4 secs

     per-process dynamical memory:    50.7 Mb

     Self-consistent Calculation

     iteration #  1     ecut=    30.00 Ry     beta=0.70
     Davidson diagonalization with overlap
     ethr =  1.00E-06,  avg # of iterations =  4.0

     negative rho (up, down):  4.122E-07 0.000E+00

     total cpu time spent up to now is       30.8 secs

     total energy              =    -329.49147182 Ry
     Harris-Foulkes estimate   =    -329.49148511 Ry
     estimated scf accuracy    <       0.00007181 Ry

     iteration #  2     ecut=    30.00 Ry     beta=0.70
     Davidson diagonalization with overlap
     ethr =  1.31E-07,  avg # of iterations =  3.0

     negative rho (up, down):  3.692E-08 0.000E+00

     total cpu time spent up to now is       31.0 secs

     total energy              =    -329.49147590 Ry
     Harris-Foulkes estimate   =    -329.49151807 Ry
     estimated scf accuracy    <       0.00009162 Ry

     iteration #  3     ecut=    30.00 Ry     beta=0.70
     Davidson diagonalization with overlap
     ethr =  1.31E-07,  avg # of iterations =  2.0

     total cpu time spent up to now is       31.3 secs

     total energy              =    -329.49149500 Ry
     Harris-Foulkes estimate   =    -329.49150219 Ry
     estimated scf accuracy    <       0.00001997 Ry

     iteration #  4     ecut=    30.00 Ry     beta=0.70
     Davidson diagonalization with overlap
     ethr =  3.63E-08,  avg # of iterations =  2.0

     total cpu time spent up to now is       31.5 secs

     total energy              =    -329.49149996 Ry
     Harris-Foulkes estimate   =    -329.49150056 Ry
     estimated scf accuracy    <       0.00000389 Ry

     iteration #  5     ecut=    30.00 Ry     beta=0.70
     Davidson diagonalization with overlap
     ethr =  7.08E-09,  avg # of iterations =  2.0

     total cpu time spent up to now is       31.7 secs

     total energy              =    -329.49150102 Ry
     Harris-Foulkes estimate   =    -329.49150084 Ry
     estimated scf accuracy    <       0.00000033 Ry

     iteration #  6     ecut=    30.00 Ry     beta=0.70
     Davidson diagonalization with overlap
     ethr =  5.98E-10,  avg # of iterations =  2.0

     total cpu time spent up to now is       31.9 secs

     total energy              =    -329.49150101 Ry
     Harris-Foulkes estimate   =    -329.49150110 Ry
     estimated scf accuracy    <       0.00000002 Ry

     iteration #  7     ecut=    30.00 Ry     beta=0.70
     Davidson diagonalization with overlap
     ethr =  3.63E-11,  avg # of iterations =  3.0

     total cpu time spent up to now is       32.2 secs

     total energy              =    -329.49150105 Ry
     Harris-Foulkes estimate   =    -329.49150102 Ry
     estimated scf accuracy    <       0.00000001 Ry

     iteration #  8     ecut=    30.00 Ry     beta=0.70
     Davidson diagonalization with overlap
     ethr =  2.51E-11,  avg # of iterations =  2.0

     total cpu time spent up to now is       32.4 secs

     total energy              =    -329.49150096 Ry
     Harris-Foulkes estimate   =    -329.49150106 Ry
     estimated scf accuracy    <          7.5E-10 Ry

     iteration #  9     ecut=    30.00 Ry     beta=0.70
     Davidson diagonalization with overlap
     ethr =  1.36E-12,  avg # of iterations =  3.0

     total cpu time spent up to now is       32.6 secs

     total energy              =    -329.49150096 Ry
     Harris-Foulkes estimate   =    -329.49150096 Ry
     estimated scf accuracy    <          1.8E-10 Ry

     iteration # 10     ecut=    30.00 Ry     beta=0.70
     Davidson diagonalization with overlap
     ethr =  3.35E-13,  avg # of iterations =  3.0

     total cpu time spent up to now is       32.9 secs

     End of self-consistent calculation

          k = 0.0000 0.0000 0.0000 ( 22119 PWs)   bands (ev):

    -8.4998  -7.7813  -7.6333  -7.2246  -6.8611  -6.7969  -6.6435  -6.4796
    -6.2790  -6.0680  -5.9701  -5.7633  -5.7277  -5.6865  -5.4550  -5.3754
    -5.3103  -5.2449  -5.2022  -5.1806  -5.1723  -5.1197  -4.9994  -4.9401
    -4.8390  -4.7121  -4.4791  -3.7642  -2.4866  -2.2054  -0.5362  -0.1496
     0.4974   0.8012

     the Fermi energy is    -3.7301 ev

!    total energy              =    -329.49150096 Ry
     Harris-Foulkes estimate   =    -329.49150096 Ry
     estimated scf accuracy    <          4.3E-11 Ry

     The total energy is the sum of the following terms:

     one-electron contribution =    -607.77017264 Ry
     hartree contribution      =     325.32044665 Ry
     xc contribution           =     -51.39864644 Ry
     ewald contribution        =       4.36157986 Ry
     smearing contrib. (-TS)   =      -0.00470839 Ry

     convergence has been achieved in  10 iterations

     Forces acting on atoms (Ry/au):

     atom    1 type  1   force =    -0.00184341   -0.00039530   -0.00102892
     atom    2 type  1   force =     0.00394038    0.00132773   -0.00073547
     atom    3 type  1   force =     0.00209925   -0.00039360    0.00049175
     atom    4 type  1   force =    -0.00286323   -0.00062090    0.00046684
     atom    5 type  1   force =    -0.00133298    0.00008207    0.00080580

     Total force =     0.006203     Total SCF correction =     0.000030

     number of scf cycles    =  12
     number of bfgs steps    =  11

     energy   old            =    -329.4914404634 Ry
     energy   new            =    -329.4915009565 Ry

     CASE: energy  _new < energy  _old

     new trust radius        =       0.0218430804 bohr
     new conv_thr            =            1.0E-10 Ry


ATOMIC_POSITIONS (bohr)
Au      -1.702133946   1.343103851  -0.810824114
Au      -0.916977060   3.716776920   3.700791464
Au       3.037102494   1.207047771   0.919278992
Au       4.004038966   4.180496383   5.337354278
Au       7.647209546   1.394671075   2.995533380



     Writing output data file pwscf.save
     Check: negative starting charge=   -0.006413
     NEW-OLD atomic charge density approx. for the potential
     Check: negative starting charge=   -0.006403

     negative rho (up, down):  9.570E-05 0.000E+00

     total cpu time spent up to now is       33.1 secs

     per-process dynamical memory:    50.7 Mb

     Self-consistent Calculation

     iteration #  1     ecut=    30.00 Ry     beta=0.70
     Davidson diagonalization with overlap
     ethr =  1.00E-06,  avg # of iterations =  4.0

     negative rho (up, down):  8.477E-07 0.000E+00

     total cpu time spent up to now is       33.5 secs

     total energy              =    -329.49153830 Ry
     Harris-Foulkes estimate   =    -329.49155732 Ry
     estimated scf accuracy    <       0.00009852 Ry

     iteration #  2     ecut=    30.00 Ry     beta=0.70
     Davidson diagonalization with overlap
     ethr =  1.79E-07,  avg # of iterations =  2.0

     negative rho (up, down):  1.030E-07 0.000E+00

     total cpu time spent up to now is       33.7 secs

     total energy              =    -329.49154053 Ry
     Harris-Foulkes estimate   =    -329.49160726 Ry
     estimated scf accuracy    <       0.00014823 Ry

     iteration #  3     ecut=    30.00 Ry     beta=0.70
     Davidson diagonalization with overlap
     ethr =  1.79E-07,  avg # of iterations =  2.0

     total cpu time spent up to now is       34.0 secs

     total energy              =    -329.49157117 Ry
     Harris-Foulkes estimate   =    -329.49158125 Ry
     estimated scf accuracy    <       0.00002836 Ry

     iteration #  4     ecut=    30.00 Ry     beta=0.70
     Davidson diagonalization with overlap
     ethr =  5.16E-08,  avg # of iterations =  2.0

     total cpu time spent up to now is       34.2 secs

     total energy              =    -329.49157765 Ry
     Harris-Foulkes estimate   =    -329.49157869 Ry
     estimated scf accuracy    <       0.00000464 Ry

     iteration #  5     ecut=    30.00 Ry     beta=0.70
     Davidson diagonalization with overlap
     ethr =  8.44E-09,  avg # of iterations =  2.0

     total cpu time spent up to now is       34.4 secs

     total energy              =    -329.49157865 Ry
     Harris-Foulkes estimate   =    -329.49157874 Ry
     estimated scf accuracy    <       0.00000041 Ry

     iteration #  6     ecut=    30.00 Ry     beta=0.70
     Davidson diagonalization with overlap
     ethr =  7.38E-10,  avg # of iterations =  2.0

     total cpu time spent up to now is       34.6 secs

[...]
     atom    3 type  1   force =    -0.00172710   -0.00006004    0.00000894
     atom    4 type  1   force =    -0.00004632   -0.00023175   -0.00034722
     atom    5 type  1   force =     0.00022239    0.00012362    0.00034169

     Total force =     0.002284     Total SCF correction =     0.000020

     number of scf cycles    =  29
     number of bfgs steps    =  28

     energy   old            =    -329.4926689403 Ry
     energy   new            =    -329.4926885409 Ry

     CASE: energy  _new < energy  _old

     new trust radius        =       0.0595738838 bohr
     new conv_thr            =            1.0E-10 Ry


ATOMIC_POSITIONS (bohr)
Au      -1.632437022   1.373190804  -0.964149633
Au      -0.795257422   4.030614791   3.372739703
Au       3.058035501   1.149532820   0.945165688
Au       3.869646309   3.952647653   5.608342505
Au       7.569252634   1.336109933   3.180035737



     Writing output data file pwscf.save
     Check: negative starting charge=   -0.006296
     NEW-OLD atomic charge density approx. for the potential
     Check: negative starting charge=   -0.006289

     negative rho (up, down):  6.735E-04 0.000E+00

     total cpu time spent up to now is       82.0 secs

     per-process dynamical memory:    50.7 Mb

     Self-consistent Calculation

     iteration #  1     ecut=    30.00 Ry     beta=0.70
     Davidson diagonalization with overlap
     ethr =  1.00E-06,  avg # of iterations = 13.0

     negative rho (up, down):  3.209E-05 0.000E+00

     total cpu time spent up to now is       82.5 secs

     total energy              =    -329.49246522 Ry
     Harris-Foulkes estimate   =    -329.49232144 Ry
     estimated scf accuracy    <       0.00063345 Ry

     iteration #  2     ecut=    30.00 Ry     beta=0.70
     Davidson diagonalization with overlap
     ethr =  1.15E-06,  avg # of iterations =  5.0

     negative rho (up, down):  6.065E-06 0.000E+00

     total cpu time spent up to now is       82.8 secs

     total energy              =    -329.49257473 Ry
     Harris-Foulkes estimate   =    -329.49285870 Ry
     estimated scf accuracy    <       0.00062183 Ry

     iteration #  3     ecut=    30.00 Ry     beta=0.70
     Davidson diagonalization with overlap
     ethr =  1.13E-06,  avg # of iterations =  2.0

     total cpu time spent up to now is       83.0 secs

     total energy              =    -329.49270697 Ry
     Harris-Foulkes estimate   =    -329.49271117 Ry
     estimated scf accuracy    <       0.00002005 Ry

     iteration #  4     ecut=    30.00 Ry     beta=0.70
     Davidson diagonalization with overlap
     ethr =  3.65E-08,  avg # of iterations =  3.0

     total cpu time spent up to now is       83.3 secs

     total energy              =    -329.49271098 Ry
     Harris-Foulkes estimate   =    -329.49271735 Ry
     estimated scf accuracy    <       0.00001467 Ry

     iteration #  5     ecut=    30.00 Ry     beta=0.70
     Davidson diagonalization with overlap
     ethr =  2.67E-08,  avg # of iterations =  2.0

     total cpu time spent up to now is       83.5 secs

     total energy              =    -329.49271385 Ry
     Harris-Foulkes estimate   =    -329.49271465 Ry
     estimated scf accuracy    <       0.00000246 Ry

     iteration #  6     ecut=    30.00 Ry     beta=0.70
     Davidson diagonalization with overlap
     ethr =  4.48E-09,  avg # of iterations =  2.0

     total cpu time spent up to now is       83.7 secs

     total energy              =    -329.49271443 Ry
     Harris-Foulkes estimate   =    -329.49271437 Ry
     estimated scf accuracy    <       0.00000016 Ry

     iteration #  7     ecut=    30.00 Ry     beta=0.70
     Davidson diagonalization with overlap
     ethr =  2.91E-10,  avg # of iterations =  3.0

     total cpu time spent up to now is       84.0 secs

     total energy              =    -329.49271430 Ry
     Harris-Foulkes estimate   =    -329.49271452 Ry
     estimated scf accuracy    <       0.00000016 Ry

     iteration #  8     ecut=    30.00 Ry     beta=0.70
     Davidson diagonalization with overlap
     ethr =  2.89E-10,  avg # of iterations =  2.0

     total cpu time spent up to now is       84.2 secs

     total energy              =    -329.49271430 Ry
     Harris-Foulkes estimate   =    -329.49271433 Ry
     estimated scf accuracy    <          7.3E-09 Ry

     iteration #  9     ecut=    30.00 Ry     beta=0.70
     Davidson diagonalization with overlap
     ethr =  1.33E-11,  avg # of iterations =  3.0

     total cpu time spent up to now is       84.5 secs

     total energy              =    -329.49271428 Ry
     Harris-Foulkes estimate   =    -329.49271431 Ry
     estimated scf accuracy    <          7.5E-10 Ry

     iteration # 10     ecut=    30.00 Ry     beta=0.70
     Davidson diagonalization with overlap
     ethr =  1.36E-12,  avg # of iterations =  3.0

     total cpu time spent up to now is       84.8 secs

     total energy              =    -329.49271429 Ry
     Harris-Foulkes estimate   =    -329.49271428 Ry
     estimated scf accuracy    <          3.0E-10 Ry

     iteration # 11     ecut=    30.00 Ry     beta=0.70
     Davidson diagonalization with overlap
     ethr =  5.54E-13,  avg # of iterations =  2.0

     total cpu time spent up to now is       85.0 secs

     End of self-consistent calculation

          k = 0.0000 0.0000 0.0000 ( 22119 PWs)   bands (ev):

    -8.5008  -7.7819  -7.6501  -7.2424  -6.8721  -6.8110  -6.6276  -6.4786
    -6.3137  -6.0659  -5.9719  -5.7667  -5.7281  -5.6854  -5.4517  -5.3675
    -5.3148  -5.2427  -5.1926  -5.1873  -5.1679  -5.1226  -5.0019  -4.9159
    -4.8484  -4.7236  -4.4726  -3.7724  -2.4574  -2.1955  -0.5365  -0.1597
     0.4680   0.8164

     the Fermi energy is    -3.7398 ev

!    total energy              =    -329.49271429 Ry
     Harris-Foulkes estimate   =    -329.49271429 Ry
     estimated scf accuracy    <          5.0E-11 Ry

     The total energy is the sum of the following terms:

     one-electron contribution =    -607.22867699 Ry
     hartree contribution      =     325.04609659 Ry
     xc contribution           =     -51.40052775 Ry
     ewald contribution        =       4.09475101 Ry
     smearing contrib. (-TS)   =      -0.00435715 Ry

     convergence has been achieved in  11 iterations

     Forces acting on atoms (Ry/au):

     atom    1 type  1   force =     0.00076906   -0.00013383   -0.00018510
     atom    2 type  1   force =     0.00003155    0.00075328   -0.00005257
     atom    3 type  1   force =    -0.00229671   -0.00044987   -0.00053979
     atom    4 type  1   force =     0.00033097    0.00021202   -0.00001056
     atom    5 type  1   force =     0.00116512   -0.00038160    0.00078802

     Total force =     0.003043     Total SCF correction =     0.000025

     number of scf cycles    =  30
     number of bfgs steps    =  29

     energy   old            =    -329.4926885409 Ry
     energy   new            =    -329.4927142925 Ry

     CASE: energy  _new < energy  _old


     WARNING: bfgs curvature condition failed, Theta= 0.566
     uphill step: resetting bfgs history

     new trust radius        =       0.0024017930 bohr
     new conv_thr            =            1.0E-10 Ry


ATOMIC_POSITIONS (bohr)
Au      -1.631667966   1.373056971  -0.964334735
Au      -0.795225868   4.031368071   3.372687137
Au       3.055738796   1.149082949   0.944625899
Au       3.869977280   3.952859673   5.608331944
Au       7.570417758   1.335728336   3.180823754



     Writing output data file pwscf.save
     Check: negative starting charge=   -0.006289
     NEW-OLD atomic charge density approx. for the potential
     Check: negative starting charge=   -0.006288

     total cpu time spent up to now is       85.2 secs

     per-process dynamical memory:    50.7 Mb

     Self-consistent Calculation

     iteration #  1     ecut=    30.00 Ry     beta=0.70
     Davidson diagonalization with overlap
     ethr =  1.00E-06,  avg # of iterations =  3.0

     Threshold (ethr) on eigenvalues was too large:
     Diagonalizing with lowered threshold

     Davidson diagonalization with overlap
     ethr =  1.21E-09,  avg # of iterations =  3.0

     total cpu time spent up to now is       85.7 secs

     total energy              =    -329.49272183 Ry
     Harris-Foulkes estimate   =    -329.49272225 Ry
     estimated scf accuracy    <       0.00000061 Ry

     iteration #  2     ecut=    30.00 Ry     beta=0.70
     Davidson diagonalization with overlap
     ethr =  1.12E-09,  avg # of iterations =  3.0

     total cpu time spent up to now is       86.0 secs

     total energy              =    -329.49272179 Ry
     Harris-Foulkes estimate   =    -329.49272246 Ry
     estimated scf accuracy    <       0.00000197 Ry

     iteration #  3     ecut=    30.00 Ry     beta=0.70
     Davidson diagonalization with overlap
     ethr =  1.12E-09,  avg # of iterations =  2.0

     total cpu time spent up to now is       86.2 secs

     total energy              =    -329.49272222 Ry
     Harris-Foulkes estimate   =    -329.49272219 Ry
     estimated scf accuracy    <       0.00000010 Ry

     iteration #  4     ecut=    30.00 Ry     beta=0.70
     Davidson diagonalization with overlap
     ethr =  1.83E-10,  avg # of iterations =  2.0

     total cpu time spent up to now is       86.4 secs

     total energy              =    -329.49272214 Ry
     Harris-Foulkes estimate   =    -329.49272225 Ry
     estimated scf accuracy    <       0.00000002 Ry

     iteration #  5     ecut=    30.00 Ry     beta=0.70
     Davidson diagonalization with overlap
     ethr =  4.18E-11,  avg # of iterations =  2.0

     total cpu time spent up to now is       86.7 secs

     total energy              =    -329.49272218 Ry
     Harris-Foulkes estimate   =    -329.49272214 Ry
     estimated scf accuracy    <          1.2E-09 Ry

     iteration #  6     ecut=    30.00 Ry     beta=0.70
     Davidson diagonalization with overlap
     ethr =  2.25E-12,  avg # of iterations =  2.0

     total cpu time spent up to now is       86.9 secs

     total energy              =    -329.49272216 Ry
     Harris-Foulkes estimate   =    -329.49272218 Ry
     estimated scf accuracy    <          3.7E-10 Ry

     iteration #  7     ecut=    30.00 Ry     beta=0.70
     Davidson diagonalization with overlap
     ethr =  6.79E-13,  avg # of iterations =  2.0

     total cpu time spent up to now is       87.1 secs

     End of self-consistent calculation

          k = 0.0000 0.0000 0.0000 ( 22119 PWs)   bands (ev):

    -8.5001  -7.7810  -7.6496  -7.2418  -6.8715  -6.8104  -6.6269  -6.4781
    -6.3134  -6.0658  -5.9713  -5.7668  -5.7281  -5.6852  -5.4517  -5.3674
    -5.3147  -5.2428  -5.1925  -5.1869  -5.1683  -5.1227  -5.0020  -4.9162
    -4.8487  -4.7235  -4.4729  -3.7724  -2.4577  -2.1959  -0.5363  -0.1596
     0.4678   0.8162

     the Fermi energy is    -3.7398 ev

!    total energy              =    -329.49272215 Ry
     Harris-Foulkes estimate   =    -329.49272216 Ry
     estimated scf accuracy    <          5.7E-11 Ry

     The total energy is the sum of the following terms:

     one-electron contribution =    -607.18152481 Ry
     hartree contribution      =     325.02271830 Ry
     xc contribution           =     -51.40031914 Ry
     ewald contribution        =       4.07076616 Ry
     smearing contrib. (-TS)   =      -0.00436266 Ry

     convergence has been achieved in   7 iterations

     Forces acting on atoms (Ry/au):

     atom    1 type  1   force =     0.00043953   -0.00013204   -0.00031881
     atom    2 type  1   force =     0.00003603    0.00078911   -0.00001946
     atom    3 type  1   force =    -0.00150254   -0.00043037   -0.00020305
     atom    4 type  1   force =     0.00035659    0.00012821   -0.00011742
     atom    5 type  1   force =     0.00067039   -0.00035491    0.00065874

     Total force =     0.002142     Total SCF correction =     0.000032

     number of scf cycles    =  31
     number of bfgs steps    =  30

     energy   old            =    -329.4927142925 Ry
     energy   new            =    -329.4927221452 Ry

     CASE: energy  _new < energy  _old

     new trust radius        =       0.0026419723 bohr
     new conv_thr            =            1.0E-10 Ry


ATOMIC_POSITIONS (bohr)
Au      -1.630918528   1.372843640  -0.964833033
Au      -0.795168255   4.032637301   3.372651707
Au       3.053217218   1.148385987   0.944257248
Au       3.870549682   3.953076789   5.608155428
Au       7.571559884   1.335152282   3.181902650



     Writing output data file pwscf.save
     Check: negative starting charge=   -0.006288
     NEW-OLD atomic charge density approx. for the potential
     Check: negative starting charge=   -0.006288

     total cpu time spent up to now is       87.4 secs

     per-process dynamical memory:    50.7 Mb

     Self-consistent Calculation

     iteration #  1     ecut=    30.00 Ry     beta=0.70
     Davidson diagonalization with overlap
     ethr =  1.00E-06,  avg # of iterations =  3.0

     Threshold (ethr) on eigenvalues was too large:
     Diagonalizing with lowered threshold

     Davidson diagonalization with overlap
     ethr =  1.58E-09,  avg # of iterations =  3.0

     total cpu time spent up to now is       87.9 secs

     total energy              =    -329.49272819 Ry
     Harris-Foulkes estimate   =    -329.49272840 Ry
     estimated scf accuracy    <       0.00000081 Ry

     iteration #  2     ecut=    30.00 Ry     beta=0.70
     Davidson diagonalization with overlap
     ethr =  1.48E-09,  avg # of iterations =  3.0

     total cpu time spent up to now is       88.1 secs

     total energy              =    -329.49272811 Ry
     Harris-Foulkes estimate   =    -329.49272886 Ry
     estimated scf accuracy    <       0.00000184 Ry

     iteration #  3     ecut=    30.00 Ry     beta=0.70
     Davidson diagonalization with overlap
     ethr =  1.48E-09,  avg # of iterations =  2.0

     total cpu time spent up to now is       88.4 secs

     total energy              =    -329.49272853 Ry
     Harris-Foulkes estimate   =    -329.49272855 Ry
     estimated scf accuracy    <       0.00000021 Ry

     iteration #  4     ecut=    30.00 Ry     beta=0.70
     Davidson diagonalization with overlap
     ethr =  3.85E-10,  avg # of iterations =  2.0

     total cpu time spent up to now is       88.6 secs

     total energy              =    -329.49272850 Ry
     Harris-Foulkes estimate   =    -329.49272859 Ry
     estimated scf accuracy    <       0.00000004 Ry

     iteration #  5     ecut=    30.00 Ry     beta=0.70
     Davidson diagonalization with overlap
     ethr =  6.83E-11,  avg # of iterations =  2.0

     total cpu time spent up to now is       88.8 secs

     total energy              =    -329.49272851 Ry
     Harris-Foulkes estimate   =    -329.49272851 Ry
     estimated scf accuracy    <          2.1E-09 Ry

     iteration #  6     ecut=    30.00 Ry     beta=0.70
     Davidson diagonalization with overlap
     ethr =  3.73E-12,  avg # of iterations =  2.0

     total cpu time spent up to now is       89.1 secs

     total energy              =    -329.49272848 Ry
     Harris-Foulkes estimate   =    -329.49272851 Ry
     estimated scf accuracy    <          4.4E-10 Ry

     iteration #  7     ecut=    30.00 Ry     beta=0.70
     Davidson diagonalization with overlap
     ethr =  8.06E-13,  avg # of iterations =  3.0

     total cpu time spent up to now is       89.4 secs

     total energy              =    -329.49272847 Ry
     Harris-Foulkes estimate   =    -329.49272848 Ry
     estimated scf accuracy    <          1.0E-10 Ry

     iteration #  8     ecut=    30.00 Ry     beta=0.70
     Davidson diagonalization with overlap
     ethr =  1.90E-13,  avg # of iterations =  2.0

     total cpu time spent up to now is       89.6 secs

     End of self-consistent calculation

          k = 0.0000 0.0000 0.0000 ( 22119 PWs)   bands (ev):

    -8.4991  -7.7800  -7.6488  -7.2410  -6.8708  -6.8097  -6.6259  -6.4776
    -6.3129  -6.0656  -5.9706  -5.7668  -5.7282  -5.6850  -5.4517  -5.3674
    -5.3147  -5.2430  -5.1924  -5.1865  -5.1687  -5.1228  -5.0022  -4.9165
    -4.8490  -4.7236  -4.4733  -3.7725  -2.4581  -2.1964  -0.5361  -0.1595
     0.4674   0.8159

     the Fermi energy is    -3.7399 ev

!    total energy              =    -329.49272846 Ry
     Harris-Foulkes estimate   =    -329.49272847 Ry
     estimated scf accuracy    <          9.9E-12 Ry

     The total energy is the sum of the following terms:

     one-electron contribution =    -607.11882324 Ry
     hartree contribution      =     324.99166575 Ry
     xc contribution           =     -51.40005455 Ry
     ewald contribution        =       4.03885354 Ry
     smearing contrib. (-TS)   =      -0.00436995 Ry

     convergence has been achieved in   8 iterations

     Forces acting on atoms (Ry/au):

     atom    1 type  1   force =     0.00012462   -0.00011112   -0.00041648
     atom    2 type  1   force =     0.00004848    0.00080653   -0.00002879
     atom    3 type  1   force =    -0.00069662   -0.00040660    0.00014138
     atom    4 type  1   force =     0.00034902    0.00005670   -0.00021611
     atom    5 type  1   force =     0.00017450   -0.00034551    0.00051999

     Total force =     0.001455     Total SCF correction =     0.000013

     bfgs converged in  32 scf cycles and  31 bfgs steps
     (criteria: energy <  1.0E-04, force <  1.0E-03)

     End of BFGS Geometry Optimization

     Final energy   =    -329.4927284572 Ry
Begin final coordinates

ATOMIC_POSITIONS (bohr)
Au      -1.630918528   1.372843640  -0.964833033
Au      -0.795168255   4.032637301   3.372651707
Au       3.053217218   1.148385987   0.944257248
Au       3.870549682   3.953076789   5.608155428
Au       7.571559884   1.335152282   3.181902650
End final coordinates



     Writing output data file pwscf.save
 
     init_run     :      0.17s CPU      0.19s WALL (       1 calls)
     electrons    :     76.15s CPU     82.80s WALL (      32 calls)
     update_pot   :      2.19s CPU      2.87s WALL (      31 calls)
     forces       :      1.41s CPU      1.48s WALL (      32 calls)

     Called by init_run:
     wfcinit      :      0.07s CPU      0.09s WALL (       1 calls)
     potinit      :      0.03s CPU      0.04s WALL (       1 calls)

     Called by electrons:
     c_bands      :     58.06s CPU     59.72s WALL (     330 calls)
     sum_band     :      8.21s CPU      8.51s WALL (     330 calls)
     v_of_rho     :      6.59s CPU      6.80s WALL (     349 calls)
     mix_rho      :      2.87s CPU      5.69s WALL (     330 calls)

     Called by c_bands:
     init_us_2    :      1.02s CPU      1.09s WALL (     661 calls)
     cegterg      :     51.71s CPU     52.96s WALL (     330 calls)

     Called by sum_band:

     Called by *egterg:
     h_psi        :     40.33s CPU     41.25s WALL (    1209 calls)
     g_psi        :      0.40s CPU      0.41s WALL (     878 calls)
     cdiaghg      :      2.91s CPU      2.98s WALL (    1164 calls)

     Called by h_psi:
     h_psi:pot    :     39.76s CPU     40.66s WALL (    1209 calls)
     h_psi:calbec :      2.21s CPU      2.24s WALL (    1209 calls)
     vloc_psi     :     35.06s CPU     35.86s WALL (    1209 calls)
     add_vuspsi   :      2.49s CPU      2.55s WALL (    1209 calls)

     General routines
     calbec       :      2.60s CPU      2.65s WALL (    1337 calls)
     fft          :      3.82s CPU      3.96s WALL (    3928 calls)
     fftw         :     37.17s CPU     38.00s WALL (   73690 calls)
     davcio       :      0.40s CPU      2.68s WALL (    3379 calls)
 
     Parallel routines
     fft_scatter  :      9.45s CPU      9.38s WALL (   77618 calls)
 
     PWSCF        :  1m20.85s CPU     1m29.81s WALL

 
   This run was terminated on:  11: 6:15   3Aug2017            

=------------------------------------------------------------------------------=
   JOB DONE.
=------------------------------------------------------------------------------=
