
     Program PWSCF v.6.0 (svn rev. 13079) starts on  3Aug2017 at 15:13: 4 

     This program is part of the open-source Quantum ESPRESSO suite
     for quantum simulation of materials; please cite
         "P. Giannozzi et al., J. Phys.:Condens. Matter 21 395502 (2009);
          URL http://www.quantum-espresso.org", 
     in publications or presentations arising from this work. More details at
     http://www.quantum-espresso.org/quote

     Parallel version (MPI), running on    10 processors
     R & G space division:  proc/nbgrp/npool/nimage =      10
     Reading input from input/multi/minchecks-Gold5-202.in

     Current dimensions of program PWSCF are:
     Max number of different atomic species (ntypx) = 10
     Max number of k-points (npk) =  40000
     Max angular momentum in pseudopotentials (lmaxx) =  3
     Message from routine iosys:
     pot_extrapolation='second-order' not available, using 'atomic'
     Message from routine iosys:
     wfc_extrapolation='second-order' not available, using 'atomic'

     Subspace diagonalization in iterative solution of the eigenvalue problem:
     a serial algorithm will be used

 
     Parallelization info
     --------------------
     sticks:   dense  smooth     PW     G-vecs:    dense   smooth      PW
     Min         380     380     94                17748    17748    2208
     Max         381     381     95                17753    17753    2213
     Sum        3809    3809    949               177509   177509   22119
 


     bravais-lattice index     =            1
     lattice parameter (alat)  =      20.0000  a.u.
     unit-cell volume          =    8000.0000 (a.u.)^3
     number of atoms/cell      =            5
     number of atomic types    =            1
     number of electrons       =        55.00
     number of Kohn-Sham states=           34
     kinetic-energy cutoff     =      30.0000  Ry
     charge density cutoff     =     120.0000  Ry
     convergence threshold     =      1.0E-08
     mixing beta               =       0.7000
     number of iterations used =            8  plain     mixing
     Exchange-correlation      = BLYP ( 1  3  1  3 0 0)
     nstep                     =           50


     celldm(1)=  20.000000  celldm(2)=   0.000000  celldm(3)=   0.000000
     celldm(4)=   0.000000  celldm(5)=   0.000000  celldm(6)=   0.000000

     crystal axes: (cart. coord. in units of alat)
               a(1) = (   1.000000   0.000000   0.000000 )  
               a(2) = (   0.000000   1.000000   0.000000 )  
               a(3) = (   0.000000   0.000000   1.000000 )  

     reciprocal axes: (cart. coord. in units 2 pi/alat)
               b(1) = (  1.000000  0.000000  0.000000 )  
               b(2) = (  0.000000  1.000000  0.000000 )  
               b(3) = (  0.000000  0.000000  1.000000 )  


     PseudoPot. # 1 for Au read from file:
     ./Au.blyp-d-hgh.UPF
     MD5 check sum: c10d8bae01f806c36a1643a1c69a8479
     Pseudo is Norm-conserving, Zval = 11.0
     Generated in analytical, separable form
     Using radial grid of 1279 points,  6 beta functions with: 
                l(1) =   0
                l(2) =   0
                l(3) =   1
                l(4) =   1
                l(5) =   2
                l(6) =   2

     atomic species   valence    mass     pseudopotential
        Au            11.00    28.08600     Au( 1.00)

     No symmetry found



   Cartesian axes

     site n.     atom                  positions (alat units)
         1           Au  tau(   1) = (  -0.0921905   0.0740036  -0.0242227  )
         2           Au  tau(   2) = (  -0.0483054   0.2030962   0.1896622  )
         3           Au  tau(   3) = (   0.1493520   0.0500687   0.0407239  )
         4           Au  tau(   4) = (   0.2005866   0.2213511   0.2468015  )
         5           Au  tau(   5) = (   0.3780716   0.0680339   0.1490544  )

     number of k points=     1  Marzari-Vanderbilt smearing, width (Ry)=  0.0250
                       cart. coord. in units 2pi/alat
        k(    1) = (   0.0000000   0.0000000   0.0000000), wk =   2.0000000

     Dense  grid:   177509 G-vectors     FFT dimensions: (  72,  72,  72)

     Estimated max dynamical RAM per process >      15.04Mb

     Estimated total allocated dynamical RAM >     150.39Mb

     Initial potential from superposition of free atoms
     Check: negative starting charge=   -0.006346

     starting charge   54.99940, renormalised to   55.00000

     negative rho (up, down):  6.346E-03 0.000E+00
     Starting wfc are   45 randomized atomic wfcs

     total cpu time spent up to now is        0.3 secs

     per-process dynamical memory:    41.0 Mb

     Self-consistent Calculation

     iteration #  1     ecut=    30.00 Ry     beta=0.70
     Davidson diagonalization with overlap
     ethr =  1.00E-02,  avg # of iterations =  4.0

     Threshold (ethr) on eigenvalues was too large:
     Diagonalizing with lowered threshold

     Davidson diagonalization with overlap
     ethr =  4.07E-04,  avg # of iterations =  3.0

     negative rho (up, down):  8.377E-04 0.000E+00

     total cpu time spent up to now is        0.9 secs

     total energy              =    -329.37568567 Ry
     Harris-Foulkes estimate   =    -329.54533171 Ry
     estimated scf accuracy    <       0.28100879 Ry

     iteration #  2     ecut=    30.00 Ry     beta=0.70
     Davidson diagonalization with overlap
     ethr =  5.11E-04,  avg # of iterations =  5.0

     negative rho (up, down):  3.851E-04 0.000E+00

     total cpu time spent up to now is        1.2 secs

     total energy              =    -329.40491273 Ry
     Harris-Foulkes estimate   =    -329.56645030 Ry
     estimated scf accuracy    <       0.33540356 Ry

     iteration #  3     ecut=    30.00 Ry     beta=0.70
     Davidson diagonalization with overlap
     ethr =  5.11E-04,  avg # of iterations =  2.0

     negative rho (up, down):  1.464E-04 0.000E+00

     total cpu time spent up to now is        1.5 secs

     total energy              =    -329.47202428 Ry
     Harris-Foulkes estimate   =    -329.50349998 Ry
     estimated scf accuracy    <       0.08443761 Ry

     iteration #  4     ecut=    30.00 Ry     beta=0.70
     Davidson diagonalization with overlap
     ethr =  1.54E-04,  avg # of iterations =  2.0

     negative rho (up, down):  1.266E-05 0.000E+00

     total cpu time spent up to now is        1.7 secs

     total energy              =    -329.48665660 Ry
     Harris-Foulkes estimate   =    -329.48847616 Ry
     estimated scf accuracy    <       0.00444019 Ry

     iteration #  5     ecut=    30.00 Ry     beta=0.70
     Davidson diagonalization with overlap
     ethr =  8.07E-06,  avg # of iterations =  7.0

     total cpu time spent up to now is        2.0 secs

     total energy              =    -329.48771991 Ry
     Harris-Foulkes estimate   =    -329.48863075 Ry
     estimated scf accuracy    <       0.00249737 Ry

     iteration #  6     ecut=    30.00 Ry     beta=0.70
     Davidson diagonalization with overlap
     ethr =  4.54E-06,  avg # of iterations =  2.0

     total cpu time spent up to now is        2.3 secs

     total energy              =    -329.48812504 Ry
     Harris-Foulkes estimate   =    -329.48825635 Ry
     estimated scf accuracy    <       0.00029608 Ry

     iteration #  7     ecut=    30.00 Ry     beta=0.70
     Davidson diagonalization with overlap
     ethr =  5.38E-07,  avg # of iterations =  2.0

     total cpu time spent up to now is        2.5 secs

     total energy              =    -329.48818768 Ry
     Harris-Foulkes estimate   =    -329.48820292 Ry
     estimated scf accuracy    <       0.00003630 Ry

     iteration #  8     ecut=    30.00 Ry     beta=0.70
     Davidson diagonalization with overlap
     ethr =  6.60E-08,  avg # of iterations =  2.0

     total cpu time spent up to now is        2.8 secs

     total energy              =    -329.48819466 Ry
     Harris-Foulkes estimate   =    -329.48820100 Ry
     estimated scf accuracy    <       0.00001533 Ry

     iteration #  9     ecut=    30.00 Ry     beta=0.70
     Davidson diagonalization with overlap
     ethr =  2.79E-08,  avg # of iterations =  2.0

     total cpu time spent up to now is        3.0 secs

     total energy              =    -329.48819741 Ry
     Harris-Foulkes estimate   =    -329.48819825 Ry
     estimated scf accuracy    <       0.00000145 Ry

     iteration # 10     ecut=    30.00 Ry     beta=0.70
     Davidson diagonalization with overlap
     ethr =  2.64E-09,  avg # of iterations =  2.0

     total cpu time spent up to now is        3.3 secs

     total energy              =    -329.48819768 Ry
     Harris-Foulkes estimate   =    -329.48819787 Ry
     estimated scf accuracy    <       0.00000027 Ry

     iteration # 11     ecut=    30.00 Ry     beta=0.70
     Davidson diagonalization with overlap
     ethr =  4.88E-10,  avg # of iterations =  2.0

     total cpu time spent up to now is        3.5 secs

     total energy              =    -329.48819768 Ry
     Harris-Foulkes estimate   =    -329.48819775 Ry
     estimated scf accuracy    <       0.00000003 Ry

     iteration # 12     ecut=    30.00 Ry     beta=0.70
     Davidson diagonalization with overlap
     ethr =  5.36E-11,  avg # of iterations =  2.0

     total cpu time spent up to now is        3.8 secs

     End of self-consistent calculation

          k = 0.0000 0.0000 0.0000 ( 22119 PWs)   bands (ev):

    -8.3899  -7.7246  -7.6271  -7.1833  -7.0122  -6.7547  -6.7258  -6.4558
    -6.2656  -6.0671  -5.9820  -5.7410  -5.7036  -5.6656  -5.4253  -5.3403
    -5.3116  -5.2348  -5.1818  -5.1755  -5.1576  -5.1386  -4.9872  -4.9166
    -4.8625  -4.6365  -4.4136  -3.7871  -2.5299  -2.1246  -0.5154  -0.1876
     0.5687   0.7612

     the Fermi energy is    -3.7679 ev

!    total energy              =    -329.48819769 Ry
     Harris-Foulkes estimate   =    -329.48819769 Ry
     estimated scf accuracy    <          7.4E-09 Ry

     The total energy is the sum of the following terms:

     one-electron contribution =    -607.68536300 Ry
     hartree contribution      =     325.30989520 Ry
     xc contribution           =     -51.41034188 Ry
     ewald contribution        =       4.29899303 Ry
     smearing contrib. (-TS)   =      -0.00138104 Ry

     convergence has been achieved in  12 iterations

     Forces acting on atoms (Ry/au):

     atom    1 type  1   force =    -0.00525573   -0.00558669   -0.00853023
     atom    2 type  1   force =     0.00123807    0.00139978   -0.00058208
     atom    3 type  1   force =     0.00163254    0.00884720    0.01090831
     atom    4 type  1   force =    -0.00082951   -0.00055048    0.00172100
     atom    5 type  1   force =     0.00321464   -0.00410982   -0.00351700

     Total force =     0.019466     Total SCF correction =     0.000292

     BFGS Geometry Optimization

     number of scf cycles    =   1
     number of bfgs steps    =   0

     energy   new            =    -329.4881976858 Ry

     new trust radius        =       0.0141396376 bohr
     new conv_thr            =       0.0000000100 Ry


ATOMIC_POSITIONS (bohr)
Au      -1.849065731   1.474485310  -0.492984226
Au      -0.964870931   4.063323782   3.792661917
Au       2.988672536   1.010220205   0.825387306
Au       4.010901489   4.426472524   4.937750004
Au       7.564646638   1.356569179   2.977570999



     Writing output data file pwscf.save
     Check: negative starting charge=   -0.006346
     NEW-OLD atomic charge density approx. for the potential
     Check: negative starting charge=   -0.006352

     negative rho (up, down):  1.388E-05 0.000E+00

     total cpu time spent up to now is        4.0 secs

     per-process dynamical memory:    42.9 Mb

     Self-consistent Calculation

     iteration #  1     ecut=    30.00 Ry     beta=0.70
     Davidson diagonalization with overlap
     ethr =  1.00E-06,  avg # of iterations =  4.0

     Threshold (ethr) on eigenvalues was too large:
     Diagonalizing with lowered threshold

     Davidson diagonalization with overlap
     ethr =  6.53E-08,  avg # of iterations =  1.0

     negative rho (up, down):  1.309E-08 0.000E+00

     total cpu time spent up to now is        4.8 secs

     total energy              =    -329.48853638 Ry
     Harris-Foulkes estimate   =    -329.48854869 Ry
     estimated scf accuracy    <       0.00003654 Ry

     iteration #  2     ecut=    30.00 Ry     beta=0.70
     Davidson diagonalization with overlap
     ethr =  6.64E-08,  avg # of iterations =  3.0

     total cpu time spent up to now is        5.1 secs

     total energy              =    -329.48852854 Ry
     Harris-Foulkes estimate   =    -329.48857156 Ry
     estimated scf accuracy    <       0.00011213 Ry

     iteration #  3     ecut=    30.00 Ry     beta=0.70
     Davidson diagonalization with overlap
     ethr =  6.64E-08,  avg # of iterations =  2.0

     total cpu time spent up to now is        5.3 secs

     total energy              =    -329.48855081 Ry
     Harris-Foulkes estimate   =    -329.48855342 Ry
     estimated scf accuracy    <       0.00001053 Ry

     iteration #  4     ecut=    30.00 Ry     beta=0.70
     Davidson diagonalization with overlap
     ethr =  1.92E-08,  avg # of iterations =  2.0

     total cpu time spent up to now is        5.6 secs

     total energy              =    -329.48855312 Ry
     Harris-Foulkes estimate   =    -329.48855282 Ry
     estimated scf accuracy    <       0.00000071 Ry

     iteration #  5     ecut=    30.00 Ry     beta=0.70
     Davidson diagonalization with overlap
     ethr =  1.28E-09,  avg # of iterations =  3.0

     total cpu time spent up to now is        5.9 secs

     total energy              =    -329.48855346 Ry
     Harris-Foulkes estimate   =    -329.48855346 Ry
     estimated scf accuracy    <       0.00000042 Ry

     iteration #  6     ecut=    30.00 Ry     beta=0.70
     Davidson diagonalization with overlap
     ethr =  7.69E-10,  avg # of iterations =  2.0

     total cpu time spent up to now is        6.2 secs

     total energy              =    -329.48855361 Ry
     Harris-Foulkes estimate   =    -329.48855355 Ry
     estimated scf accuracy    <       0.00000003 Ry

     iteration #  7     ecut=    30.00 Ry     beta=0.70
     Davidson diagonalization with overlap
     ethr =  5.36E-11,  avg # of iterations =  3.0

     total cpu time spent up to now is        6.5 secs

     End of self-consistent calculation

          k = 0.0000 0.0000 0.0000 ( 22119 PWs)   bands (ev):

    -8.3934  -7.7221  -7.6243  -7.1870  -7.0082  -6.7540  -6.7129  -6.4520
    -6.2695  -6.0567  -5.9830  -5.7438  -5.7044  -5.6670  -5.4251  -5.3399
    -5.3192  -5.2323  -5.1838  -5.1777  -5.1597  -5.1377  -4.9891  -4.9182
    -4.8644  -4.6384  -4.4180  -3.7875  -2.5298  -2.1280  -0.5158  -0.1860
     0.5664   0.7617

     the Fermi energy is    -3.7676 ev

!    total energy              =    -329.48855365 Ry
     Harris-Foulkes estimate   =    -329.48855362 Ry
     estimated scf accuracy    <          7.2E-09 Ry

     The total energy is the sum of the following terms:

     one-electron contribution =    -607.54320437 Ry
     hartree contribution      =     325.23820382 Ry
     xc contribution           =     -51.40892872 Ry
     ewald contribution        =       4.22690257 Ry
     smearing contrib. (-TS)   =      -0.00152695 Ry

     convergence has been achieved in   7 iterations

     Forces acting on atoms (Ry/au):

     atom    1 type  1   force =    -0.00375989   -0.00520730   -0.00709198
     atom    2 type  1   force =     0.00100348    0.00083298   -0.00153056
     atom    3 type  1   force =    -0.00019233    0.00859323    0.00957731
     atom    4 type  1   force =    -0.00026428   -0.00062002    0.00189925
     atom    5 type  1   force =     0.00321302   -0.00359890   -0.00285402

     Total force =     0.017224     Total SCF correction =     0.000369

     number of scf cycles    =   2
     number of bfgs steps    =   1

     energy   old            =    -329.4881976858 Ry
     energy   new            =    -329.4885536480 Ry

     CASE: energy  _new < energy  _old


     WARNING: bfgs curvature condition failed, Theta= 0.914
     new trust radius        =       0.0155536013 bohr
     new conv_thr            =       0.0000000004 Ry


ATOMIC_POSITIONS (bohr)
Au      -1.853870468   1.468211964  -0.501735582
Au      -0.963625663   4.064441246   3.791056683
Au       2.988854865   1.020488879   0.837067872
Au       4.010460173   4.425751406   4.939966784
Au       7.568465093   1.352177506   2.974030243



     Writing output data file pwscf.save
     Check: negative starting charge=   -0.006352
     NEW-OLD atomic charge density approx. for the potential
     Check: negative starting charge=   -0.006359

     negative rho (up, down):  1.844E-05 0.000E+00

     total cpu time spent up to now is        6.7 secs

     per-process dynamical memory:    50.5 Mb

     Self-consistent Calculation

     iteration #  1     ecut=    30.00 Ry     beta=0.70
     Davidson diagonalization with overlap
     ethr =  1.00E-06,  avg # of iterations =  4.0

     Threshold (ethr) on eigenvalues was too large:
     Diagonalizing with lowered threshold

     Davidson diagonalization with overlap
     ethr =  7.39E-08,  avg # of iterations =  1.0

     negative rho (up, down):  2.535E-08 0.000E+00

     total cpu time spent up to now is        7.3 secs

     total energy              =    -329.48887422 Ry
     Harris-Foulkes estimate   =    -329.48888881 Ry
     estimated scf accuracy    <       0.00004122 Ry

     iteration #  2     ecut=    30.00 Ry     beta=0.70
     Davidson diagonalization with overlap
     ethr =  7.49E-08,  avg # of iterations =  3.0

     total cpu time spent up to now is        7.5 secs

     total energy              =    -329.48886633 Ry
     Harris-Foulkes estimate   =    -329.48891173 Ry
     estimated scf accuracy    <       0.00011510 Ry

     iteration #  3     ecut=    30.00 Ry     beta=0.70
     Davidson diagonalization with overlap
     ethr =  7.49E-08,  avg # of iterations =  2.0

     total cpu time spent up to now is        7.8 secs

     total energy              =    -329.48888965 Ry
     Harris-Foulkes estimate   =    -329.48889315 Ry
     estimated scf accuracy    <       0.00001313 Ry

     iteration #  4     ecut=    30.00 Ry     beta=0.70
     Davidson diagonalization with overlap
     ethr =  2.39E-08,  avg # of iterations =  2.0

     total cpu time spent up to now is        8.0 secs

     total energy              =    -329.48889234 Ry
     Harris-Foulkes estimate   =    -329.48889210 Ry
     estimated scf accuracy    <       0.00000077 Ry

     iteration #  5     ecut=    30.00 Ry     beta=0.70
     Davidson diagonalization with overlap
     ethr =  1.40E-09,  avg # of iterations =  3.0

     total cpu time spent up to now is        8.3 secs

     total energy              =    -329.48889235 Ry
     Harris-Foulkes estimate   =    -329.48889274 Ry
     estimated scf accuracy    <       0.00000060 Ry

     iteration #  6     ecut=    30.00 Ry     beta=0.70
     Davidson diagonalization with overlap
     ethr =  1.10E-09,  avg # of iterations =  2.0

     total cpu time spent up to now is        8.5 secs

     total energy              =    -329.48889240 Ry
     Harris-Foulkes estimate   =    -329.48889247 Ry
     estimated scf accuracy    <       0.00000004 Ry

     iteration #  7     ecut=    30.00 Ry     beta=0.70
     Davidson diagonalization with overlap
     ethr =  6.59E-11,  avg # of iterations =  2.0

     total cpu time spent up to now is        8.7 secs

     total energy              =    -329.48889245 Ry
     Harris-Foulkes estimate   =    -329.48889241 Ry
     estimated scf accuracy    <          6.6E-09 Ry

     iteration #  8     ecut=    30.00 Ry     beta=0.70
     Davidson diagonalization with overlap
     ethr =  1.21E-11,  avg # of iterations =  2.0

     total cpu time spent up to now is        9.0 secs

     total energy              =    -329.48889258 Ry
     Harris-Foulkes estimate   =    -329.48889245 Ry
     estimated scf accuracy    <          1.3E-09 Ry

     iteration #  9     ecut=    30.00 Ry     beta=0.70
     Davidson diagonalization with overlap
     ethr =  2.29E-12,  avg # of iterations =  2.0

     total cpu time spent up to now is        9.2 secs

     End of self-consistent calculation

          k = 0.0000 0.0000 0.0000 ( 22119 PWs)   bands (ev):

    -8.3981  -7.7207  -7.6226  -7.1919  -7.0035  -6.7548  -6.6995  -6.4494
    -6.2738  -6.0463  -5.9847  -5.7461  -5.7050  -5.6687  -5.4243  -5.3403
    -5.3268  -5.2299  -5.1864  -5.1798  -5.1615  -5.1367  -4.9909  -4.9198
    -4.8666  -4.6405  -4.4231  -3.7876  -2.5297  -2.1313  -0.5164  -0.1839
     0.5642   0.7621

     the Fermi energy is    -3.7668 ev

!    total energy              =    -329.48889253 Ry
     Harris-Foulkes estimate   =    -329.48889258 Ry
     estimated scf accuracy    <          3.3E-10 Ry

     The total energy is the sum of the following terms:

     one-electron contribution =    -607.44062981 Ry
     hartree contribution      =     325.18507190 Ry
     xc contribution           =     -51.40748618 Ry
     ewald contribution        =       4.17586671 Ry
     smearing contrib. (-TS)   =      -0.00171515 Ry

     convergence has been achieved in   9 iterations

     Forces acting on atoms (Ry/au):

     atom    1 type  1   force =    -0.00248085   -0.00482715   -0.00576746
     atom    2 type  1   force =     0.00083676    0.00037439   -0.00233341
     atom    3 type  1   force =    -0.00167347    0.00817537    0.00826272
     atom    4 type  1   force =     0.00025661   -0.00065040    0.00210223
     atom    5 type  1   force =     0.00306094   -0.00307221   -0.00226408

     Total force =     0.015354     Total SCF correction =     0.000064

     number of scf cycles    =   3
     number of bfgs steps    =   2

     energy   old            =    -329.4885536480 Ry
     energy   new            =    -329.4888925305 Ry

     CASE: energy  _new < energy  _old

     new trust radius        =       0.0233304020 bohr
     new conv_thr            =       0.0000000003 Ry


ATOMIC_POSITIONS (bohr)
Au      -1.859833631   1.458648047  -0.513976732
Au      -0.961848432   4.065608160   3.787363591
Au       2.987108232   1.036414311   0.854027752
Au       4.010474721   4.424552096   4.943820797
Au       7.574383110   1.345848387   2.969150591



     Writing output data file pwscf.save
     Check: negative starting charge=   -0.006359
     NEW-OLD atomic charge density approx. for the potential
     Check: negative starting charge=   -0.006367

     negative rho (up, down):  6.633E-05 0.000E+00

     total cpu time spent up to now is        9.5 secs

     per-process dynamical memory:    50.5 Mb

     Self-consistent Calculation

     iteration #  1     ecut=    30.00 Ry     beta=0.70
     Davidson diagonalization with overlap
     ethr =  1.00E-06,  avg # of iterations =  4.0

     negative rho (up, down):  3.295E-07 0.000E+00

     total cpu time spent up to now is       10.0 secs

     total energy              =    -329.48928979 Ry
     Harris-Foulkes estimate   =    -329.48931213 Ry
     estimated scf accuracy    <       0.00008337 Ry

     iteration #  2     ecut=    30.00 Ry     beta=0.70
     Davidson diagonalization with overlap
     ethr =  1.52E-07,  avg # of iterations =  3.0

     negative rho (up, down):  4.906E-08 0.000E+00

     total cpu time spent up to now is       10.3 secs

     total energy              =    -329.48927900 Ry
     Harris-Foulkes estimate   =    -329.48935808 Ry
     estimated scf accuracy    <       0.00019283 Ry

     iteration #  3     ecut=    30.00 Ry     beta=0.70
     Davidson diagonalization with overlap
     ethr =  1.52E-07,  avg # of iterations =  2.0

     total cpu time spent up to now is       10.5 secs

     total energy              =    -329.48931876 Ry
     Harris-Foulkes estimate   =    -329.48932861 Ry
     estimated scf accuracy    <       0.00003187 Ry

     iteration #  4     ecut=    30.00 Ry     beta=0.70
     Davidson diagonalization with overlap
     ethr =  5.79E-08,  avg # of iterations =  2.0

     total cpu time spent up to now is       10.7 secs

     total energy              =    -329.48932450 Ry
     Harris-Foulkes estimate   =    -329.48932459 Ry
     estimated scf accuracy    <       0.00000166 Ry

     iteration #  5     ecut=    30.00 Ry     beta=0.70
     Davidson diagonalization with overlap
     ethr =  3.01E-09,  avg # of iterations =  3.0

     total cpu time spent up to now is       11.2 secs

     total energy              =    -329.48932479 Ry
     Harris-Foulkes estimate   =    -329.48932536 Ry
     estimated scf accuracy    <       0.00000122 Ry

     iteration #  6     ecut=    30.00 Ry     beta=0.70
     Davidson diagonalization with overlap
     ethr =  2.22E-09,  avg # of iterations =  2.0

     total cpu time spent up to now is       11.5 secs

     total energy              =    -329.48932503 Ry
     Harris-Foulkes estimate   =    -329.48932504 Ry
     estimated scf accuracy    <       0.00000008 Ry

     iteration #  7     ecut=    30.00 Ry     beta=0.70
     Davidson diagonalization with overlap
     ethr =  1.54E-10,  avg # of iterations =  2.0

     total cpu time spent up to now is       11.7 secs

     total energy              =    -329.48932493 Ry
     Harris-Foulkes estimate   =    -329.48932505 Ry
     estimated scf accuracy    <       0.00000001 Ry

     iteration #  8     ecut=    30.00 Ry     beta=0.70
     Davidson diagonalization with overlap
     ethr =  2.69E-11,  avg # of iterations =  2.0

     total cpu time spent up to now is       12.0 secs

     total energy              =    -329.48932494 Ry
     Harris-Foulkes estimate   =    -329.48932493 Ry
     estimated scf accuracy    <          2.9E-09 Ry

     iteration #  9     ecut=    30.00 Ry     beta=0.70
     Davidson diagonalization with overlap
     ethr =  5.34E-12,  avg # of iterations =  2.0

     total cpu time spent up to now is       12.3 secs

     total energy              =    -329.48932498 Ry
     Harris-Foulkes estimate   =    -329.48932494 Ry
     estimated scf accuracy    <          7.0E-10 Ry

     iteration # 10     ecut=    30.00 Ry     beta=0.70
     Davidson diagonalization with overlap
     ethr =  1.27E-12,  avg # of iterations =  2.0

     total cpu time spent up to now is       12.5 secs

     End of self-consistent calculation

          k = 0.0000 0.0000 0.0000 ( 22119 PWs)   bands (ev):

    -8.4063  -7.7210  -7.6223  -7.2000  -6.9956  -6.7577  -6.6813  -6.4479
    -6.2795  -6.0325  -5.9883  -5.7487  -5.7058  -5.6717  -5.4228  -5.3467
    -5.3329  -5.2266  -5.1908  -5.1824  -5.1636  -5.1352  -4.9936  -4.9220
    -4.8696  -4.6439  -4.4307  -3.7872  -2.5294  -2.1360  -0.5177  -0.1807
     0.5611   0.7625

     the Fermi energy is    -3.7649 ev

!    total energy              =    -329.48932498 Ry
     Harris-Foulkes estimate   =    -329.48932498 Ry
     estimated scf accuracy    <          7.8E-11 Ry

     The total energy is the sum of the following terms:

     one-electron contribution =    -607.35494181 Ry
     hartree contribution      =     325.13912145 Ry
     xc contribution           =     -51.40560566 Ry
     ewald contribution        =       4.13412084 Ry
     smearing contrib. (-TS)   =      -0.00201981 Ry

     convergence has been achieved in  10 iterations

     Forces acting on atoms (Ry/au):

     atom    1 type  1   force =    -0.00095071   -0.00422476   -0.00406656
     atom    2 type  1   force =     0.00063903   -0.00010987   -0.00323455
     atom    3 type  1   force =    -0.00323423    0.00732154    0.00650950
     atom    4 type  1   force =     0.00091473   -0.00063447    0.00240561
     atom    5 type  1   force =     0.00263118   -0.00235244   -0.00161400

     Total force =     0.013217     Total SCF correction =     0.000039

     number of scf cycles    =   4
     number of bfgs steps    =   3

     energy   old            =    -329.4888925305 Ry
     energy   new            =    -329.4893249801 Ry

     CASE: energy  _new < energy  _old

     new trust radius        =       0.0349956030 bohr
     new conv_thr            =       0.0000000004 Ry


ATOMIC_POSITIONS (bohr)
Au      -1.867207611   1.444170949  -0.531169499
Au      -0.959272207   4.066798251   3.780128565
Au       2.982084534   1.060705027   0.878714101
Au       4.011462986   4.422659069   4.950477216
Au       7.583216298   1.336737705   2.962235617



     Writing output data file pwscf.save
     Check: negative starting charge=   -0.006367
     NEW-OLD atomic charge density approx. for the potential
     Check: negative starting charge=   -0.006375

     negative rho (up, down):  1.875E-04 0.000E+00

     total cpu time spent up to now is       12.8 secs

     per-process dynamical memory:    50.6 Mb

     Self-consistent Calculation

     iteration #  1     ecut=    30.00 Ry     beta=0.70
     Davidson diagonalization with overlap
     ethr =  1.00E-06,  avg # of iterations =  4.0

     negative rho (up, down):  2.886E-06 0.000E+00

     total cpu time spent up to now is       13.4 secs

     total energy              =    -329.48976371 Ry
     Harris-Foulkes estimate   =    -329.48979035 Ry
     estimated scf accuracy    <       0.00017509 Ry

     iteration #  2     ecut=    30.00 Ry     beta=0.70
     Davidson diagonalization with overlap
     ethr =  3.18E-07,  avg # of iterations =  3.0

     negative rho (up, down):  4.937E-07 0.000E+00

     total cpu time spent up to now is       13.6 secs

     total energy              =    -329.48974667 Ry
     Harris-Foulkes estimate   =    -329.48989845 Ry
     estimated scf accuracy    <       0.00035711 Ry

     iteration #  3     ecut=    30.00 Ry     beta=0.70
     Davidson diagonalization with overlap
     ethr =  3.18E-07,  avg # of iterations =  2.0

     total cpu time spent up to now is       13.9 secs

     total energy              =    -329.48982144 Ry
     Harris-Foulkes estimate   =    -329.48984408 Ry
     estimated scf accuracy    <       0.00007110 Ry

     iteration #  4     ecut=    30.00 Ry     beta=0.70
     Davidson diagonalization with overlap
     ethr =  1.29E-07,  avg # of iterations =  2.0

     total cpu time spent up to now is       14.1 secs

     total energy              =    -329.48983428 Ry
     Harris-Foulkes estimate   =    -329.48983456 Ry
     estimated scf accuracy    <       0.00000369 Ry

     iteration #  5     ecut=    30.00 Ry     beta=0.70
     Davidson diagonalization with overlap
     ethr =  6.71E-09,  avg # of iterations =  3.0

     total cpu time spent up to now is       14.4 secs

     total energy              =    -329.48983476 Ry
     Harris-Foulkes estimate   =    -329.48983614 Ry
     estimated scf accuracy    <       0.00000271 Ry

     iteration #  6     ecut=    30.00 Ry     beta=0.70
     Davidson diagonalization with overlap
     ethr =  4.93E-09,  avg # of iterations =  2.0

     total cpu time spent up to now is       14.8 secs

     total energy              =    -329.48983530 Ry
     Harris-Foulkes estimate   =    -329.48983530 Ry
     estimated scf accuracy    <       0.00000017 Ry

     iteration #  7     ecut=    30.00 Ry     beta=0.70
     Davidson diagonalization with overlap
     ethr =  3.13E-10,  avg # of iterations =  3.0

     total cpu time spent up to now is       15.1 secs

     total energy              =    -329.48983528 Ry
     Harris-Foulkes estimate   =    -329.48983535 Ry
     estimated scf accuracy    <       0.00000003 Ry

     iteration #  8     ecut=    30.00 Ry     beta=0.70
     Davidson diagonalization with overlap
     ethr =  6.04E-11,  avg # of iterations =  2.0

     total cpu time spent up to now is       15.3 secs

     total energy              =    -329.48983539 Ry
     Harris-Foulkes estimate   =    -329.48983529 Ry
     estimated scf accuracy    <          6.8E-09 Ry

     iteration #  9     ecut=    30.00 Ry     beta=0.70
     Davidson diagonalization with overlap
     ethr =  1.24E-11,  avg # of iterations =  2.0

     total cpu time spent up to now is       15.6 secs

     total energy              =    -329.48983538 Ry
     Harris-Foulkes estimate   =    -329.48983539 Ry
     estimated scf accuracy    <          1.3E-09 Ry

     iteration # 10     ecut=    30.00 Ry     beta=0.70
     Davidson diagonalization with overlap
     ethr =  2.39E-12,  avg # of iterations =  2.0

     total cpu time spent up to now is       15.8 secs

     End of self-consistent calculation

          k = 0.0000 0.0000 0.0000 ( 22119 PWs)   bands (ev):

    -8.4195  -7.7238  -7.6256  -7.2121  -6.9822  -6.7632  -6.6570  -6.4495
    -6.2864  -6.0144  -5.9953  -5.7512  -5.7068  -5.6764  -5.4195  -5.3649
    -5.3328  -5.2227  -5.1977  -5.1853  -5.1655  -5.1330  -4.9973  -4.9249
    -4.8729  -4.6493  -4.4420  -3.7859  -2.5287  -2.1426  -0.5198  -0.1755
     0.5571   0.7629

     the Fermi energy is    -3.7615 ev

!    total energy              =    -329.48983538 Ry
     Harris-Foulkes estimate   =    -329.48983538 Ry
     estimated scf accuracy    <          1.4E-10 Ry

     The total energy is the sum of the following terms:

     one-electron contribution =    -607.30633225 Ry
     hartree contribution      =     325.10964484 Ry
     xc contribution           =     -51.40321619 Ry
     ewald contribution        =       4.11255459 Ry
     smearing contrib. (-TS)   =      -0.00248636 Ry

     convergence has been achieved in  10 iterations

     Forces acting on atoms (Ry/au):

     atom    1 type  1   force =     0.00095969   -0.00318288   -0.00184382
     atom    2 type  1   force =     0.00032328   -0.00060338   -0.00420823
     atom    3 type  1   force =    -0.00467799    0.00577939    0.00413950
     atom    4 type  1   force =     0.00164724   -0.00053689    0.00286468
     atom    5 type  1   force =     0.00174779   -0.00145623   -0.00095213

     Total force =     0.011061     Total SCF correction =     0.000051

     number of scf cycles    =   5
     number of bfgs steps    =   4

     energy   old            =    -329.4893249801 Ry
     energy   new            =    -329.4898353767 Ry

     CASE: energy  _new < energy  _old

     new trust radius        =       0.0524934045 bohr
     new conv_thr            =       0.0000000005 Ry


ATOMIC_POSITIONS (bohr)
Au      -1.875752566   1.422484690  -0.555144045
Au      -0.955643392   4.067861555   3.766546038
Au       2.971317298   1.097438295   0.914634723
Au       4.014424831   4.419764257   4.962218081
Au       7.595937829   1.323522202   2.952131203



     Writing output data file pwscf.save
     Check: negative starting charge=   -0.006375
     NEW-OLD atomic charge density approx. for the potential
     Check: negative starting charge=   -0.006378

     negative rho (up, down):  4.500E-04 0.000E+00

     total cpu time spent up to now is       16.1 secs

     per-process dynamical memory:    50.7 Mb

     Self-consistent Calculation

     iteration #  1     ecut=    30.00 Ry     beta=0.70
     Davidson diagonalization with overlap
     ethr =  1.00E-06,  avg # of iterations =  5.0

     negative rho (up, down):  1.634E-05 0.000E+00

     total cpu time spent up to now is       16.9 secs

     total energy              =    -329.49017945 Ry
     Harris-Foulkes estimate   =    -329.49011714 Ry
     estimated scf accuracy    <       0.00036719 Ry

     iteration #  2     ecut=    30.00 Ry     beta=0.70
     Davidson diagonalization with overlap
     ethr =  6.68E-07,  avg # of iterations =  6.0

     negative rho (up, down):  3.857E-06 0.000E+00

     total cpu time spent up to now is       17.3 secs

     total energy              =    -329.49016030 Ry
     Harris-Foulkes estimate   =    -329.49044216 Ry
     estimated scf accuracy    <       0.00063838 Ry

     iteration #  3     ecut=    30.00 Ry     beta=0.70
     Davidson diagonalization with overlap
     ethr =  6.68E-07,  avg # of iterations =  2.0

     negative rho (up, down):  1.067E-07 0.000E+00

     total cpu time spent up to now is       17.6 secs

     total energy              =    -329.49029667 Ry
     Harris-Foulkes estimate   =    -329.49034617 Ry
     estimated scf accuracy    <       0.00015387 Ry

     iteration #  4     ecut=    30.00 Ry     beta=0.70
     Davidson diagonalization with overlap
     ethr =  2.80E-07,  avg # of iterations =  2.0

     total cpu time spent up to now is       17.8 secs

     total energy              =    -329.49032345 Ry
     Harris-Foulkes estimate   =    -329.49032570 Ry
     estimated scf accuracy    <       0.00000800 Ry

     iteration #  5     ecut=    30.00 Ry     beta=0.70
     Davidson diagonalization with overlap
     ethr =  1.45E-08,  avg # of iterations =  3.0

     total cpu time spent up to now is       18.0 secs

     total energy              =    -329.49032554 Ry
     Harris-Foulkes estimate   =    -329.49032738 Ry
     estimated scf accuracy    <       0.00000589 Ry

     iteration #  6     ecut=    30.00 Ry     beta=0.70
     Davidson diagonalization with overlap
     ethr =  1.07E-08,  avg # of iterations =  2.0

     total cpu time spent up to now is       18.2 secs

     total energy              =    -329.49032661 Ry
     Harris-Foulkes estimate   =    -329.49032669 Ry
     estimated scf accuracy    <       0.00000033 Ry

     iteration #  7     ecut=    30.00 Ry     beta=0.70
     Davidson diagonalization with overlap
     ethr =  6.04E-10,  avg # of iterations =  3.0

     total cpu time spent up to now is       18.5 secs

     total energy              =    -329.49032668 Ry
     Harris-Foulkes estimate   =    -329.49032670 Ry
     estimated scf accuracy    <       0.00000007 Ry

     iteration #  8     ecut=    30.00 Ry     beta=0.70
     Davidson diagonalization with overlap
     ethr =  1.24E-10,  avg # of iterations =  2.0

     total cpu time spent up to now is       18.8 secs

     total energy              =    -329.49032673 Ry
     Harris-Foulkes estimate   =    -329.49032670 Ry
     estimated scf accuracy    <       0.00000001 Ry

     iteration #  9     ecut=    30.00 Ry     beta=0.70
     Davidson diagonalization with overlap
     ethr =  2.61E-11,  avg # of iterations =  2.0

     total cpu time spent up to now is       19.1 secs

     total energy              =    -329.49032669 Ry
     Harris-Foulkes estimate   =    -329.49032674 Ry
     estimated scf accuracy    <          2.8E-09 Ry

     iteration # 10     ecut=    30.00 Ry     beta=0.70
     Davidson diagonalization with overlap
     ethr =  5.05E-12,  avg # of iterations =  2.0

     total cpu time spent up to now is       19.3 secs

     End of self-consistent calculation

          k = 0.0000 0.0000 0.0000 ( 22119 PWs)   bands (ev):

    -8.4400  -7.7319  -7.6376  -7.2275  -6.9598  -6.7722  -6.6256  -6.4589
    -6.2929  -6.0123  -5.9873  -5.7531  -5.7082  -5.6829  -5.4128  -5.3928
    -5.3301  -5.2200  -5.2075  -5.1877  -5.1663  -5.1292  -5.0018  -4.9294
    -4.8741  -4.6578  -4.4582  -3.7835  -2.5266  -2.1521  -0.5233  -0.1672
     0.5520   0.7636

     the Fermi energy is    -3.7559 ev

!    total energy              =    -329.49032668 Ry
     Harris-Foulkes estimate   =    -329.49032669 Ry
     estimated scf accuracy    <          2.9E-10 Ry

     The total energy is the sum of the following terms:

     one-electron contribution =    -607.34567275 Ry
     hartree contribution      =     325.12148097 Ry
     xc contribution           =     -51.40040674 Ry
     ewald contribution        =       4.13743076 Ry
     smearing contrib. (-TS)   =      -0.00315891 Ry

     convergence has been achieved in  10 iterations

     Forces acting on atoms (Ry/au):

     atom    1 type  1   force =     0.00316061   -0.00155932    0.00075157
     atom    2 type  1   force =    -0.00026186   -0.00089052   -0.00502934
     atom    3 type  1   force =    -0.00535349    0.00295317    0.00093039
     atom    4 type  1   force =     0.00234675   -0.00017040    0.00362177
     atom    5 type  1   force =     0.00010799   -0.00033292   -0.00027439

     Total force =     0.009810     Total SCF correction =     0.000078

     number of scf cycles    =   6
     number of bfgs steps    =   5

     energy   old            =    -329.4898353767 Ry
     energy   new            =    -329.4903266761 Ry

     CASE: energy  _new < energy  _old

     new trust radius        =       0.0517242304 bohr
     new conv_thr            =       0.0000000005 Ry


ATOMIC_POSITIONS (bohr)
Au      -1.880265394   1.401127361  -0.576545408
Au      -0.952744563   4.068231979   3.748668990
Au       2.956652240   1.133594384   0.948591598
Au       4.019647663   4.417170093   4.977509505
Au       7.606994053   1.310947183   2.942161314



     Writing output data file pwscf.save
     Check: negative starting charge=   -0.006378
     NEW-OLD atomic charge density approx. for the potential
     Check: negative starting charge=   -0.006386

     negative rho (up, down):  4.520E-04 0.000E+00

     total cpu time spent up to now is       19.6 secs

     per-process dynamical memory:    50.7 Mb

     Self-consistent Calculation

     iteration #  1     ecut=    30.00 Ry     beta=0.70
     Davidson diagonalization with overlap
     ethr =  1.00E-06,  avg # of iterations =  5.0

     negative rho (up, down):  1.707E-05 0.000E+00

     total cpu time spent up to now is       20.0 secs

     total energy              =    -329.49045116 Ry
     Harris-Foulkes estimate   =    -329.49036434 Ry
     estimated scf accuracy    <       0.00033252 Ry

     iteration #  2     ecut=    30.00 Ry     beta=0.70
     Davidson diagonalization with overlap
     ethr =  6.05E-07,  avg # of iterations =  4.0

     negative rho (up, down):  3.399E-06 0.000E+00

     total cpu time spent up to now is       20.3 secs

     total energy              =    -329.49045726 Ry
     Harris-Foulkes estimate   =    -329.49066087 Ry
     estimated scf accuracy    <       0.00043738 Ry

     iteration #  3     ecut=    30.00 Ry     beta=0.70
     Davidson diagonalization with overlap
     ethr =  6.05E-07,  avg # of iterations =  2.0

     negative rho (up, down):  1.065E-07 0.000E+00

     total cpu time spent up to now is       20.6 secs

     total energy              =    -329.49055115 Ry
     Harris-Foulkes estimate   =    -329.49059798 Ry
     estimated scf accuracy    <       0.00013876 Ry

     iteration #  4     ecut=    30.00 Ry     beta=0.70
     Davidson diagonalization with overlap
     ethr =  2.52E-07,  avg # of iterations =  2.0

     total cpu time spent up to now is       20.9 secs

     total energy              =    -329.49057660 Ry
     Harris-Foulkes estimate   =    -329.49057881 Ry
     estimated scf accuracy    <       0.00000833 Ry

     iteration #  5     ecut=    30.00 Ry     beta=0.70
     Davidson diagonalization with overlap
     ethr =  1.52E-08,  avg # of iterations =  3.0

     total cpu time spent up to now is       21.1 secs

     total energy              =    -329.49057839 Ry
     Harris-Foulkes estimate   =    -329.49058018 Ry
     estimated scf accuracy    <       0.00000501 Ry

     iteration #  6     ecut=    30.00 Ry     beta=0.70
     Davidson diagonalization with overlap
     ethr =  9.10E-09,  avg # of iterations =  2.0

     total cpu time spent up to now is       21.3 secs

     total energy              =    -329.49057916 Ry
     Harris-Foulkes estimate   =    -329.49057937 Ry
     estimated scf accuracy    <       0.00000027 Ry

     iteration #  7     ecut=    30.00 Ry     beta=0.70
     Davidson diagonalization with overlap
     ethr =  4.83E-10,  avg # of iterations =  3.0

     total cpu time spent up to now is       21.6 secs

     total energy              =    -329.49057939 Ry
     Harris-Foulkes estimate   =    -329.49057923 Ry
     estimated scf accuracy    <       0.00000006 Ry

     iteration #  8     ecut=    30.00 Ry     beta=0.70
     Davidson diagonalization with overlap
     ethr =  1.04E-10,  avg # of iterations =  2.0

     total cpu time spent up to now is       21.8 secs

     total energy              =    -329.49057947 Ry
     Harris-Foulkes estimate   =    -329.49057941 Ry
     estimated scf accuracy    <       0.00000001 Ry

     iteration #  9     ecut=    30.00 Ry     beta=0.70
     Davidson diagonalization with overlap
     ethr =  2.42E-11,  avg # of iterations =  2.0

     total cpu time spent up to now is       22.1 secs

     total energy              =    -329.49057948 Ry
     Harris-Foulkes estimate   =    -329.49057947 Ry
     estimated scf accuracy    <          2.3E-09 Ry

     iteration # 10     ecut=    30.00 Ry     beta=0.70
     Davidson diagonalization with overlap
     ethr =  4.16E-12,  avg # of iterations =  2.0

     total cpu time spent up to now is       22.3 secs

     End of self-consistent calculation

          k = 0.0000 0.0000 0.0000 ( 22119 PWs)   bands (ev):

    -8.4614  -7.7447  -7.6551  -7.2371  -6.9354  -6.7813  -6.6018  -6.4749
    -6.2947  -6.0304  -5.9672  -5.7536  -5.7101  -5.6877  -5.4191  -5.4033
    -5.3263  -5.2249  -5.2119  -5.1878  -5.1656  -5.1253  -5.0045  -4.9343
    -4.8700  -4.6670  -4.4730  -3.7801  -2.5227  -2.1615  -0.5271  -0.1584
     0.5483   0.7649

     the Fermi energy is    -3.7498 ev

!    total energy              =    -329.49057949 Ry
     Harris-Foulkes estimate   =    -329.49057949 Ry
     estimated scf accuracy    <          3.0E-10 Ry

     The total energy is the sum of the following terms:

     one-electron contribution =    -607.50716921 Ry
     hartree contribution      =     325.19483969 Ry
     xc contribution           =     -51.39858510 Ry
     ewald contribution        =       4.22411429 Ry
     smearing contrib. (-TS)   =      -0.00377916 Ry

     convergence has been achieved in  10 iterations

     Forces acting on atoms (Ry/au):

     atom    1 type  1   force =     0.00388536   -0.00054451    0.00197652
     atom    2 type  1   force =    -0.00040630   -0.00051884   -0.00521084
     atom    3 type  1   force =    -0.00479959   -0.00007955   -0.00096002
     atom    4 type  1   force =     0.00287200    0.00043748    0.00412199
     atom    5 type  1   force =    -0.00155147    0.00070540    0.00007234

     Total force =     0.009959     Total SCF correction =     0.000087

     number of scf cycles    =   7
     number of bfgs steps    =   6

     energy   old            =    -329.4903266761 Ry
     energy   new            =    -329.4905794863 Ry

     CASE: energy  _new < energy  _old

     new trust radius        =       0.0293553102 bohr
     new conv_thr            =       0.0000000003 Ry


ATOMIC_POSITIONS (bohr)
Au      -1.879328211   1.388570064  -0.587053221
Au      -0.951465525   4.068405200   3.733466349
Au       2.944575456   1.153013210   0.966997975
Au       4.025523814   4.416460392   4.990691343
Au       7.610978466   1.304622134   2.936283554



     Writing output data file pwscf.save
     Check: negative starting charge=   -0.006386
     NEW-OLD atomic charge density approx. for the potential
     Check: negative starting charge=   -0.006397

     negative rho (up, down):  1.501E-04 0.000E+00

     total cpu time spent up to now is       22.6 secs

     per-process dynamical memory:    50.7 Mb

     Self-consistent Calculation

     iteration #  1     ecut=    30.00 Ry     beta=0.70
     Davidson diagonalization with overlap
     ethr =  1.00E-06,  avg # of iterations =  4.0

     negative rho (up, down):  2.082E-06 0.000E+00

     total cpu time spent up to now is       23.2 secs

     total energy              =    -329.49067443 Ry
     Harris-Foulkes estimate   =    -329.49067803 Ry
     estimated scf accuracy    <       0.00010751 Ry

     iteration #  2     ecut=    30.00 Ry     beta=0.70
     Davidson diagonalization with overlap
     ethr =  1.95E-07,  avg # of iterations =  3.0

     negative rho (up, down):  1.204E-07 0.000E+00

     total cpu time spent up to now is       23.4 secs

     total energy              =    -329.49068763 Ry
     Harris-Foulkes estimate   =    -329.49072915 Ry
     estimated scf accuracy    <       0.00008307 Ry

     iteration #  3     ecut=    30.00 Ry     beta=0.70
     Davidson diagonalization with overlap
     ethr =  1.51E-07,  avg # of iterations =  2.0

     total cpu time spent up to now is       23.6 secs

     total energy              =    -329.49070414 Ry
     Harris-Foulkes estimate   =    -329.49071631 Ry
     estimated scf accuracy    <       0.00003127 Ry

     iteration #  4     ecut=    30.00 Ry     beta=0.70
     Davidson diagonalization with overlap
     ethr =  5.69E-08,  avg # of iterations =  2.0

     total cpu time spent up to now is       23.9 secs

     total energy              =    -329.49071115 Ry
     Harris-Foulkes estimate   =    -329.49071219 Ry
     estimated scf accuracy    <       0.00000452 Ry

     iteration #  5     ecut=    30.00 Ry     beta=0.70
     Davidson diagonalization with overlap
     ethr =  8.22E-09,  avg # of iterations =  2.0

     total cpu time spent up to now is       24.1 secs

     total energy              =    -329.49071194 Ry
     Harris-Foulkes estimate   =    -329.49071228 Ry
     estimated scf accuracy    <       0.00000097 Ry

     iteration #  6     ecut=    30.00 Ry     beta=0.70
     Davidson diagonalization with overlap
     ethr =  1.76E-09,  avg # of iterations =  2.0

     total cpu time spent up to now is       24.3 secs

     total energy              =    -329.49071223 Ry
     Harris-Foulkes estimate   =    -329.49071215 Ry
     estimated scf accuracy    <       0.00000005 Ry

     iteration #  7     ecut=    30.00 Ry     beta=0.70
     Davidson diagonalization with overlap
     ethr =  9.24E-11,  avg # of iterations =  3.0

     total cpu time spent up to now is       24.6 secs

     total energy              =    -329.49071233 Ry
     Harris-Foulkes estimate   =    -329.49071225 Ry
     estimated scf accuracy    <       0.00000002 Ry

     iteration #  8     ecut=    30.00 Ry     beta=0.70
     Davidson diagonalization with overlap
     ethr =  3.64E-11,  avg # of iterations =  2.0

     total cpu time spent up to now is       24.8 secs

     total energy              =    -329.49071233 Ry
     Harris-Foulkes estimate   =    -329.49071234 Ry
     estimated scf accuracy    <          3.0E-09 Ry

     iteration #  9     ecut=    30.00 Ry     beta=0.70
     Davidson diagonalization with overlap
     ethr =  5.44E-12,  avg # of iterations =  2.0

     total cpu time spent up to now is       25.1 secs

     total energy              =    -329.49071233 Ry
     Harris-Foulkes estimate   =    -329.49071233 Ry
     estimated scf accuracy    <          5.7E-10 Ry

     iteration # 10     ecut=    30.00 Ry     beta=0.70
     Davidson diagonalization with overlap
     ethr =  1.04E-12,  avg # of iterations =  2.0

     total cpu time spent up to now is       25.3 secs

     End of self-consistent calculation

          k = 0.0000 0.0000 0.0000 ( 22119 PWs)   bands (ev):

    -8.4754  -7.7560  -7.6640  -7.2390  -6.9197  -6.7875  -6.5947  -6.4854
    -6.2937  -6.0434  -5.9593  -5.7540  -5.7121  -5.6893  -5.4328  -5.3969
    -5.3231  -5.2309  -5.2113  -5.1870  -5.1649  -5.1232  -5.0046  -4.9374
    -4.8648  -4.6734  -4.4805  -3.7771  -2.5186  -2.1674  -0.5293  -0.1533
     0.5467   0.7667

     the Fermi energy is    -3.7452 ev

!    total energy              =    -329.49071233 Ry
     Harris-Foulkes estimate   =    -329.49071233 Ry
     estimated scf accuracy    <          6.3E-11 Ry

     The total energy is the sum of the following terms:

     one-electron contribution =    -607.68649754 Ry
     hartree contribution      =     325.28046727 Ry
     xc contribution           =     -51.39817356 Ry
     ewald contribution        =       4.31762035 Ry
     smearing contrib. (-TS)   =      -0.00412885 Ry

     convergence has been achieved in  10 iterations

     Forces acting on atoms (Ry/au):

     atom    1 type  1   force =     0.00310399   -0.00033933    0.00196904
     atom    2 type  1   force =     0.00005919    0.00005402   -0.00479710
     atom    3 type  1   force =    -0.00349624   -0.00155565   -0.00128143
     atom    4 type  1   force =     0.00287108    0.00067658    0.00398149
     atom    5 type  1   force =    -0.00253802    0.00116439    0.00012800

     Total force =     0.009236     Total SCF correction =     0.000037

     number of scf cycles    =   8
     number of bfgs steps    =   7

     energy   old            =    -329.4905794863 Ry
     energy   new            =    -329.4907123344 Ry

     CASE: energy  _new < energy  _old

     new trust radius        =       0.0322908412 bohr
     new conv_thr            =       0.0000000001 Ry


ATOMIC_POSITIONS (bohr)
Au      -1.874995372   1.373816486  -0.596884903
Au      -0.949619987   4.069219764   3.710189803
Au       2.927539085   1.172264034   0.986539374
Au       4.035898720   4.416740916   5.011045953
Au       7.611461554   1.299029800   2.929495773



     Writing output data file pwscf.save
     Check: negative starting charge=   -0.006397
     NEW-OLD atomic charge density approx. for the potential
     Check: negative starting charge=   -0.006416

     negative rho (up, down):  2.409E-04 0.000E+00

     total cpu time spent up to now is       25.6 secs

     per-process dynamical memory:    50.7 Mb

     Self-consistent Calculation

     iteration #  1     ecut=    30.00 Ry     beta=0.70
     Davidson diagonalization with overlap
     ethr =  1.00E-06,  avg # of iterations =  4.0

     negative rho (up, down):  5.399E-06 0.000E+00

     total cpu time spent up to now is       26.0 secs

     total energy              =    -329.49082268 Ry
     Harris-Foulkes estimate   =    -329.49079814 Ry
     estimated scf accuracy    <       0.00015400 Ry

     iteration #  2     ecut=    30.00 Ry     beta=0.70
     Davidson diagonalization with overlap
     ethr =  2.80E-07,  avg # of iterations =  3.0

     negative rho (up, down):  3.110E-07 0.000E+00

     total cpu time spent up to now is       26.2 secs

     total energy              =    -329.49085172 Ry
     Harris-Foulkes estimate   =    -329.49089466 Ry
     estimated scf accuracy    <       0.00008803 Ry

     iteration #  3     ecut=    30.00 Ry     beta=0.70
     Davidson diagonalization with overlap
     ethr =  1.60E-07,  avg # of iterations =  2.0

     total cpu time spent up to now is       26.5 secs

     total energy              =    -329.49086905 Ry
     Harris-Foulkes estimate   =    -329.49087763 Ry
     estimated scf accuracy    <       0.00001858 Ry

     iteration #  4     ecut=    30.00 Ry     beta=0.70
     Davidson diagonalization with overlap
     ethr =  3.38E-08,  avg # of iterations =  2.0

     total cpu time spent up to now is       26.8 secs

     total energy              =    -329.49087373 Ry
     Harris-Foulkes estimate   =    -329.49087724 Ry
     estimated scf accuracy    <       0.00001131 Ry

     iteration #  5     ecut=    30.00 Ry     beta=0.70
     Davidson diagonalization with overlap
     ethr =  2.06E-08,  avg # of iterations =  2.0

     total cpu time spent up to now is       27.0 secs

     total energy              =    -329.49087552 Ry
     Harris-Foulkes estimate   =    -329.49087583 Ry
     estimated scf accuracy    <       0.00000064 Ry

     iteration #  6     ecut=    30.00 Ry     beta=0.70
     Davidson diagonalization with overlap
     ethr =  1.17E-09,  avg # of iterations =  3.0

     total cpu time spent up to now is       27.4 secs

     total energy              =    -329.49087575 Ry
     Harris-Foulkes estimate   =    -329.49087573 Ry
     estimated scf accuracy    <       0.00000008 Ry

     iteration #  7     ecut=    30.00 Ry     beta=0.70
     Davidson diagonalization with overlap
     ethr =  1.44E-10,  avg # of iterations =  2.0

     total cpu time spent up to now is       27.6 secs

     total energy              =    -329.49087573 Ry
     Harris-Foulkes estimate   =    -329.49087578 Ry
     estimated scf accuracy    <       0.00000001 Ry

     iteration #  8     ecut=    30.00 Ry     beta=0.70
     Davidson diagonalization with overlap
     ethr =  2.14E-11,  avg # of iterations =  2.0

     total cpu time spent up to now is       27.9 secs

     total energy              =    -329.49087572 Ry
     Harris-Foulkes estimate   =    -329.49087573 Ry
     estimated scf accuracy    <          2.4E-09 Ry

     iteration #  9     ecut=    30.00 Ry     beta=0.70
     Davidson diagonalization with overlap
     ethr =  4.32E-12,  avg # of iterations =  2.0

     total cpu time spent up to now is       28.1 secs

     total energy              =    -329.49087572 Ry
     Harris-Foulkes estimate   =    -329.49087573 Ry
     estimated scf accuracy    <          2.8E-10 Ry

     iteration # 10     ecut=    30.00 Ry     beta=0.70
     Davidson diagonalization with overlap
     ethr =  5.08E-13,  avg # of iterations =  3.0

     total cpu time spent up to now is       28.4 secs

     total energy              =    -329.49087572 Ry
     Harris-Foulkes estimate   =    -329.49087572 Ry
     estimated scf accuracy    <          1.5E-10 Ry

     iteration # 11     ecut=    30.00 Ry     beta=0.70
     Davidson diagonalization with overlap
     ethr =  2.79E-13,  avg # of iterations =  2.0

     total cpu time spent up to now is       28.6 secs

     End of self-consistent calculation

          k = 0.0000 0.0000 0.0000 ( 22119 PWs)   bands (ev):

    -8.4942  -7.7729  -7.6702  -7.2386  -6.9001  -6.7960  -6.5948  -6.4964
    -6.2911  -6.0600  -5.9549  -5.7553  -5.7159  -5.6904  -5.4475  -5.3882
    -5.3183  -5.2388  -5.2088  -5.1860  -5.1641  -5.1209  -5.0031  -4.9406
    -4.8563  -4.6818  -4.4874  -3.7722  -2.5115  -2.1748  -0.5318  -0.1476
     0.5451   0.7705

     the Fermi energy is    -3.7387 ev

!    total energy              =    -329.49087572 Ry
     Harris-Foulkes estimate   =    -329.49087572 Ry
     estimated scf accuracy    <          1.3E-11 Ry

     The total energy is the sum of the following terms:

     one-electron contribution =    -607.98481568 Ry
     hartree contribution      =     325.42526824 Ry
     xc contribution           =     -51.39845247 Ry
     ewald contribution        =       4.47163485 Ry
     smearing contrib. (-TS)   =      -0.00451065 Ry

     convergence has been achieved in  11 iterations

     Forces acting on atoms (Ry/au):

     atom    1 type  1   force =     0.00108034   -0.00032293    0.00141397
     atom    2 type  1   force =     0.00113501    0.00103930   -0.00369114
     atom    3 type  1   force =    -0.00113481   -0.00290338   -0.00117707
     atom    4 type  1   force =     0.00244445    0.00071331    0.00330645
     atom    5 type  1   force =    -0.00352500    0.00147371    0.00014778

     Total force =     0.007900     Total SCF correction =     0.000017

     number of scf cycles    =   9
     number of bfgs steps    =   8

     energy   old            =    -329.4907123344 Ry
     energy   new            =    -329.4908757240 Ry

     CASE: energy  _new < energy  _old

     new trust radius        =       0.0282939465 bohr
     new conv_thr            =       0.0000000002 Ry


ATOMIC_POSITIONS (bohr)
Au      -1.868013901   1.360999520  -0.601728788
Au      -0.946271481   4.071679772   3.682407512
Au       2.909998818   1.182644627   1.000117519
Au       4.049902312   4.418477217   5.035570065
Au       7.604668252   1.297269864   2.924019692



     Writing output data file pwscf.save
     Check: negative starting charge=   -0.006416
     NEW-OLD atomic charge density approx. for the potential
     Check: negative starting charge=   -0.006432

     negative rho (up, down):  2.320E-04 0.000E+00

     total cpu time spent up to now is       29.0 secs

     per-process dynamical memory:    50.7 Mb

     Self-consistent Calculation

     iteration #  1     ecut=    30.00 Ry     beta=0.70
     Davidson diagonalization with overlap
     ethr =  1.00E-06,  avg # of iterations =  4.0

     negative rho (up, down):  5.009E-06 0.000E+00

     total cpu time spent up to now is       29.5 secs

     total energy              =    -329.49097619 Ry
     Harris-Foulkes estimate   =    -329.49095440 Ry
     estimated scf accuracy    <       0.00015430 Ry

     iteration #  2     ecut=    30.00 Ry     beta=0.70
     Davidson diagonalization with overlap
     ethr =  2.81E-07,  avg # of iterations =  3.0

     negative rho (up, down):  3.348E-07 0.000E+00

     total cpu time spent up to now is       29.8 secs

     total energy              =    -329.49100178 Ry
     Harris-Foulkes estimate   =    -329.49105331 Ry
     estimated scf accuracy    <       0.00010675 Ry

     iteration #  3     ecut=    30.00 Ry     beta=0.70
     Davidson diagonalization with overlap
     ethr =  1.94E-07,  avg # of iterations =  2.0

     total cpu time spent up to now is       30.0 secs

     total energy              =    -329.49102227 Ry
     Harris-Foulkes estimate   =    -329.49103338 Ry
     estimated scf accuracy    <       0.00002579 Ry

     iteration #  4     ecut=    30.00 Ry     beta=0.70
     Davidson diagonalization with overlap
     ethr =  4.69E-08,  avg # of iterations =  2.0

     total cpu time spent up to now is       30.3 secs

     total energy              =    -329.49102835 Ry
     Harris-Foulkes estimate   =    -329.49103218 Ry
     estimated scf accuracy    <       0.00001225 Ry

     iteration #  5     ecut=    30.00 Ry     beta=0.70
     Davidson diagonalization with overlap
     ethr =  2.23E-08,  avg # of iterations =  2.0

     total cpu time spent up to now is       30.5 secs

     total energy              =    -329.49103052 Ry
     Harris-Foulkes estimate   =    -329.49103068 Ry
     estimated scf accuracy    <       0.00000084 Ry

     iteration #  6     ecut=    30.00 Ry     beta=0.70
     Davidson diagonalization with overlap
     ethr =  1.52E-09,  avg # of iterations =  2.0

     total cpu time spent up to now is       30.7 secs

     total energy              =    -329.49103067 Ry
     Harris-Foulkes estimate   =    -329.49103077 Ry
     estimated scf accuracy    <       0.00000008 Ry

     iteration #  7     ecut=    30.00 Ry     beta=0.70
     Davidson diagonalization with overlap
     ethr =  1.46E-10,  avg # of iterations =  2.0

     total cpu time spent up to now is       31.0 secs

     total energy              =    -329.49103079 Ry
     Harris-Foulkes estimate   =    -329.49103070 Ry
     estimated scf accuracy    <       0.00000002 Ry

     iteration #  8     ecut=    30.00 Ry     beta=0.70
     Davidson diagonalization with overlap
     ethr =  3.71E-11,  avg # of iterations =  2.0

     total cpu time spent up to now is       31.2 secs

     total energy              =    -329.49103077 Ry
     Harris-Foulkes estimate   =    -329.49103079 Ry
     estimated scf accuracy    <          2.8E-09 Ry

     iteration #  9     ecut=    30.00 Ry     beta=0.70
     Davidson diagonalization with overlap
     ethr =  5.09E-12,  avg # of iterations =  2.0

     total cpu time spent up to now is       31.4 secs

     total energy              =    -329.49103077 Ry
     Harris-Foulkes estimate   =    -329.49103077 Ry
     estimated scf accuracy    <          7.7E-10 Ry

     iteration # 10     ecut=    30.00 Ry     beta=0.70
     Davidson diagonalization with overlap
     ethr =  1.40E-12,  avg # of iterations =  2.0

     total cpu time spent up to now is       31.6 secs

     End of self-consistent calculation

          k = 0.0000 0.0000 0.0000 ( 22119 PWs)   bands (ev):

    -8.5142  -7.7917  -7.6674  -7.2374  -6.8827  -6.8054  -6.6068  -6.5023
    -6.2873  -6.0752  -5.9583  -5.7577  -5.7214  -5.6911  -5.4583  -5.3794
    -5.3129  -5.2452  -5.2051  -5.1855  -5.1636  -5.1191  -4.9999  -4.9426
    -4.8479  -4.6899  -4.4905  -3.7662  -2.5020  -2.1817  -0.5339  -0.1435
     0.5437   0.7766

     the Fermi energy is    -3.7315 ev

!    total energy              =    -329.49103077 Ry
     Harris-Foulkes estimate   =    -329.49103077 Ry
     estimated scf accuracy    <          1.0E-10 Ry

     The total energy is the sum of the following terms:

     one-electron contribution =    -608.36495538 Ry
     hartree contribution      =     325.61175104 Ry
     xc contribution           =     -51.39971334 Ry
     ewald contribution        =       4.66669641 Ry
     smearing contrib. (-TS)   =      -0.00480951 Ry

     convergence has been achieved in  10 iterations

     Forces acting on atoms (Ry/au):

     atom    1 type  1   force =    -0.00183446   -0.00061894    0.00001611
     atom    2 type  1   force =     0.00269183    0.00231794   -0.00181997
     atom    3 type  1   force =     0.00166770   -0.00360481   -0.00049843
     atom    4 type  1   force =     0.00142591    0.00046194    0.00217511
     atom    5 type  1   force =    -0.00395099    0.00144387    0.00012718

     Total force =     0.007771     Total SCF correction =     0.000037

     number of scf cycles    =  10
     number of bfgs steps    =   9

     energy   old            =    -329.4908757240 Ry
     energy   new            =    -329.4910307714 Ry

     CASE: energy  _new < energy  _old

     new trust radius        =       0.0211741106 bohr
     new conv_thr            =       0.0000000002 Ry


ATOMIC_POSITIONS (bohr)
Au      -1.863339563   1.355590375  -0.599918196
Au      -0.941099108   4.076061292   3.662939776
Au       2.901273201   1.177980999   1.001405482
Au       4.061138045   4.420767700   5.053370485
Au       7.592311424   1.300670634   2.922588453



     Writing output data file pwscf.save
     Check: negative starting charge=   -0.006432
     NEW-OLD atomic charge density approx. for the potential
     Check: negative starting charge=   -0.006431

     negative rho (up, down):  8.774E-05 0.000E+00

     total cpu time spent up to now is       31.9 secs

     per-process dynamical memory:    50.7 Mb

     Self-consistent Calculation

     iteration #  1     ecut=    30.00 Ry     beta=0.70
     Davidson diagonalization with overlap
     ethr =  1.00E-06,  avg # of iterations =  4.0

     negative rho (up, down):  6.386E-07 0.000E+00

     total cpu time spent up to now is       32.2 secs

     total energy              =    -329.49112241 Ry
     Harris-Foulkes estimate   =    -329.49113873 Ry
     estimated scf accuracy    <       0.00008738 Ry

     iteration #  2     ecut=    30.00 Ry     beta=0.70
     Davidson diagonalization with overlap
     ethr =  1.59E-07,  avg # of iterations =  3.0

     negative rho (up, down):  5.197E-08 0.000E+00

     total cpu time spent up to now is       32.5 secs

     total energy              =    -329.49112427 Ry
     Harris-Foulkes estimate   =    -329.49118141 Ry
     estimated scf accuracy    <       0.00012526 Ry

     iteration #  3     ecut=    30.00 Ry     beta=0.70
     Davidson diagonalization with overlap
     ethr =  1.59E-07,  avg # of iterations =  2.0

     total cpu time spent up to now is       32.7 secs

     total energy              =    -329.49115035 Ry
     Harris-Foulkes estimate   =    -329.49115950 Ry
     estimated scf accuracy    <       0.00002568 Ry

     iteration #  4     ecut=    30.00 Ry     beta=0.70
     Davidson diagonalization with overlap
     ethr =  4.67E-08,  avg # of iterations =  2.0

     total cpu time spent up to now is       32.9 secs

     total energy              =    -329.49115569 Ry
     Harris-Foulkes estimate   =    -329.49115666 Ry
     estimated scf accuracy    <       0.00000317 Ry

     iteration #  5     ecut=    30.00 Ry     beta=0.70
     Davidson diagonalization with overlap
     ethr =  5.77E-09,  avg # of iterations =  2.0

     total cpu time spent up to now is       33.4 secs

     total energy              =    -329.49115610 Ry
     Harris-Foulkes estimate   =    -329.49115654 Ry
     estimated scf accuracy    <       0.00000067 Ry

     iteration #  6     ecut=    30.00 Ry     beta=0.70
     Davidson diagonalization with overlap
     ethr =  1.21E-09,  avg # of iterations =  2.0

     total cpu time spent up to now is       33.7 secs

     total energy              =    -329.49115624 Ry
     Harris-Foulkes estimate   =    -329.49115625 Ry
     estimated scf accuracy    <       0.00000004 Ry

     iteration #  7     ecut=    30.00 Ry     beta=0.70
     Davidson diagonalization with overlap
     ethr =  7.57E-11,  avg # of iterations =  2.0

     total cpu time spent up to now is       33.9 secs

     total energy              =    -329.49115623 Ry
     Harris-Foulkes estimate   =    -329.49115625 Ry
     estimated scf accuracy    <       0.00000001 Ry

     iteration #  8     ecut=    30.00 Ry     beta=0.70
     Davidson diagonalization with overlap
     ethr =  2.18E-11,  avg # of iterations =  2.0

     total cpu time spent up to now is       34.2 secs

     total energy              =    -329.49115623 Ry
     Harris-Foulkes estimate   =    -329.49115623 Ry
     estimated scf accuracy    <          3.9E-09 Ry

     iteration #  9     ecut=    30.00 Ry     beta=0.70
     Davidson diagonalization with overlap
     ethr =  7.05E-12,  avg # of iterations =  2.0

     total cpu time spent up to now is       34.4 secs

     total energy              =    -329.49115622 Ry
     Harris-Foulkes estimate   =    -329.49115623 Ry
     estimated scf accuracy    <          4.8E-10 Ry

     iteration # 10     ecut=    30.00 Ry     beta=0.70
     Davidson diagonalization with overlap
     ethr =  8.70E-13,  avg # of iterations =  2.0

     total cpu time spent up to now is       34.7 secs

     End of self-consistent calculation

          k = 0.0000 0.0000 0.0000 ( 22119 PWs)   bands (ev):

    -8.5256  -7.8027  -7.6566  -7.2373  -6.8758  -6.8116  -6.6245  -6.5002
    -6.2841  -6.0811  -5.9677  -5.7603  -5.7269  -5.6915  -5.4602  -5.3750
    -5.3096  -5.2464  -5.2027  -5.1852  -5.1643  -5.1190  -4.9966  -4.9416
    -4.8461  -4.6937  -4.4883  -3.7622  -2.4945  -2.1851  -0.5348  -0.1437
     0.5427   0.7827

     the Fermi energy is    -3.7272 ev

!    total energy              =    -329.49115622 Ry
     Harris-Foulkes estimate   =    -329.49115622 Ry
     estimated scf accuracy    <          4.8E-11 Ry

     The total energy is the sum of the following terms:

     one-electron contribution =    -608.62865408 Ry
     hartree contribution      =     325.74217578 Ry
     xc contribution           =     -51.40121088 Ry
     ewald contribution        =       4.80142892 Ry
     smearing contrib. (-TS)   =      -0.00489596 Ry

     convergence has been achieved in  10 iterations

     Forces acting on atoms (Ry/au):

     atom    1 type  1   force =    -0.00386969   -0.00111606   -0.00147265
     atom    2 type  1   force =     0.00396999    0.00317613   -0.00029156
     atom    3 type  1   force =     0.00297594   -0.00336840    0.00037809
     atom    4 type  1   force =     0.00022332    0.00023514    0.00128815
     atom    5 type  1   force =    -0.00329956    0.00107318    0.00009798

     Total force =     0.008859     Total SCF correction =     0.000034

     number of scf cycles    =  11
     number of bfgs steps    =  10

     energy   old            =    -329.4910307714 Ry
     energy   new            =    -329.4911562168 Ry

     CASE: energy  _new < energy  _old

     new trust radius        =       0.0232915216 bohr
     new conv_thr            =       0.0000000001 Ry


ATOMIC_POSITIONS (bohr)
Au      -1.861986787   1.350808317  -0.597096474
Au      -0.931005897   4.084260703   3.643616429
Au       2.896014557   1.165429186   0.999129815
Au       4.072696240   4.423613752   5.072142215
Au       7.574565887   1.306959042   2.922594016



     Writing output data file pwscf.save
     Check: negative starting charge=   -0.006431
     NEW-OLD atomic charge density approx. for the potential
     Check: negative starting charge=   -0.006421

     negative rho (up, down):  1.273E-04 0.000E+00

     total cpu time spent up to now is       34.9 secs

     per-process dynamical memory:    50.7 Mb

     Self-consistent Calculation

     iteration #  1     ecut=    30.00 Ry     beta=0.70
     Davidson diagonalization with overlap
     ethr =  1.00E-06,  avg # of iterations =  4.0

     negative rho (up, down):  1.443E-06 0.000E+00

     total cpu time spent up to now is       35.5 secs

     total energy              =    -329.49125039 Ry
     Harris-Foulkes estimate   =    -329.49127635 Ry
     estimated scf accuracy    <       0.00012989 Ry

     iteration #  2     ecut=    30.00 Ry     beta=0.70
     Davidson diagonalization with overlap
     ethr =  2.36E-07,  avg # of iterations =  3.0

     negative rho (up, down):  1.667E-07 0.000E+00

     total cpu time spent up to now is       35.8 secs

     total energy              =    -329.49124984 Ry
     Harris-Foulkes estimate   =    -329.49134495 Ry
     estimated scf accuracy    <       0.00021095 Ry

     iteration #  3     ecut=    30.00 Ry     beta=0.70
     Davidson diagonalization with overlap
     ethr =  2.36E-07,  avg # of iterations =  2.0

     total cpu time spent up to now is       36.0 secs

     total energy              =    -329.49129340 Ry
     Harris-Foulkes estimate   =    -329.49130694 Ry
     estimated scf accuracy    <       0.00003686 Ry

     iteration #  4     ecut=    30.00 Ry     beta=0.70
     Davidson diagonalization with overlap
     ethr =  6.70E-08,  avg # of iterations =  2.0

     total cpu time spent up to now is       36.2 secs

     total energy              =    -329.49130104 Ry
     Harris-Foulkes estimate   =    -329.49130216 Ry
     estimated scf accuracy    <       0.00000394 Ry

     iteration #  5     ecut=    30.00 Ry     beta=0.70
     Davidson diagonalization with overlap
     ethr =  7.16E-09,  avg # of iterations =  2.0

     total cpu time spent up to now is       36.4 secs

     total energy              =    -329.49130157 Ry
     Harris-Foulkes estimate   =    -329.49130210 Ry
     estimated scf accuracy    <       0.00000080 Ry

     iteration #  6     ecut=    30.00 Ry     beta=0.70
     Davidson diagonalization with overlap
     ethr =  1.45E-09,  avg # of iterations =  2.0

     total cpu time spent up to now is       36.7 secs

     total energy              =    -329.49130169 Ry
     Harris-Foulkes estimate   =    -329.49130176 Ry
     estimated scf accuracy    <       0.00000005 Ry

     iteration #  7     ecut=    30.00 Ry     beta=0.70
     Davidson diagonalization with overlap
     ethr =  9.78E-11,  avg # of iterations =  3.0

     total cpu time spent up to now is       37.0 secs

     total energy              =    -329.49130158 Ry
     Harris-Foulkes estimate   =    -329.49130171 Ry
     estimated scf accuracy    <       0.00000001 Ry

     iteration #  8     ecut=    30.00 Ry     beta=0.70
     Davidson diagonalization with overlap
     ethr =  2.22E-11,  avg # of iterations =  2.0

     total cpu time spent up to now is       37.2 secs

     total energy              =    -329.49130155 Ry
     Harris-Foulkes estimate   =    -329.49130158 Ry
     estimated scf accuracy    <          2.0E-09 Ry

     iteration #  9     ecut=    30.00 Ry     beta=0.70
     Davidson diagonalization with overlap
     ethr =  3.65E-12,  avg # of iterations =  2.0

     total cpu time spent up to now is       37.5 secs

     total energy              =    -329.49130156 Ry
     Harris-Foulkes estimate   =    -329.49130155 Ry
     estimated scf accuracy    <          1.0E-09 Ry

     iteration # 10     ecut=    30.00 Ry     beta=0.70
     Davidson diagonalization with overlap
     ethr =  1.90E-12,  avg # of iterations =  2.0

     total cpu time spent up to now is       37.7 secs

     End of self-consistent calculation

          k = 0.0000 0.0000 0.0000 ( 22119 PWs)   bands (ev):

    -8.5332  -7.8098  -7.6438  -7.2368  -6.8720  -6.8163  -6.6442  -6.4954
    -6.2808  -6.0833  -5.9790  -5.7640  -5.7329  -5.6913  -5.4582  -5.3719
    -5.3073  -5.2453  -5.2005  -5.1843  -5.1662  -5.1199  -4.9931  -4.9388
    -4.8471  -4.6966  -4.4837  -3.7598  -2.4864  -2.1878  -0.5351  -0.1460
     0.5407   0.7906

     the Fermi energy is    -3.7248 ev

!    total energy              =    -329.49130157 Ry
     Harris-Foulkes estimate   =    -329.49130156 Ry
     estimated scf accuracy    <          7.6E-11 Ry

     The total energy is the sum of the following terms:

     one-electron contribution =    -608.81372879 Ry
     hartree contribution      =     325.83438678 Ry
     xc contribution           =     -51.40281769 Ry
     ewald contribution        =       4.89573660 Ry
     smearing contrib. (-TS)   =      -0.00487847 Ry

     convergence has been achieved in  10 iterations

     Forces acting on atoms (Ry/au):

     atom    1 type  1   force =    -0.00519222   -0.00157306   -0.00268465
     atom    2 type  1   force =     0.00506220    0.00366380    0.00091524
     atom    3 type  1   force =     0.00288545   -0.00270301    0.00105070
     atom    4 type  1   force =    -0.00108998    0.00017078    0.00060833
     atom    5 type  1   force =    -0.00166545    0.00044149    0.00011038

     Total force =     0.009891     Total SCF correction =     0.000035

     number of scf cycles    =  12
     number of bfgs steps    =  11

     energy   old            =    -329.4911562168 Ry
     energy   new            =    -329.4913015744 Ry

     CASE: energy  _new < energy  _old

     new trust radius        =       0.0349372825 bohr
     new conv_thr            =       0.0000000001 Ry


ATOMIC_POSITIONS (bohr)
Au      -1.865905605   1.341494722  -0.597470947
Au      -0.911860657   4.098821754   3.618277738
Au       2.890223533   1.148603668   0.999094266
Au       4.086641446   4.427366974   5.098089606
Au       7.551185282   1.314783882   2.922395337



     Writing output data file pwscf.save
     Check: negative starting charge=   -0.006421
     NEW-OLD atomic charge density approx. for the potential
     Check: negative starting charge=   -0.006410

     negative rho (up, down):  2.798E-04 0.000E+00

     total cpu time spent up to now is       37.9 secs

     per-process dynamical memory:    50.7 Mb

     Self-consistent Calculation

     iteration #  1     ecut=    30.00 Ry     beta=0.70
     Davidson diagonalization with overlap
     ethr =  1.00E-06,  avg # of iterations =  5.0

     negative rho (up, down):  6.861E-06 0.000E+00

     total cpu time spent up to now is       38.4 secs

     total energy              =    -329.49137990 Ry
     Harris-Foulkes estimate   =    -329.49139139 Ry
     estimated scf accuracy    <       0.00025564 Ry

     iteration #  2     ecut=    30.00 Ry     beta=0.70
     Davidson diagonalization with overlap
     ethr =  4.65E-07,  avg # of iterations =  8.0

     negative rho (up, down):  1.205E-06 0.000E+00

     total cpu time spent up to now is       38.7 secs

     total energy              =    -329.49138246 Ry
     Harris-Foulkes estimate   =    -329.49156454 Ry
     estimated scf accuracy    <       0.00040130 Ry

     iteration #  3     ecut=    30.00 Ry     beta=0.70
     Davidson diagonalization with overlap
     ethr =  4.65E-07,  avg # of iterations =  2.0

     negative rho (up, down):  2.419E-08 0.000E+00

     total cpu time spent up to now is       39.0 secs

     total energy              =    -329.49146433 Ry
     Harris-Foulkes estimate   =    -329.49149294 Ry
     estimated scf accuracy    <       0.00007699 Ry

     iteration #  4     ecut=    30.00 Ry     beta=0.70
     Davidson diagonalization with overlap
     ethr =  1.40E-07,  avg # of iterations =  2.0

     total cpu time spent up to now is       39.4 secs

     total energy              =    -329.49147976 Ry
     Harris-Foulkes estimate   =    -329.49148245 Ry
     estimated scf accuracy    <       0.00000767 Ry

     iteration #  5     ecut=    30.00 Ry     beta=0.70
     Davidson diagonalization with overlap
     ethr =  1.39E-08,  avg # of iterations =  2.0

[...]

     CASE: energy  _new < energy  _old

     new trust radius        =       0.0083246285 bohr
     new conv_thr            =            1.0E-10 Ry


ATOMIC_POSITIONS (bohr)
Au      -1.929812612   1.282349743  -0.628967580
Au      -0.782823629   4.177073815   3.508862232
Au       2.838049105   1.101348169   1.028731068
Au       4.110098044   4.439413955   5.211247849
Au       7.514773092   1.330885318   2.920512431



     Writing output data file pwscf.save
     Check: negative starting charge=   -0.006394
     NEW-OLD atomic charge density approx. for the potential
     Check: negative starting charge=   -0.006392

     negative rho (up, down):  1.652E-06 0.000E+00

     total cpu time spent up to now is       61.5 secs

     per-process dynamical memory:    50.7 Mb

     Self-consistent Calculation

     iteration #  1     ecut=    30.00 Ry     beta=0.70
     Davidson diagonalization with overlap
     ethr =  1.00E-06,  avg # of iterations =  3.0

     Threshold (ethr) on eigenvalues was too large:
     Diagonalizing with lowered threshold

     Davidson diagonalization with overlap
     ethr =  1.83E-08,  avg # of iterations =  2.0

     total cpu time spent up to now is       62.2 secs

     total energy              =    -329.49225936 Ry
     Harris-Foulkes estimate   =    -329.49226282 Ry
     estimated scf accuracy    <       0.00001077 Ry

     iteration #  2     ecut=    30.00 Ry     beta=0.70
     Davidson diagonalization with overlap
     ethr =  1.96E-08,  avg # of iterations =  2.0

     total cpu time spent up to now is       62.4 secs

     total energy              =    -329.49226034 Ry
     Harris-Foulkes estimate   =    -329.49226575 Ry
     estimated scf accuracy    <       0.00001114 Ry

     iteration #  3     ecut=    30.00 Ry     beta=0.70
     Davidson diagonalization with overlap
     ethr =  1.96E-08,  avg # of iterations =  2.0

     total cpu time spent up to now is       62.7 secs

     total energy              =    -329.49226263 Ry
     Harris-Foulkes estimate   =    -329.49226361 Ry
     estimated scf accuracy    <       0.00000270 Ry

     iteration #  4     ecut=    30.00 Ry     beta=0.70
     Davidson diagonalization with overlap
     ethr =  4.90E-09,  avg # of iterations =  2.0

     total cpu time spent up to now is       62.9 secs

     total energy              =    -329.49226309 Ry
     Harris-Foulkes estimate   =    -329.49226342 Ry
     estimated scf accuracy    <       0.00000053 Ry

     iteration #  5     ecut=    30.00 Ry     beta=0.70
     Davidson diagonalization with overlap
     ethr =  9.72E-10,  avg # of iterations =  2.0

     total cpu time spent up to now is       63.1 secs

     total energy              =    -329.49226323 Ry
     Harris-Foulkes estimate   =    -329.49226320 Ry
     estimated scf accuracy    <       0.00000005 Ry

     iteration #  6     ecut=    30.00 Ry     beta=0.70
     Davidson diagonalization with overlap
     ethr =  9.01E-11,  avg # of iterations =  2.0

     total cpu time spent up to now is       63.6 secs

     total energy              =    -329.49226324 Ry
     Harris-Foulkes estimate   =    -329.49226324 Ry
     estimated scf accuracy    <          6.1E-09 Ry

     iteration #  7     ecut=    30.00 Ry     beta=0.70
     Davidson diagonalization with overlap
     ethr =  1.10E-11,  avg # of iterations =  2.0

     total cpu time spent up to now is       64.0 secs

     total energy              =    -329.49226323 Ry
     Harris-Foulkes estimate   =    -329.49226324 Ry
     estimated scf accuracy    <          1.2E-09 Ry

     iteration #  8     ecut=    30.00 Ry     beta=0.70
     Davidson diagonalization with overlap
     ethr =  2.15E-12,  avg # of iterations =  3.0

     total cpu time spent up to now is       64.3 secs

     total energy              =    -329.49226323 Ry
     Harris-Foulkes estimate   =    -329.49226323 Ry
     estimated scf accuracy    <          4.2E-10 Ry

     iteration #  9     ecut=    30.00 Ry     beta=0.70
     Davidson diagonalization with overlap
     ethr =  7.72E-13,  avg # of iterations =  2.0

     total cpu time spent up to now is       64.5 secs

     End of self-consistent calculation

          k = 0.0000 0.0000 0.0000 ( 22119 PWs)   bands (ev):

    -8.5098  -7.7825  -7.6498  -7.2293  -6.8599  -6.8150  -6.6082  -6.4862
    -6.3000  -6.0767  -5.9577  -5.7661  -5.7286  -5.6837  -5.4566  -5.3626
    -5.3120  -5.2439  -5.1999  -5.1842  -5.1653  -5.1236  -4.9968  -4.9255
    -4.8457  -4.7169  -4.4814  -3.7773  -2.4707  -2.1982  -0.5370  -0.1592
     0.5020   0.8349

     the Fermi energy is    -3.7445 ev

!    total energy              =    -329.49226323 Ry
     Harris-Foulkes estimate   =    -329.49226323 Ry
     estimated scf accuracy    <          4.0E-11 Ry

     The total energy is the sum of the following terms:

     one-electron contribution =    -607.37051606 Ry
     hartree contribution      =     325.11904673 Ry
     xc contribution           =     -51.39975106 Ry
     ewald contribution        =       4.16334755 Ry
     smearing contrib. (-TS)   =      -0.00439038 Ry

     convergence has been achieved in   9 iterations

     Forces acting on atoms (Ry/au):

     atom    1 type  1   force =    -0.00054939    0.00046014    0.00071330
     atom    2 type  1   force =    -0.00025613    0.00019842   -0.00090989
     atom    3 type  1   force =     0.00080081    0.00011613    0.00033356
     atom    4 type  1   force =     0.00033998   -0.00107483   -0.00023860
     atom    5 type  1   force =    -0.00033527    0.00030015    0.00010163

     Total force =     0.002064     Total SCF correction =     0.000022

     number of scf cycles    =  20
     number of bfgs steps    =  19

     energy   old            =    -329.4922496689 Ry
     energy   new            =    -329.4922632273 Ry

     CASE: energy  _new < energy  _old

     new trust radius        =       0.0066548648 bohr
     new conv_thr            =            1.0E-10 Ry


ATOMIC_POSITIONS (bohr)
Au      -1.931493323   1.283345785  -0.625817314
Au      -0.779494022   4.179332414   3.503561319
Au       2.836811889   1.098116134   1.027687690
Au       4.110914281   4.437373316   5.213292281
Au       7.513545176   1.332903351   2.921662024



     Writing output data file pwscf.save
     Check: negative starting charge=   -0.006392
     NEW-OLD atomic charge density approx. for the potential
     Check: negative starting charge=   -0.006391

     negative rho (up, down):  4.395E-07 0.000E+00

     total cpu time spent up to now is       64.8 secs

     per-process dynamical memory:    50.7 Mb

     Self-consistent Calculation

     iteration #  1     ecut=    30.00 Ry     beta=0.70
     Davidson diagonalization with overlap
     ethr =  1.00E-06,  avg # of iterations =  3.0

     Threshold (ethr) on eigenvalues was too large:
     Diagonalizing with lowered threshold

     Davidson diagonalization with overlap
     ethr =  1.17E-08,  avg # of iterations =  2.0

     total cpu time spent up to now is       65.4 secs

     total energy              =    -329.49226735 Ry
     Harris-Foulkes estimate   =    -329.49226996 Ry
     estimated scf accuracy    <       0.00000698 Ry

     iteration #  2     ecut=    30.00 Ry     beta=0.70
     Davidson diagonalization with overlap
     ethr =  1.27E-08,  avg # of iterations =  2.0

     total cpu time spent up to now is       65.6 secs

     total energy              =    -329.49226860 Ry
     Harris-Foulkes estimate   =    -329.49227126 Ry
     estimated scf accuracy    <       0.00000587 Ry

     iteration #  3     ecut=    30.00 Ry     beta=0.70
     Davidson diagonalization with overlap
     ethr =  1.07E-08,  avg # of iterations =  2.0

     total cpu time spent up to now is       65.9 secs

     total energy              =    -329.49226982 Ry
     Harris-Foulkes estimate   =    -329.49227021 Ry
     estimated scf accuracy    <       0.00000105 Ry

     iteration #  4     ecut=    30.00 Ry     beta=0.70
     Davidson diagonalization with overlap
     ethr =  1.90E-09,  avg # of iterations =  2.0

     total cpu time spent up to now is       66.1 secs

     total energy              =    -329.49227004 Ry
     Harris-Foulkes estimate   =    -329.49227023 Ry
     estimated scf accuracy    <       0.00000048 Ry

     iteration #  5     ecut=    30.00 Ry     beta=0.70
     Davidson diagonalization with overlap
     ethr =  8.66E-10,  avg # of iterations =  2.0

     total cpu time spent up to now is       66.3 secs

     total energy              =    -329.49227007 Ry
     Harris-Foulkes estimate   =    -329.49227013 Ry
     estimated scf accuracy    <       0.00000002 Ry

     iteration #  6     ecut=    30.00 Ry     beta=0.70
     Davidson diagonalization with overlap
     ethr =  4.26E-11,  avg # of iterations =  3.0

     total cpu time spent up to now is       66.6 secs

     total energy              =    -329.49227011 Ry
     Harris-Foulkes estimate   =    -329.49227008 Ry
     estimated scf accuracy    <          4.2E-09 Ry

     iteration #  7     ecut=    30.00 Ry     beta=0.70
     Davidson diagonalization with overlap
     ethr =  7.61E-12,  avg # of iterations =  2.0

     total cpu time spent up to now is       66.8 secs

     total energy              =    -329.49227015 Ry
     Harris-Foulkes estimate   =    -329.49227011 Ry
     estimated scf accuracy    <          8.5E-10 Ry

     iteration #  8     ecut=    30.00 Ry     beta=0.70
     Davidson diagonalization with overlap
     ethr =  1.54E-12,  avg # of iterations =  2.0

     total cpu time spent up to now is       67.1 secs

     total energy              =    -329.49227017 Ry
     Harris-Foulkes estimate   =    -329.49227015 Ry
     estimated scf accuracy    <          2.0E-10 Ry

     iteration #  9     ecut=    30.00 Ry     beta=0.70
     Davidson diagonalization with overlap
     ethr =  3.72E-13,  avg # of iterations =  2.0

     total cpu time spent up to now is       67.4 secs

     End of self-consistent calculation

          k = 0.0000 0.0000 0.0000 ( 22119 PWs)   bands (ev):

    -8.5106  -7.7851  -7.6501  -7.2329  -6.8625  -6.8159  -6.6126  -6.4873
    -6.3019  -6.0759  -5.9608  -5.7663  -5.7292  -5.6839  -5.4570  -5.3629
    -5.3120  -5.2432  -5.1991  -5.1849  -5.1658  -5.1238  -4.9976  -4.9242
    -4.8472  -4.7154  -4.4805  -3.7760  -2.4718  -2.1958  -0.5375  -0.1592
     0.5018   0.8346

     the Fermi energy is    -3.7431 ev

!    total energy              =    -329.49227018 Ry
     Harris-Foulkes estimate   =    -329.49227017 Ry
     estimated scf accuracy    <          2.7E-11 Ry

     The total energy is the sum of the following terms:

     one-electron contribution =    -607.50199198 Ry
     hartree contribution      =     325.18372250 Ry
     xc contribution           =     -51.40029600 Ry
     ewald contribution        =       4.23069920 Ry
     smearing contrib. (-TS)   =      -0.00440390 Ry

     convergence has been achieved in   9 iterations

     Forces acting on atoms (Ry/au):

     atom    1 type  1   force =    -0.00070682    0.00022992    0.00031847
     atom    2 type  1   force =    -0.00029470    0.00037803   -0.00054532
     atom    3 type  1   force =     0.00111694    0.00019794    0.00045332
     atom    4 type  1   force =     0.00010646   -0.00088360   -0.00020085
     atom    5 type  1   force =    -0.00022188    0.00007771   -0.00002562

     Total force =     0.001887     Total SCF correction =     0.000017

     number of scf cycles    =  21
     number of bfgs steps    =  20

     energy   old            =    -329.4922632273 Ry
     energy   new            =    -329.4922701842 Ry

     CASE: energy  _new < energy  _old

     new trust radius        =       0.0073187527 bohr
     new conv_thr            =            1.0E-10 Ry


ATOMIC_POSITIONS (bohr)
Au      -1.934309752   1.284479601  -0.622449800
Au      -0.776534830   4.182092692   3.497463108
Au       2.836843696   1.095763786   1.027681069
Au       4.111627799   4.433981425   5.214987282
Au       7.512657087   1.334753495   2.922704341



     Writing output data file pwscf.save
     Check: negative starting charge=   -0.006391
     NEW-OLD atomic charge density approx. for the potential
     Check: negative starting charge=   -0.006390

     negative rho (up, down):  6.288E-07 0.000E+00

     total cpu time spent up to now is       67.6 secs

     per-process dynamical memory:    50.7 Mb

     Self-consistent Calculation

     iteration #  1     ecut=    30.00 Ry     beta=0.70
     Davidson diagonalization with overlap
     ethr =  1.00E-06,  avg # of iterations =  3.0

     Threshold (ethr) on eigenvalues was too large:
     Diagonalizing with lowered threshold

     Davidson diagonalization with overlap
     ethr =  1.36E-08,  avg # of iterations =  2.0

     total cpu time spent up to now is       68.1 secs

     total energy              =    -329.49227354 Ry
     Harris-Foulkes estimate   =    -329.49227590 Ry
     estimated scf accuracy    <       0.00000809 Ry

     iteration #  2     ecut=    30.00 Ry     beta=0.70
     Davidson diagonalization with overlap
     ethr =  1.47E-08,  avg # of iterations =  2.0

     total cpu time spent up to now is       68.4 secs

     total energy              =    -329.49227517 Ry
     Harris-Foulkes estimate   =    -329.49227800 Ry
     estimated scf accuracy    <       0.00000642 Ry

     iteration #  3     ecut=    30.00 Ry     beta=0.70
     Davidson diagonalization with overlap
     ethr =  1.17E-08,  avg # of iterations =  2.0

     total cpu time spent up to now is       68.6 secs

     total energy              =    -329.49227631 Ry
     Harris-Foulkes estimate   =    -329.49227682 Ry
     estimated scf accuracy    <       0.00000091 Ry

     iteration #  4     ecut=    30.00 Ry     beta=0.70
     Davidson diagonalization with overlap
     ethr =  1.66E-09,  avg # of iterations =  3.0

     total cpu time spent up to now is       68.9 secs

     total energy              =    -329.49227666 Ry
     Harris-Foulkes estimate   =    -329.49227676 Ry
     estimated scf accuracy    <       0.00000072 Ry

     iteration #  5     ecut=    30.00 Ry     beta=0.70
     Davidson diagonalization with overlap
     ethr =  1.31E-09,  avg # of iterations =  2.0

     total cpu time spent up to now is       69.1 secs

     total energy              =    -329.49227680 Ry
     Harris-Foulkes estimate   =    -329.49227678 Ry
     estimated scf accuracy    <       0.00000002 Ry

     iteration #  6     ecut=    30.00 Ry     beta=0.70
     Davidson diagonalization with overlap
     ethr =  3.84E-11,  avg # of iterations =  3.0

     total cpu time spent up to now is       69.3 secs

     total energy              =    -329.49227674 Ry
     Harris-Foulkes estimate   =    -329.49227681 Ry
     estimated scf accuracy    <          4.1E-09 Ry

     iteration #  7     ecut=    30.00 Ry     beta=0.70
     Davidson diagonalization with overlap
     ethr =  7.42E-12,  avg # of iterations =  2.0

     total cpu time spent up to now is       69.6 secs

     total energy              =    -329.49227680 Ry
     Harris-Foulkes estimate   =    -329.49227674 Ry
     estimated scf accuracy    <          1.3E-09 Ry

     iteration #  8     ecut=    30.00 Ry     beta=0.70
     Davidson diagonalization with overlap
     ethr =  2.39E-12,  avg # of iterations =  2.0

     total cpu time spent up to now is       69.8 secs

     total energy              =    -329.49227680 Ry
     Harris-Foulkes estimate   =    -329.49227680 Ry
     estimated scf accuracy    <          1.6E-10 Ry

     iteration #  9     ecut=    30.00 Ry     beta=0.70
     Davidson diagonalization with overlap
     ethr =  2.84E-13,  avg # of iterations =  3.0

     total cpu time spent up to now is       70.1 secs

     End of self-consistent calculation

          k = 0.0000 0.0000 0.0000 ( 22119 PWs)   bands (ev):

    -8.5115  -7.7886  -7.6510  -7.2374  -6.8645  -6.8168  -6.6176  -6.4891
    -6.3042  -6.0752  -5.9641  -5.7664  -5.7294  -5.6840  -5.4584  -5.3629
    -5.3118  -5.2429  -5.1982  -5.1859  -5.1660  -5.1239  -4.9988  -4.9229
    -4.8479  -4.7144  -4.4798  -3.7743  -2.4733  -2.1931  -0.5381  -0.1587
     0.5016   0.8343

     the Fermi energy is    -3.7413 ev

!    total energy              =    -329.49227679 Ry
     Harris-Foulkes estimate   =    -329.49227680 Ry
     estimated scf accuracy    <          4.0E-11 Ry

     The total energy is the sum of the following terms:

     one-electron contribution =    -607.66004773 Ry
     hartree contribution      =     325.26137348 Ry
     xc contribution           =     -51.40087594 Ry
     ewald contribution        =       4.31170925 Ry
     smearing contrib. (-TS)   =      -0.00443585 Ry

     convergence has been achieved in   9 iterations

     Forces acting on atoms (Ry/au):

     atom    1 type  1   force =    -0.00055991   -0.00001364    0.00000988
     atom    2 type  1   force =    -0.00032438    0.00057519   -0.00020212
     atom    3 type  1   force =     0.00098144    0.00019670    0.00035648
     atom    4 type  1   force =    -0.00018109   -0.00056685   -0.00003870
     atom    5 type  1   force =     0.00008394   -0.00019139   -0.00012554

     Total force =     0.001528     Total SCF correction =     0.000022

     bfgs converged in  22 scf cycles and  21 bfgs steps
     (criteria: energy <  1.0E-04, force <  1.0E-03)

     End of BFGS Geometry Optimization

     Final energy   =    -329.4922767867 Ry
Begin final coordinates

ATOMIC_POSITIONS (bohr)
Au      -1.934309752   1.284479601  -0.622449800
Au      -0.776534830   4.182092692   3.497463108
Au       2.836843696   1.095763786   1.027681069
Au       4.111627799   4.433981425   5.214987282
Au       7.512657087   1.334753495   2.922704341
End final coordinates



     Writing output data file pwscf.save
 
     init_run     :      0.18s CPU      0.23s WALL (       1 calls)
     electrons    :     58.95s CPU     64.99s WALL (      22 calls)
     update_pot   :      1.78s CPU      2.19s WALL (      21 calls)
     forces       :      1.19s CPU      1.26s WALL (      22 calls)

     Called by init_run:
     wfcinit      :      0.08s CPU      0.09s WALL (       1 calls)
     potinit      :      0.03s CPU      0.04s WALL (       1 calls)

     Called by electrons:
     c_bands      :     45.47s CPU     47.62s WALL (     228 calls)
     sum_band     :      6.21s CPU      6.56s WALL (     228 calls)
     v_of_rho     :      5.02s CPU      5.31s WALL (     242 calls)
     mix_rho      :      1.95s CPU      3.92s WALL (     228 calls)

     Called by c_bands:
     init_us_2    :      0.76s CPU      0.83s WALL (     457 calls)
     cegterg      :     40.85s CPU     42.61s WALL (     228 calls)

     Called by sum_band:

     Called by *egterg:
     h_psi        :     32.10s CPU     33.39s WALL (     821 calls)
     g_psi        :      0.29s CPU      0.30s WALL (     592 calls)
     cdiaghg      :      2.10s CPU      2.18s WALL (     791 calls)

     Called by h_psi:
     h_psi:pot    :     31.70s CPU     32.97s WALL (     821 calls)
     h_psi:calbec :      1.75s CPU      1.81s WALL (     821 calls)
     vloc_psi     :     28.16s CPU     29.30s WALL (     821 calls)
     add_vuspsi   :      1.80s CPU      1.86s WALL (     821 calls)

     General routines
     calbec       :      2.07s CPU      2.17s WALL (     909 calls)
     fft          :      2.85s CPU      3.03s WALL (    2721 calls)
     fftw         :     30.03s CPU     31.14s WALL (   50806 calls)
     davcio       :      0.26s CPU      1.87s WALL (    2361 calls)
 
     Parallel routines
     fft_scatter  :     10.17s CPU     10.48s WALL (   53527 calls)
 
     PWSCF        :  1m 2.85s CPU     1m10.45s WALL

 
   This run was terminated on:  15:14:14   3Aug2017            

=------------------------------------------------------------------------------=
   JOB DONE.
=------------------------------------------------------------------------------=
