
     Program PWSCF v.6.0 (svn rev. 13079) starts on  3Aug2017 at 23:39:14 

     This program is part of the open-source Quantum ESPRESSO suite
     for quantum simulation of materials; please cite
         "P. Giannozzi et al., J. Phys.:Condens. Matter 21 395502 (2009);
          URL http://www.quantum-espresso.org", 
     in publications or presentations arising from this work. More details at
     http://www.quantum-espresso.org/quote

     Parallel version (MPI), running on    10 processors
     R & G space division:  proc/nbgrp/npool/nimage =      10
     Reading input from input/multi/minchecks-Gold5-568.in

     Current dimensions of program PWSCF are:
     Max number of different atomic species (ntypx) = 10
     Max number of k-points (npk) =  40000
     Max angular momentum in pseudopotentials (lmaxx) =  3
     Message from routine iosys:
     pot_extrapolation='second-order' not available, using 'atomic'
     Message from routine iosys:
     wfc_extrapolation='second-order' not available, using 'atomic'

     Subspace diagonalization in iterative solution of the eigenvalue problem:
     a serial algorithm will be used

 
     Parallelization info
     --------------------
     sticks:   dense  smooth     PW     G-vecs:    dense   smooth      PW
     Min         380     380     94                17748    17748    2208
     Max         381     381     95                17753    17753    2213
     Sum        3809    3809    949               177509   177509   22119
 


     bravais-lattice index     =            1
     lattice parameter (alat)  =      20.0000  a.u.
     unit-cell volume          =    8000.0000 (a.u.)^3
     number of atoms/cell      =            5
     number of atomic types    =            1
     number of electrons       =        55.00
     number of Kohn-Sham states=           34
     kinetic-energy cutoff     =      30.0000  Ry
     charge density cutoff     =     120.0000  Ry
     convergence threshold     =      1.0E-08
     mixing beta               =       0.7000
     number of iterations used =            8  plain     mixing
     Exchange-correlation      = BLYP ( 1  3  1  3 0 0)
     nstep                     =           50


     celldm(1)=  20.000000  celldm(2)=   0.000000  celldm(3)=   0.000000
     celldm(4)=   0.000000  celldm(5)=   0.000000  celldm(6)=   0.000000

     crystal axes: (cart. coord. in units of alat)
               a(1) = (   1.000000   0.000000   0.000000 )  
               a(2) = (   0.000000   1.000000   0.000000 )  
               a(3) = (   0.000000   0.000000   1.000000 )  

     reciprocal axes: (cart. coord. in units 2 pi/alat)
               b(1) = (  1.000000  0.000000  0.000000 )  
               b(2) = (  0.000000  1.000000  0.000000 )  
               b(3) = (  0.000000  0.000000  1.000000 )  


     PseudoPot. # 1 for Au read from file:
     ./Au.blyp-d-hgh.UPF
     MD5 check sum: c10d8bae01f806c36a1643a1c69a8479
     Pseudo is Norm-conserving, Zval = 11.0
     Generated in analytical, separable form
     Using radial grid of 1279 points,  6 beta functions with: 
                l(1) =   0
                l(2) =   0
                l(3) =   1
                l(4) =   1
                l(5) =   2
                l(6) =   2

     atomic species   valence    mass     pseudopotential
        Au            11.00    28.08600     Au( 1.00)

     No symmetry found



   Cartesian axes

     site n.     atom                  positions (alat units)
         1           Au  tau(   1) = (  -0.1078601   0.1541976  -0.0225268  )
         2           Au  tau(   2) = (  -0.0017396   0.1804700   0.2113002  )
         3           Au  tau(   3) = (   0.1430730   0.0966924   0.0002038  )
         4           Au  tau(   4) = (   0.2294543   0.2143814   0.3047920  )
         5           Au  tau(   5) = (   0.3559431   0.0450018   0.1258295  )

     number of k points=     1  Marzari-Vanderbilt smearing, width (Ry)=  0.0250
                       cart. coord. in units 2pi/alat
        k(    1) = (   0.0000000   0.0000000   0.0000000), wk =   2.0000000

     Dense  grid:   177509 G-vectors     FFT dimensions: (  72,  72,  72)

     Estimated max dynamical RAM per process >      15.04Mb

     Estimated total allocated dynamical RAM >     150.39Mb

     Initial potential from superposition of free atoms
     Check: negative starting charge=   -0.006130

     starting charge   54.99940, renormalised to   55.00000

     negative rho (up, down):  6.130E-03 0.000E+00
     Starting wfc are   45 randomized atomic wfcs

     total cpu time spent up to now is        0.3 secs

     per-process dynamical memory:    41.0 Mb

     Self-consistent Calculation

     iteration #  1     ecut=    30.00 Ry     beta=0.70
     Davidson diagonalization with overlap
     ethr =  1.00E-02,  avg # of iterations =  3.0

     Threshold (ethr) on eigenvalues was too large:
     Diagonalizing with lowered threshold

     Davidson diagonalization with overlap
     ethr =  3.94E-04,  avg # of iterations =  7.0

     negative rho (up, down):  8.302E-04 0.000E+00

     total cpu time spent up to now is        0.8 secs

     total energy              =    -329.36549219 Ry
     Harris-Foulkes estimate   =    -329.52691803 Ry
     estimated scf accuracy    <       0.27578198 Ry

     iteration #  2     ecut=    30.00 Ry     beta=0.70
     Davidson diagonalization with overlap
     ethr =  5.01E-04,  avg # of iterations =  4.0

     negative rho (up, down):  3.348E-04 0.000E+00

     total cpu time spent up to now is        1.1 secs

     total energy              =    -329.42632326 Ry
     Harris-Foulkes estimate   =    -329.53314605 Ry
     estimated scf accuracy    <       0.21200169 Ry

     iteration #  3     ecut=    30.00 Ry     beta=0.70
     Davidson diagonalization with overlap
     ethr =  3.85E-04,  avg # of iterations =  2.0

     negative rho (up, down):  1.618E-04 0.000E+00

     total cpu time spent up to now is        1.3 secs

     total energy              =    -329.46452449 Ry
     Harris-Foulkes estimate   =    -329.48317328 Ry
     estimated scf accuracy    <       0.05112387 Ry

     iteration #  4     ecut=    30.00 Ry     beta=0.70
     Davidson diagonalization with overlap
     ethr =  9.30E-05,  avg # of iterations =  2.0

     negative rho (up, down):  4.393E-05 0.000E+00

     total cpu time spent up to now is        1.5 secs

     total energy              =    -329.47069717 Ry
     Harris-Foulkes estimate   =    -329.47532586 Ry
     estimated scf accuracy    <       0.01431005 Ry

     iteration #  5     ecut=    30.00 Ry     beta=0.70
     Davidson diagonalization with overlap
     ethr =  2.60E-05,  avg # of iterations =  2.0

     negative rho (up, down):  1.783E-07 0.000E+00

     total cpu time spent up to now is        1.8 secs

     total energy              =    -329.47255427 Ry
     Harris-Foulkes estimate   =    -329.47421098 Ry
     estimated scf accuracy    <       0.00540607 Ry

     iteration #  6     ecut=    30.00 Ry     beta=0.70
     Davidson diagonalization with overlap
     ethr =  9.83E-06,  avg # of iterations =  3.0

     total cpu time spent up to now is        2.0 secs

     total energy              =    -329.47268800 Ry
     Harris-Foulkes estimate   =    -329.47346745 Ry
     estimated scf accuracy    <       0.00262838 Ry

     iteration #  7     ecut=    30.00 Ry     beta=0.70
     Davidson diagonalization with overlap
     ethr =  4.78E-06,  avg # of iterations =  2.0

     total cpu time spent up to now is        2.2 secs

     total energy              =    -329.47436659 Ry
     Harris-Foulkes estimate   =    -329.47257214 Ry
     estimated scf accuracy    <       0.00381483 Ry

     iteration #  8     ecut=    30.00 Ry     beta=0.70
     Davidson diagonalization with overlap
     ethr =  4.78E-06,  avg # of iterations =  2.0

     total cpu time spent up to now is        2.4 secs

     total energy              =    -329.47375481 Ry
     Harris-Foulkes estimate   =    -329.47359516 Ry
     estimated scf accuracy    <       0.00065669 Ry

     iteration #  9     ecut=    30.00 Ry     beta=0.70
     Davidson diagonalization with overlap
     ethr =  1.19E-06,  avg # of iterations =  6.0

     total cpu time spent up to now is        2.7 secs

     total energy              =    -329.47396387 Ry
     Harris-Foulkes estimate   =    -329.47381091 Ry
     estimated scf accuracy    <       0.00062413 Ry

     iteration # 10     ecut=    30.00 Ry     beta=0.70
     Davidson diagonalization with overlap
     ethr =  1.13E-06,  avg # of iterations =  1.0

     total cpu time spent up to now is        2.9 secs

     total energy              =    -329.47417034 Ry
     Harris-Foulkes estimate   =    -329.47396560 Ry
     estimated scf accuracy    <       0.00073727 Ry

     iteration # 11     ecut=    30.00 Ry     beta=0.70
     Davidson diagonalization with overlap
     ethr =  1.13E-06,  avg # of iterations =  2.0

     total cpu time spent up to now is        3.1 secs

     total energy              =    -329.47374199 Ry
     Harris-Foulkes estimate   =    -329.47418741 Ry
     estimated scf accuracy    <       0.00124210 Ry

     iteration # 12     ecut=    30.00 Ry     beta=0.70
     Davidson diagonalization with overlap
     ethr =  1.13E-06,  avg # of iterations =  2.0

     total cpu time spent up to now is        3.4 secs

     total energy              =    -329.47340365 Ry
     Harris-Foulkes estimate   =    -329.47377046 Ry
     estimated scf accuracy    <       0.00052266 Ry

     iteration # 13     ecut=    30.00 Ry     beta=0.70
     Davidson diagonalization with overlap
     ethr =  9.50E-07,  avg # of iterations =  3.0

     total cpu time spent up to now is        3.7 secs

     total energy              =    -329.47246207 Ry
     Harris-Foulkes estimate   =    -329.47300660 Ry
     estimated scf accuracy    <       0.00190229 Ry

     iteration # 14     ecut=    30.00 Ry     beta=0.70
     Davidson diagonalization with overlap
     ethr =  9.50E-07,  avg # of iterations =  3.0

     total cpu time spent up to now is        3.9 secs

     total energy              =    -329.47331508 Ry
     Harris-Foulkes estimate   =    -329.47227699 Ry
     estimated scf accuracy    <       0.00341134 Ry

     iteration # 15     ecut=    30.00 Ry     beta=0.70
     Davidson diagonalization with overlap
     ethr =  9.50E-07,  avg # of iterations =  3.0

     total cpu time spent up to now is        4.1 secs

     total energy              =    -329.47266867 Ry
     Harris-Foulkes estimate   =    -329.47312807 Ry
     estimated scf accuracy    <       0.00147672 Ry

     iteration # 16     ecut=    30.00 Ry     beta=0.70
     Davidson diagonalization with overlap
     ethr =  9.50E-07,  avg # of iterations =  3.0

     total cpu time spent up to now is        4.4 secs

     total energy              =    -329.47266354 Ry
     Harris-Foulkes estimate   =    -329.47246871 Ry
     estimated scf accuracy    <       0.00333354 Ry

     iteration # 17     ecut=    30.00 Ry     beta=0.70
     Davidson diagonalization with overlap
     ethr =  9.50E-07,  avg # of iterations =  1.0

     total cpu time spent up to now is        4.6 secs

     total energy              =    -329.47265471 Ry
     Harris-Foulkes estimate   =    -329.47265655 Ry
     estimated scf accuracy    <       0.00290668 Ry

     iteration # 18     ecut=    30.00 Ry     beta=0.70
     Davidson diagonalization with overlap
     ethr =  9.50E-07,  avg # of iterations =  1.0

     total cpu time spent up to now is        4.8 secs

     total energy              =    -329.47300662 Ry
     Harris-Foulkes estimate   =    -329.47265510 Ry
     estimated scf accuracy    <       0.00292821 Ry

     iteration # 19     ecut=    30.00 Ry     beta=0.70
     Davidson diagonalization with overlap
     ethr =  9.50E-07,  avg # of iterations =  1.0

     total cpu time spent up to now is        5.0 secs

     total energy              =    -329.47453109 Ry
     Harris-Foulkes estimate   =    -329.47296811 Ry
     estimated scf accuracy    <       0.00197579 Ry

     iteration # 20     ecut=    30.00 Ry     beta=0.70
     Davidson diagonalization with overlap
     ethr =  9.50E-07,  avg # of iterations =  3.0

     total cpu time spent up to now is        5.3 secs

     total energy              =    -329.47413118 Ry
     Harris-Foulkes estimate   =    -329.47376777 Ry
     estimated scf accuracy    <       0.00047842 Ry

     iteration # 21     ecut=    30.00 Ry     beta=0.70
     Davidson diagonalization with overlap
     ethr =  8.70E-07,  avg # of iterations =  3.0

     total cpu time spent up to now is        5.6 secs

     total energy              =    -329.47539412 Ry
     Harris-Foulkes estimate   =    -329.47413514 Ry
     estimated scf accuracy    <       0.00109401 Ry

     iteration # 22     ecut=    30.00 Ry     beta=0.70
     Davidson diagonalization with overlap
     ethr =  8.70E-07,  avg # of iterations =  4.0

     total cpu time spent up to now is        5.9 secs

     total energy              =    -329.47520870 Ry
     Harris-Foulkes estimate   =    -329.47566251 Ry
     estimated scf accuracy    <       0.00541025 Ry

     iteration # 23     ecut=    30.00 Ry     beta=0.70
     Davidson diagonalization with overlap
     ethr =  8.70E-07,  avg # of iterations =  1.0

     total cpu time spent up to now is        6.1 secs

     total energy              =    -329.47447263 Ry
     Harris-Foulkes estimate   =    -329.47522393 Ry
     estimated scf accuracy    <       0.00416508 Ry

     iteration # 24     ecut=    30.00 Ry     beta=0.70
     Davidson diagonalization with overlap
     ethr =  8.70E-07,  avg # of iterations =  2.0

     total cpu time spent up to now is        6.3 secs

     total energy              =    -329.47404124 Ry
     Harris-Foulkes estimate   =    -329.47453823 Ry
     estimated scf accuracy    <       0.00216504 Ry

     iteration # 25     ecut=    30.00 Ry     beta=0.70
     Davidson diagonalization with overlap
     ethr =  8.70E-07,  avg # of iterations =  2.0

     total cpu time spent up to now is        6.5 secs

     total energy              =    -329.47392785 Ry
     Harris-Foulkes estimate   =    -329.47408310 Ry
     estimated scf accuracy    <       0.00101748 Ry

     iteration # 26     ecut=    30.00 Ry     beta=0.70
     Davidson diagonalization with overlap
     ethr =  8.70E-07,  avg # of iterations =  1.0

     total cpu time spent up to now is        6.8 secs

     total energy              =    -329.47394493 Ry
     Harris-Foulkes estimate   =    -329.47393163 Ry
     estimated scf accuracy    <       0.00075496 Ry

     iteration # 27     ecut=    30.00 Ry     beta=0.70
     Davidson diagonalization with overlap
     ethr =  8.70E-07,  avg # of iterations =  1.0

     total cpu time spent up to now is        7.0 secs

     total energy              =    -329.47360817 Ry
     Harris-Foulkes estimate   =    -329.47394646 Ry
     estimated scf accuracy    <       0.00076426 Ry

     iteration # 28     ecut=    30.00 Ry     beta=0.70
     Davidson diagonalization with overlap
     ethr =  8.70E-07,  avg # of iterations =  3.0

     total cpu time spent up to now is        7.2 secs

     total energy              =    -329.47339018 Ry
     Harris-Foulkes estimate   =    -329.47360824 Ry
     estimated scf accuracy    <       0.00042543 Ry

     iteration # 29     ecut=    30.00 Ry     beta=0.70
     Davidson diagonalization with overlap
     ethr =  7.74E-07,  avg # of iterations =  3.0

     total cpu time spent up to now is        7.5 secs

     total energy              =    -329.47285283 Ry
     Harris-Foulkes estimate   =    -329.47326951 Ry
     estimated scf accuracy    <       0.00102014 Ry

     iteration # 30     ecut=    30.00 Ry     beta=0.70
     Davidson diagonalization with overlap
     ethr =  7.74E-07,  avg # of iterations =  5.0

     total cpu time spent up to now is        7.7 secs

     total energy              =    -329.47102975 Ry
     Harris-Foulkes estimate   =    -329.47258382 Ry
     estimated scf accuracy    <       0.00312366 Ry

     iteration # 31     ecut=    30.00 Ry     beta=0.70
     Davidson diagonalization with overlap
     ethr =  7.74E-07,  avg # of iterations =  6.0

     total cpu time spent up to now is        8.1 secs

     total energy              =    -329.47261927 Ry
     Harris-Foulkes estimate   =    -329.47275112 Ry
     estimated scf accuracy    <       0.02036823 Ry

     iteration # 32     ecut=    30.00 Ry     beta=0.70
     Davidson diagonalization with overlap
     ethr =  7.74E-07,  avg # of iterations =  1.0

     total cpu time spent up to now is        8.3 secs

     total energy              =    -329.46859413 Ry
     Harris-Foulkes estimate   =    -329.47262656 Ry
     estimated scf accuracy    <       0.01776975 Ry

     iteration # 33     ecut=    30.00 Ry     beta=0.70
     Davidson diagonalization with overlap
     ethr =  7.74E-07,  avg # of iterations =  5.0

     total cpu time spent up to now is        8.6 secs

     total energy              =    -329.47615188 Ry
     Harris-Foulkes estimate   =    -329.47242936 Ry
     estimated scf accuracy    <       0.00333289 Ry

     iteration # 34     ecut=    30.00 Ry     beta=0.70
     Davidson diagonalization with overlap
     ethr =  7.74E-07,  avg # of iterations =  6.0

     total cpu time spent up to now is        8.9 secs

     total energy              =    -329.47430093 Ry
     Harris-Foulkes estimate   =    -329.47405752 Ry
     estimated scf accuracy    <       0.00093258 Ry

     iteration # 35     ecut=    30.00 Ry     beta=0.70
     Davidson diagonalization with overlap
     ethr =  7.74E-07,  avg # of iterations =  1.0

     total cpu time spent up to now is        9.2 secs

     total energy              =    -329.47429495 Ry
     Harris-Foulkes estimate   =    -329.47431022 Ry
     estimated scf accuracy    <       0.00147059 Ry

     iteration # 36     ecut=    30.00 Ry     beta=0.70
     Davidson diagonalization with overlap
     ethr =  7.74E-07,  avg # of iterations =  1.0

     total cpu time spent up to now is        9.4 secs

     total energy              =    -329.47435899 Ry
     Harris-Foulkes estimate   =    -329.47429658 Ry
     estimated scf accuracy    <       0.00144068 Ry

     iteration # 37     ecut=    30.00 Ry     beta=0.70
     Davidson diagonalization with overlap
     ethr =  7.74E-07,  avg # of iterations =  1.0

     total cpu time spent up to now is        9.6 secs

     total energy              =    -329.47485764 Ry
     Harris-Foulkes estimate   =    -329.47436047 Ry
     estimated scf accuracy    <       0.00160004 Ry

     iteration # 38     ecut=    30.00 Ry     beta=0.70
     Davidson diagonalization with overlap
     ethr =  7.74E-07,  avg # of iterations =  2.0

     total cpu time spent up to now is        9.8 secs

     total energy              =    -329.47711142 Ry
     Harris-Foulkes estimate   =    -329.47490279 Ry
     estimated scf accuracy    <       0.00310970 Ry

     iteration # 39     ecut=    30.00 Ry     beta=0.70
     Davidson diagonalization with overlap
     ethr =  7.74E-07,  avg # of iterations =  4.0

     total cpu time spent up to now is       10.1 secs

     total energy              =    -329.47647980 Ry
     Harris-Foulkes estimate   =    -329.47755635 Ry
     estimated scf accuracy    <       0.01128269 Ry

     iteration # 40     ecut=    30.00 Ry     beta=0.70
     Davidson diagonalization with overlap
     ethr =  7.74E-07,  avg # of iterations =  2.0

     total cpu time spent up to now is       10.3 secs

     total energy              =    -329.47680424 Ry
     Harris-Foulkes estimate   =    -329.47652785 Ry
     estimated scf accuracy    <       0.00811080 Ry

     iteration # 41     ecut=    30.00 Ry     beta=0.70
     Davidson diagonalization with overlap
     ethr =  7.74E-07,  avg # of iterations =  1.0

     total cpu time spent up to now is       10.6 secs

     total energy              =    -329.47332621 Ry
     Harris-Foulkes estimate   =    -329.47680931 Ry
     estimated scf accuracy    <       0.00892201 Ry

     iteration # 42     ecut=    30.00 Ry     beta=0.70
     Davidson diagonalization with overlap
     ethr =  7.74E-07,  avg # of iterations =  4.0

     total cpu time spent up to now is       10.9 secs

     total energy              =    -329.47355560 Ry
     Harris-Foulkes estimate   =    -329.47409334 Ry
     estimated scf accuracy    <       0.00102854 Ry

     iteration # 43     ecut=    30.00 Ry     beta=0.70
     Davidson diagonalization with overlap
     ethr =  7.74E-07,  avg # of iterations =  3.0

     total cpu time spent up to now is       11.2 secs

     total energy              =    -329.47340700 Ry
     Harris-Foulkes estimate   =    -329.47357176 Ry
     estimated scf accuracy    <       0.00042483 Ry

     iteration # 44     ecut=    30.00 Ry     beta=0.70
     Davidson diagonalization with overlap
     ethr =  7.72E-07,  avg # of iterations =  2.0

     total cpu time spent up to now is       11.4 secs

     total energy              =    -329.47304219 Ry
     Harris-Foulkes estimate   =    -329.47334615 Ry
     estimated scf accuracy    <       0.00082241 Ry

     iteration # 45     ecut=    30.00 Ry     beta=0.70
     Davidson diagonalization with overlap
     ethr =  7.72E-07,  avg # of iterations =  3.0

     total cpu time spent up to now is       11.6 secs

     total energy              =    -329.47326135 Ry
     Harris-Foulkes estimate   =    -329.47288132 Ry
     estimated scf accuracy    <       0.00229932 Ry

     iteration # 46     ecut=    30.00 Ry     beta=0.70
     Davidson diagonalization with overlap
     ethr =  7.72E-07,  avg # of iterations =  2.0

     total cpu time spent up to now is       11.8 secs

     total energy              =    -329.47246396 Ry
     Harris-Foulkes estimate   =    -329.47319521 Ry
     estimated scf accuracy    <       0.00121202 Ry

     iteration # 47     ecut=    30.00 Ry     beta=0.70
     Davidson diagonalization with overlap
     ethr =  7.72E-07,  avg # of iterations =  6.0

     total cpu time spent up to now is       12.2 secs

     total energy              =    -329.47152278 Ry
     Harris-Foulkes estimate   =    -329.47180077 Ry
     estimated scf accuracy    <       0.00204074 Ry

     iteration # 48     ecut=    30.00 Ry     beta=0.70
     Davidson diagonalization with overlap
     ethr =  7.72E-07,  avg # of iterations =  3.0

     total cpu time spent up to now is       12.4 secs

     total energy              =    -329.47178501 Ry
     Harris-Foulkes estimate   =    -329.47184004 Ry
     estimated scf accuracy    <       0.00350513 Ry

     iteration # 49     ecut=    30.00 Ry     beta=0.70
     Davidson diagonalization with overlap
     ethr =  7.72E-07,  avg # of iterations =  1.0

     total cpu time spent up to now is       12.6 secs

     total energy              =    -329.47174046 Ry
     Harris-Foulkes estimate   =    -329.47179232 Ry
     estimated scf accuracy    <       0.00273902 Ry

     iteration # 50     ecut=    30.00 Ry     beta=0.70
     Davidson diagonalization with overlap
     ethr =  7.72E-07,  avg # of iterations =  1.0

     total cpu time spent up to now is       12.8 secs

     total energy              =    -329.47191799 Ry
     Harris-Foulkes estimate   =    -329.47174928 Ry
     estimated scf accuracy    <       0.00209287 Ry

     iteration # 51     ecut=    30.00 Ry     beta=0.70
     Davidson diagonalization with overlap
     ethr =  7.72E-07,  avg # of iterations =  5.0

     total cpu time spent up to now is       13.2 secs

     total energy              =    -329.47398435 Ry
     Harris-Foulkes estimate   =    -329.47380221 Ry
     estimated scf accuracy    <       0.00049657 Ry

     iteration # 52     ecut=    30.00 Ry     beta=0.70
     Davidson diagonalization with overlap
     ethr =  7.72E-07,  avg # of iterations =  1.0

     total cpu time spent up to now is       13.4 secs

     total energy              =    -329.47425818 Ry
     Harris-Foulkes estimate   =    -329.47398218 Ry
     estimated scf accuracy    <       0.00073973 Ry

     iteration # 53     ecut=    30.00 Ry     beta=0.70
     Davidson diagonalization with overlap
     ethr =  7.72E-07,  avg # of iterations =  2.0

     total cpu time spent up to now is       13.6 secs

     total energy              =    -329.47532122 Ry
     Harris-Foulkes estimate   =    -329.47428048 Ry
     estimated scf accuracy    <       0.00143444 Ry

     iteration # 54     ecut=    30.00 Ry     beta=0.70
     Davidson diagonalization with overlap
     ethr =  7.72E-07,  avg # of iterations =  3.0

     total cpu time spent up to now is       13.9 secs

     total energy              =    -329.47358373 Ry
     Harris-Foulkes estimate   =    -329.47550241 Ry
     estimated scf accuracy    <       0.00496860 Ry

     iteration # 55     ecut=    30.00 Ry     beta=0.70
     Davidson diagonalization with overlap
     ethr =  7.72E-07,  avg # of iterations =  3.0

     total cpu time spent up to now is       14.2 secs

     total energy              =    -329.47401705 Ry
     Harris-Foulkes estimate   =    -329.47396876 Ry
     estimated scf accuracy    <       0.00075367 Ry

     iteration # 56     ecut=    30.00 Ry     beta=0.70
     Davidson diagonalization with overlap
     ethr =  7.72E-07,  avg # of iterations =  1.0

     total cpu time spent up to now is       14.4 secs

     total energy              =    -329.47373100 Ry
     Harris-Foulkes estimate   =    -329.47401833 Ry
     estimated scf accuracy    <       0.00083442 Ry

     iteration # 57     ecut=    30.00 Ry     beta=0.70
     Davidson diagonalization with overlap
     ethr =  7.72E-07,  avg # of iterations =  2.0

     total cpu time spent up to now is       14.6 secs

     total energy              =    -329.47356230 Ry
     Harris-Foulkes estimate   =    -329.47373513 Ry
     estimated scf accuracy    <       0.00044759 Ry

     iteration # 58     ecut=    30.00 Ry     beta=0.70
     Davidson diagonalization with overlap
     ethr =  7.72E-07,  avg # of iterations =  2.0

     total cpu time spent up to now is       14.8 secs

     total energy              =    -329.47333590 Ry
     Harris-Foulkes estimate   =    -329.47353642 Ry
     estimated scf accuracy    <       0.00046435 Ry

     iteration # 59     ecut=    30.00 Ry     beta=0.70
     Davidson diagonalization with overlap
     ethr =  7.72E-07,  avg # of iterations =  3.0

     total cpu time spent up to now is       15.0 secs

     total energy              =    -329.47351942 Ry
     Harris-Foulkes estimate   =    -329.47324033 Ry
     estimated scf accuracy    <       0.00109788 Ry

     iteration # 60     ecut=    30.00 Ry     beta=0.70
     Davidson diagonalization with overlap
     ethr =  7.72E-07,  avg # of iterations =  2.0

     total cpu time spent up to now is       15.3 secs

     total energy              =    -329.47366447 Ry
     Harris-Foulkes estimate   =    -329.47345896 Ry
     estimated scf accuracy    <       0.00054205 Ry

     iteration # 61     ecut=    30.00 Ry     beta=0.70
     Davidson diagonalization with overlap
     ethr =  7.72E-07,  avg # of iterations =  2.0

     total cpu time spent up to now is       15.5 secs

     total energy              =    -329.47359835 Ry
     Harris-Foulkes estimate   =    -329.47362875 Ry
     estimated scf accuracy    <       0.00040071 Ry

     iteration # 62     ecut=    30.00 Ry     beta=0.70
     Davidson diagonalization with overlap
     ethr =  7.29E-07,  avg # of iterations =  1.0

     total cpu time spent up to now is       15.7 secs

     total energy              =    -329.47342229 Ry
     Harris-Foulkes estimate   =    -329.47359789 Ry
     estimated scf accuracy    <       0.00042546 Ry

     iteration # 63     ecut=    30.00 Ry     beta=0.70
     Davidson diagonalization with overlap
     ethr =  7.29E-07,  avg # of iterations =  2.0

     total cpu time spent up to now is       15.9 secs

     total energy              =    -329.47545023 Ry
     Harris-Foulkes estimate   =    -329.47335879 Ry
     estimated scf accuracy    <       0.00078300 Ry

     iteration # 64     ecut=    30.00 Ry     beta=0.70
     Davidson diagonalization with overlap
     ethr =  7.29E-07,  avg # of iterations =  4.0

     total cpu time spent up to now is       16.2 secs

     total energy              =    -329.47532129 Ry
     Harris-Foulkes estimate   =    -329.47476233 Ry
     estimated scf accuracy    <       0.00277314 Ry

     iteration # 65     ecut=    30.00 Ry     beta=0.70
     Davidson diagonalization with overlap
     ethr =  7.29E-07,  avg # of iterations =  2.0

     total cpu time spent up to now is       16.4 secs

     total energy              =    -329.47376928 Ry
     Harris-Foulkes estimate   =    -329.47535889 Ry
     estimated scf accuracy    <       0.00449324 Ry

     iteration # 66     ecut=    30.00 Ry     beta=0.70
     Davidson diagonalization with overlap
     ethr =  7.29E-07,  avg # of iterations =  3.0

     total cpu time spent up to now is       16.7 secs

     total energy              =    -329.47339731 Ry
     Harris-Foulkes estimate   =    -329.47404196 Ry
     estimated scf accuracy    <       0.00090706 Ry

     iteration # 67     ecut=    30.00 Ry     beta=0.70
     Davidson diagonalization with overlap
     ethr =  7.29E-07,  avg # of iterations =  5.0

     total cpu time spent up to now is       17.1 secs

     total energy              =    -329.47216663 Ry
     Harris-Foulkes estimate   =    -329.47272007 Ry
     estimated scf accuracy    <       0.00278188 Ry

     iteration # 68     ecut=    30.00 Ry     beta=0.70
     Davidson diagonalization with overlap
     ethr =  7.29E-07,  avg # of iterations =  3.0

     total cpu time spent up to now is       17.3 secs

     total energy              =    -329.47267865 Ry
     Harris-Foulkes estimate   =    -329.47209460 Ry
     estimated scf accuracy    <       0.00321718 Ry

     iteration # 69     ecut=    30.00 Ry     beta=0.70
     Davidson diagonalization with overlap
     ethr =  7.29E-07,  avg # of iterations =  2.0

     total cpu time spent up to now is       17.5 secs

     total energy              =    -329.47264772 Ry
     Harris-Foulkes estimate   =    -329.47267338 Ry
     estimated scf accuracy    <       0.00286003 Ry

     iteration # 70     ecut=    30.00 Ry     beta=0.70
     Davidson diagonalization with overlap
     ethr =  7.29E-07,  avg # of iterations =  1.0

     total cpu time spent up to now is       17.7 secs

     total energy              =    -329.47248772 Ry
     Harris-Foulkes estimate   =    -329.47264841 Ry
     estimated scf accuracy    <       0.00294823 Ry

     iteration # 71     ecut=    30.00 Ry     beta=0.70
     Davidson diagonalization with overlap
     ethr =  7.29E-07,  avg # of iterations =  1.0

     total cpu time spent up to now is       17.9 secs

     total energy              =    -329.47169502 Ry
     Harris-Foulkes estimate   =    -329.47248033 Ry
     estimated scf accuracy    <       0.00331434 Ry

     iteration # 72     ecut=    30.00 Ry     beta=0.70
     Davidson diagonalization with overlap
     ethr =  7.29E-07,  avg # of iterations =  3.0

     total cpu time spent up to now is       18.2 secs

     total energy              =    -329.47253922 Ry
     Harris-Foulkes estimate   =    -329.47175741 Ry
     estimated scf accuracy    <       0.00182510 Ry

     iteration # 73     ecut=    30.00 Ry     beta=0.70
     Davidson diagonalization with overlap
     ethr =  7.29E-07,  avg # of iterations =  3.0

     total cpu time spent up to now is       18.4 secs

     total energy              =    -329.47219457 Ry
     Harris-Foulkes estimate   =    -329.47291503 Ry
     estimated scf accuracy    <       0.00218232 Ry

     iteration # 74     ecut=    30.00 Ry     beta=0.70
     Davidson diagonalization with overlap
     ethr =  7.29E-07,  avg # of iterations =  3.0

     total cpu time spent up to now is       18.7 secs

     total energy              =    -329.47951518 Ry
     Harris-Foulkes estimate   =    -329.47197962 Ry
     estimated scf accuracy    <       0.00290113 Ry

     iteration # 75     ecut=    30.00 Ry     beta=0.70
     Davidson diagonalization with overlap
     ethr =  7.29E-07,  avg # of iterations =  5.0

     total cpu time spent up to now is       19.0 secs

     total energy              =    -329.47308911 Ry
     Harris-Foulkes estimate   =    -329.47601874 Ry
     estimated scf accuracy    <       0.00661059 Ry

     iteration # 76     ecut=    30.00 Ry     beta=0.70
     Davidson diagonalization with overlap
     ethr =  7.29E-07,  avg # of iterations =  7.0

     total cpu time spent up to now is       19.4 secs

     total energy              =    -329.50778633 Ry
     Harris-Foulkes estimate   =    -329.51116963 Ry
     estimated scf accuracy    <       1.07418392 Ry

     iteration # 77     ecut=    30.00 Ry     beta=0.70
     Davidson diagonalization with overlap
     ethr =  7.29E-07,  avg # of iterations =  1.0

     total cpu time spent up to now is       19.6 secs

     total energy              =    -329.50852341 Ry
     Harris-Foulkes estimate   =    -329.50784110 Ry
     estimated scf accuracy    <       0.99968825 Ry

     iteration # 78     ecut=    30.00 Ry     beta=0.70
     Davidson diagonalization with overlap
     ethr =  7.29E-07,  avg # of iterations =  1.0

     total cpu time spent up to now is       19.8 secs

     total energy              =    -329.48516543 Ry
     Harris-Foulkes estimate   =    -329.50852623 Ry
     estimated scf accuracy    <       1.01523219 Ry

     iteration # 79     ecut=    30.00 Ry     beta=0.70
     Davidson diagonalization with overlap
     ethr =  7.29E-07,  avg # of iterations =  6.0

     total cpu time spent up to now is       20.1 secs

     total energy              =    -329.49629034 Ry
     Harris-Foulkes estimate   =    -329.48857185 Ry
     estimated scf accuracy    <       0.46625226 Ry

     iteration # 80     ecut=    30.00 Ry     beta=0.70
     Davidson diagonalization with overlap
     ethr =  7.29E-07,  avg # of iterations =  3.0

     total cpu time spent up to now is       20.4 secs

     total energy              =    -329.48707729 Ry
     Harris-Foulkes estimate   =    -329.49717561 Ry
     estimated scf accuracy    <       0.71885896 Ry

     iteration # 81     ecut=    30.00 Ry     beta=0.70
     Davidson diagonalization with overlap
     ethr =  7.29E-07,  avg # of iterations =  3.0

     total cpu time spent up to now is       20.6 secs

     total energy              =    -329.50310775 Ry
     Harris-Foulkes estimate   =    -329.48805976 Ry
     estimated scf accuracy    <       0.45112278 Ry

     iteration # 82     ecut=    30.00 Ry     beta=0.70
     Davidson diagonalization with overlap
     ethr =  7.29E-07,  avg # of iterations =  4.0

     total cpu time spent up to now is       20.8 secs

     total energy              =    -329.19369485 Ry
     Harris-Foulkes estimate   =    -329.50646105 Ry
     estimated scf accuracy    <       0.96554614 Ry

     iteration # 83     ecut=    30.00 Ry     beta=0.70
     Davidson diagonalization with overlap
     ethr =  7.29E-07,  avg # of iterations = 13.0

     total cpu time spent up to now is       21.3 secs

     total energy              =    -329.45227816 Ry
     Harris-Foulkes estimate   =    -329.51661471 Ry
     estimated scf accuracy    <       0.14404695 Ry

     iteration # 84     ecut=    30.00 Ry     beta=0.70
     Davidson diagonalization with overlap
     ethr =  7.29E-07,  avg # of iterations =  6.0

     total cpu time spent up to now is       21.7 secs

     total energy              =    -329.47348613 Ry
     Harris-Foulkes estimate   =    -329.47412178 Ry
     estimated scf accuracy    <       0.00117951 Ry

     iteration # 85     ecut=    30.00 Ry     beta=0.70
     Davidson diagonalization with overlap
     ethr =  7.29E-07,  avg # of iterations =  5.0

     total cpu time spent up to now is       22.0 secs

     total energy              =    -329.47334326 Ry
     Harris-Foulkes estimate   =    -329.47355181 Ry
     estimated scf accuracy    <       0.00057230 Ry

     iteration # 86     ecut=    30.00 Ry     beta=0.70
     Davidson diagonalization with overlap
     ethr =  7.29E-07,  avg # of iterations =  2.0

     total cpu time spent up to now is       22.3 secs

     total energy              =    -329.47290800 Ry
     Harris-Foulkes estimate   =    -329.47330394 Ry
     estimated scf accuracy    <       0.00104311 Ry

     iteration # 87     ecut=    30.00 Ry     beta=0.70
     Davidson diagonalization with overlap
     ethr =  7.29E-07,  avg # of iterations =  3.0

     total cpu time spent up to now is       22.5 secs

     total energy              =    -329.47161773 Ry
     Harris-Foulkes estimate   =    -329.47265968 Ry
     estimated scf accuracy    <       0.00305674 Ry

     iteration # 88     ecut=    30.00 Ry     beta=0.70
     Davidson diagonalization with overlap
     ethr =  7.29E-07,  avg # of iterations =  6.0

     total cpu time spent up to now is       22.8 secs

     total energy              =    -329.47191458 Ry
     Harris-Foulkes estimate   =    -329.47176904 Ry
     estimated scf accuracy    <       0.00204699 Ry

     iteration # 89     ecut=    30.00 Ry     beta=0.70
     Davidson diagonalization with overlap
     ethr =  7.29E-07,  avg # of iterations =  3.0

     total cpu time spent up to now is       23.0 secs

     total energy              =    -329.47254997 Ry
     Harris-Foulkes estimate   =    -329.47245892 Ry
     estimated scf accuracy    <       0.01434695 Ry

     iteration # 90     ecut=    30.00 Ry     beta=0.70
     Davidson diagonalization with overlap
     ethr =  7.29E-07,  avg # of iterations =  1.0

     total cpu time spent up to now is       23.2 secs

     total energy              =    -329.47156672 Ry
     Harris-Foulkes estimate   =    -329.47255415 Ry
     estimated scf accuracy    <       0.01625504 Ry

     iteration # 91     ecut=    30.00 Ry     beta=0.70
     Davidson diagonalization with overlap
     ethr =  7.29E-07,  avg # of iterations =  2.0

     total cpu time spent up to now is       23.5 secs

     total energy              =    -329.47141963 Ry
     Harris-Foulkes estimate   =    -329.47188388 Ry
     estimated scf accuracy    <       0.00393109 Ry

     iteration # 92     ecut=    30.00 Ry     beta=0.70
     Davidson diagonalization with overlap
     ethr =  7.29E-07,  avg # of iterations =  3.0

     total cpu time spent up to now is       23.7 secs

     total energy              =    -329.47551049 Ry
     Harris-Foulkes estimate   =    -329.47188670 Ry
     estimated scf accuracy    <       0.00245934 Ry

     iteration # 93     ecut=    30.00 Ry     beta=0.70
     Davidson diagonalization with overlap
     ethr =  7.29E-07,  avg # of iterations =  6.0

     total cpu time spent up to now is       24.1 secs

     total energy              =    -329.47411473 Ry
     Harris-Foulkes estimate   =    -329.47413172 Ry
     estimated scf accuracy    <       0.00112616 Ry

     iteration # 94     ecut=    30.00 Ry     beta=0.70
     Davidson diagonalization with overlap
     ethr =  7.29E-07,  avg # of iterations =  1.0

     total cpu time spent up to now is       24.3 secs

     total energy              =    -329.47432111 Ry
     Harris-Foulkes estimate   =    -329.47411875 Ry
     estimated scf accuracy    <       0.00110143 Ry

     iteration # 95     ecut=    30.00 Ry     beta=0.70
     Davidson diagonalization with overlap
     ethr =  7.29E-07,  avg # of iterations =  1.0

     total cpu time spent up to now is       24.5 secs

     total energy              =    -329.47485939 Ry
     Harris-Foulkes estimate   =    -329.47432838 Ry
     estimated scf accuracy    <       0.00156147 Ry

     iteration # 96     ecut=    30.00 Ry     beta=0.70
     Davidson diagonalization with overlap
     ethr =  7.29E-07,  avg # of iterations =  2.0

     total cpu time spent up to now is       24.7 secs

     total energy              =    -329.47508590 Ry
     Harris-Foulkes estimate   =    -329.47491781 Ry
     estimated scf accuracy    <       0.00326574 Ry

     iteration # 97     ecut=    30.00 Ry     beta=0.70
     Davidson diagonalization with overlap
     ethr =  7.29E-07,  avg # of iterations =  1.0

     total cpu time spent up to now is       24.9 secs

     total energy              =    -329.47531634 Ry
     Harris-Foulkes estimate   =    -329.47508978 Ry
     estimated scf accuracy    <       0.00372525 Ry

     iteration # 98     ecut=    30.00 Ry     beta=0.70
     Davidson diagonalization with overlap
     ethr =  7.29E-07,  avg # of iterations =  1.0

     total cpu time spent up to now is       25.1 secs

     total energy              =    -329.47584933 Ry
     Harris-Foulkes estimate   =    -329.47532314 Ry
     estimated scf accuracy    <       0.00441186 Ry

     iteration # 99     ecut=    30.00 Ry     beta=0.70
     Davidson diagonalization with overlap
     ethr =  7.29E-07,  avg # of iterations =  1.0

     total cpu time spent up to now is       25.3 secs

     total energy              =    -329.47307311 Ry
     Harris-Foulkes estimate   =    -329.47587498 Ry
     estimated scf accuracy    <       0.00604627 Ry

     iteration #100     ecut=    30.00 Ry     beta=0.70
     Davidson diagonalization with overlap
     ethr =  7.29E-07,  avg # of iterations =  4.0

     total cpu time spent up to now is       25.7 secs

     total energy              =    -329.47359127 Ry
     Harris-Foulkes estimate   =    -329.47377889 Ry
     estimated scf accuracy    <       0.00048385 Ry

     End of self-consistent calculation

     convergence NOT achieved after 100 iterations: stopping

     Writing output data file pwscf.save
 
     init_run     :      0.17s CPU      0.21s WALL (       1 calls)
     electrons    :     23.49s CPU     25.35s WALL (       1 calls)

     Called by init_run:
     wfcinit      :      0.08s CPU      0.10s WALL (       1 calls)
     potinit      :      0.03s CPU      0.04s WALL (       1 calls)

     Called by electrons:
     c_bands      :     17.53s CPU     17.97s WALL (     101 calls)
     sum_band     :      2.62s CPU      2.69s WALL (     101 calls)
     v_of_rho     :      1.94s CPU      1.95s WALL (     101 calls)
     mix_rho      :      1.30s CPU      2.57s WALL (     101 calls)

     Called by c_bands:
     init_us_2    :      0.33s CPU      0.34s WALL (     203 calls)
     cegterg      :     15.51s CPU     15.89s WALL (     101 calls)

     Called by sum_band:

     Called by *egterg:
     h_psi        :     12.04s CPU     12.14s WALL (     388 calls)
     g_psi        :      0.12s CPU      0.12s WALL (     286 calls)
     cdiaghg      :      1.01s CPU      1.02s WALL (     386 calls)

     Called by h_psi:
     h_psi:pot    :     11.88s CPU     11.97s WALL (     388 calls)
     h_psi:calbec :      0.68s CPU      0.68s WALL (     388 calls)
     vloc_psi     :     10.45s CPU     10.53s WALL (     388 calls)
     add_vuspsi   :      0.75s CPU      0.75s WALL (     388 calls)

     General routines
     calbec       :      0.68s CPU      0.68s WALL (     388 calls)
     fft          :      1.04s CPU      1.05s WALL (    1113 calls)
     fftw         :     11.07s CPU     11.26s WALL (   20974 calls)
     davcio       :      0.23s CPU      1.03s WALL (    1928 calls)
 
     Parallel routines
     fft_scatter  :      2.87s CPU      2.73s WALL (   22087 calls)
 
     PWSCF        :    23.75s CPU        25.74s WALL

 
   This run was terminated on:  23:39:40   3Aug2017            

=------------------------------------------------------------------------------=
   JOB DONE.
=------------------------------------------------------------------------------=
