
     Program PWSCF v.6.0 (svn rev. 13079) starts on  3Aug2017 at 15:22:27 

     This program is part of the open-source Quantum ESPRESSO suite
     for quantum simulation of materials; please cite
         "P. Giannozzi et al., J. Phys.:Condens. Matter 21 395502 (2009);
          URL http://www.quantum-espresso.org", 
     in publications or presentations arising from this work. More details at
     http://www.quantum-espresso.org/quote

     Parallel version (MPI), running on    10 processors
     R & G space division:  proc/nbgrp/npool/nimage =      10
     Reading input from input/multi/minchecks-Gold5-209.in

     Current dimensions of program PWSCF are:
     Max number of different atomic species (ntypx) = 10
     Max number of k-points (npk) =  40000
     Max angular momentum in pseudopotentials (lmaxx) =  3
     Message from routine iosys:
     pot_extrapolation='second-order' not available, using 'atomic'
     Message from routine iosys:
     wfc_extrapolation='second-order' not available, using 'atomic'

     Subspace diagonalization in iterative solution of the eigenvalue problem:
     a serial algorithm will be used

 
     Parallelization info
     --------------------
     sticks:   dense  smooth     PW     G-vecs:    dense   smooth      PW
     Min         380     380     94                17748    17748    2208
     Max         381     381     95                17753    17753    2213
     Sum        3809    3809    949               177509   177509   22119
 


     bravais-lattice index     =            1
     lattice parameter (alat)  =      20.0000  a.u.
     unit-cell volume          =    8000.0000 (a.u.)^3
     number of atoms/cell      =            5
     number of atomic types    =            1
     number of electrons       =        55.00
     number of Kohn-Sham states=           34
     kinetic-energy cutoff     =      30.0000  Ry
     charge density cutoff     =     120.0000  Ry
     convergence threshold     =      1.0E-08
     mixing beta               =       0.7000
     number of iterations used =            8  plain     mixing
     Exchange-correlation      = BLYP ( 1  3  1  3 0 0)
     nstep                     =           50


     celldm(1)=  20.000000  celldm(2)=   0.000000  celldm(3)=   0.000000
     celldm(4)=   0.000000  celldm(5)=   0.000000  celldm(6)=   0.000000

     crystal axes: (cart. coord. in units of alat)
               a(1) = (   1.000000   0.000000   0.000000 )  
               a(2) = (   0.000000   1.000000   0.000000 )  
               a(3) = (   0.000000   0.000000   1.000000 )  

     reciprocal axes: (cart. coord. in units 2 pi/alat)
               b(1) = (  1.000000  0.000000  0.000000 )  
               b(2) = (  0.000000  1.000000  0.000000 )  
               b(3) = (  0.000000  0.000000  1.000000 )  


     PseudoPot. # 1 for Au read from file:
     ./Au.blyp-d-hgh.UPF
     MD5 check sum: c10d8bae01f806c36a1643a1c69a8479
     Pseudo is Norm-conserving, Zval = 11.0
     Generated in analytical, separable form
     Using radial grid of 1279 points,  6 beta functions with: 
                l(1) =   0
                l(2) =   0
                l(3) =   1
                l(4) =   1
                l(5) =   2
                l(6) =   2

     atomic species   valence    mass     pseudopotential
        Au            11.00    28.08600     Au( 1.00)

     No symmetry found



   Cartesian axes

     site n.     atom                  positions (alat units)
         1           Au  tau(   1) = (  -0.1045415   0.0743188  -0.0369225  )
         2           Au  tau(   2) = (  -0.0430017   0.1288935   0.2103805  )
         3           Au  tau(   3) = (   0.1421897   0.1144761   0.0296168  )
         4           Au  tau(   4) = (   0.2053475   0.1665526   0.2882137  )
         5           Au  tau(   5) = (   0.3821554   0.1008758   0.1103233  )

     number of k points=     1  Marzari-Vanderbilt smearing, width (Ry)=  0.0250
                       cart. coord. in units 2pi/alat
        k(    1) = (   0.0000000   0.0000000   0.0000000), wk =   2.0000000

     Dense  grid:   177509 G-vectors     FFT dimensions: (  72,  72,  72)

     Estimated max dynamical RAM per process >      15.04Mb

     Estimated total allocated dynamical RAM >     150.39Mb

     Initial potential from superposition of free atoms
     Check: negative starting charge=   -0.006579

     starting charge   54.99940, renormalised to   55.00000

     negative rho (up, down):  6.579E-03 0.000E+00
     Starting wfc are   45 randomized atomic wfcs

     total cpu time spent up to now is        0.3 secs

     per-process dynamical memory:    41.0 Mb

     Self-consistent Calculation

     iteration #  1     ecut=    30.00 Ry     beta=0.70
     Davidson diagonalization with overlap
     ethr =  1.00E-02,  avg # of iterations =  3.0

     Threshold (ethr) on eigenvalues was too large:
     Diagonalizing with lowered threshold

     Davidson diagonalization with overlap
     ethr =  3.97E-04,  avg # of iterations =  3.0

     negative rho (up, down):  9.109E-04 0.000E+00

     total cpu time spent up to now is        0.8 secs

     total energy              =    -329.38212421 Ry
     Harris-Foulkes estimate   =    -329.54502705 Ry
     estimated scf accuracy    <       0.27285909 Ry

     iteration #  2     ecut=    30.00 Ry     beta=0.70
     Davidson diagonalization with overlap
     ethr =  4.96E-04,  avg # of iterations =  2.0

     negative rho (up, down):  3.808E-04 0.000E+00

     total cpu time spent up to now is        1.0 secs

     total energy              =    -329.42746152 Ry
     Harris-Foulkes estimate   =    -329.54769427 Ry
     estimated scf accuracy    <       0.23976054 Ry

     iteration #  3     ecut=    30.00 Ry     beta=0.70
     Davidson diagonalization with overlap
     ethr =  4.36E-04,  avg # of iterations =  2.0

     negative rho (up, down):  1.401E-04 0.000E+00

     total cpu time spent up to now is        1.3 secs

     total energy              =    -329.47680352 Ry
     Harris-Foulkes estimate   =    -329.49481205 Ry
     estimated scf accuracy    <       0.04353041 Ry

     iteration #  4     ecut=    30.00 Ry     beta=0.70
     Davidson diagonalization with overlap
     ethr =  7.91E-05,  avg # of iterations =  2.0

     negative rho (up, down):  5.414E-06 0.000E+00

     total cpu time spent up to now is        1.6 secs

     total energy              =    -329.48573323 Ry
     Harris-Foulkes estimate   =    -329.48715660 Ry
     estimated scf accuracy    <       0.00359486 Ry

     iteration #  5     ecut=    30.00 Ry     beta=0.70
     Davidson diagonalization with overlap
     ethr =  6.54E-06,  avg # of iterations =  6.0

     total cpu time spent up to now is        2.1 secs

     total energy              =    -329.48644983 Ry
     Harris-Foulkes estimate   =    -329.48718406 Ry
     estimated scf accuracy    <       0.00187908 Ry

     iteration #  6     ecut=    30.00 Ry     beta=0.70
     Davidson diagonalization with overlap
     ethr =  3.42E-06,  avg # of iterations =  2.0

     total cpu time spent up to now is        2.3 secs

     total energy              =    -329.48677758 Ry
     Harris-Foulkes estimate   =    -329.48688354 Ry
     estimated scf accuracy    <       0.00026758 Ry

     iteration #  7     ecut=    30.00 Ry     beta=0.70
     Davidson diagonalization with overlap
     ethr =  4.87E-07,  avg # of iterations =  2.0

     total cpu time spent up to now is        2.5 secs

     total energy              =    -329.48683147 Ry
     Harris-Foulkes estimate   =    -329.48683750 Ry
     estimated scf accuracy    <       0.00001230 Ry

     iteration #  8     ecut=    30.00 Ry     beta=0.70
     Davidson diagonalization with overlap
     ethr =  2.24E-08,  avg # of iterations =  3.0

     total cpu time spent up to now is        2.8 secs

     total energy              =    -329.48683402 Ry
     Harris-Foulkes estimate   =    -329.48683705 Ry
     estimated scf accuracy    <       0.00000669 Ry

     iteration #  9     ecut=    30.00 Ry     beta=0.70
     Davidson diagonalization with overlap
     ethr =  1.22E-08,  avg # of iterations =  2.0

     total cpu time spent up to now is        3.0 secs

     total energy              =    -329.48683508 Ry
     Harris-Foulkes estimate   =    -329.48683573 Ry
     estimated scf accuracy    <       0.00000108 Ry

     iteration # 10     ecut=    30.00 Ry     beta=0.70
     Davidson diagonalization with overlap
     ethr =  1.96E-09,  avg # of iterations =  2.0

     total cpu time spent up to now is        3.4 secs

     total energy              =    -329.48683524 Ry
     Harris-Foulkes estimate   =    -329.48683543 Ry
     estimated scf accuracy    <       0.00000031 Ry

     iteration # 11     ecut=    30.00 Ry     beta=0.70
     Davidson diagonalization with overlap
     ethr =  5.56E-10,  avg # of iterations =  2.0

     total cpu time spent up to now is        3.7 secs

     End of self-consistent calculation

          k = 0.0000 0.0000 0.0000 ( 22119 PWs)   bands (ev):

    -8.4890  -7.7951  -7.7062  -7.2097  -6.8575  -6.7720  -6.5864  -6.5078
    -6.2771  -6.0947  -5.8985  -5.7990  -5.6860  -5.6235  -5.5125  -5.3726
    -5.2926  -5.2738  -5.2010  -5.1901  -5.1582  -5.1085  -5.0127  -4.9669
    -4.8274  -4.6950  -4.5368  -3.7580  -2.5397  -2.2452  -0.5821  -0.1684
     0.4568   0.8057

     the Fermi energy is    -3.7186 ev

!    total energy              =    -329.48683524 Ry
     Harris-Foulkes estimate   =    -329.48683530 Ry
     estimated scf accuracy    <          7.6E-09 Ry

     The total energy is the sum of the following terms:

     one-electron contribution =    -608.53029029 Ry
     hartree contribution      =     325.69641323 Ry
     xc contribution           =     -51.39235815 Ry
     ewald contribution        =       4.74533166 Ry
     smearing contrib. (-TS)   =      -0.00593169 Ry

     convergence has been achieved in  11 iterations

     Forces acting on atoms (Ry/au):

     atom    1 type  1   force =     0.01094244    0.00426752    0.00459495
     atom    2 type  1   force =    -0.00210500    0.00202485    0.00384036
     atom    3 type  1   force =    -0.00264804   -0.00845552   -0.01149845
     atom    4 type  1   force =    -0.00186661   -0.00101115    0.00171579
     atom    5 type  1   force =    -0.00432279    0.00317430    0.00134735

     Total force =     0.020763     Total SCF correction =     0.000345

     BFGS Geometry Optimization

     number of scf cycles    =   1
     number of bfgs steps    =   0

     energy   new            =    -329.4868352398 Ry

     new trust radius        =       0.0145162810 bohr
     new conv_thr            =       0.0000000100 Ry


ATOMIC_POSITIONS (bohr)
Au      -2.079887562   1.490642517  -0.733856046
Au      -0.862138998   2.579893854   4.211451360
Au       2.841144958   2.281066478   0.580837546
Au       4.105084388   3.330041853   5.765989788
Au       7.638784214   2.020691298   2.207812351



     Writing output data file pwscf.save
     Check: negative starting charge=   -0.006579
     NEW-OLD atomic charge density approx. for the potential
     Check: negative starting charge=   -0.006577

     negative rho (up, down):  1.603E-05 0.000E+00

     total cpu time spent up to now is        4.0 secs

     per-process dynamical memory:    42.9 Mb

     Self-consistent Calculation

     iteration #  1     ecut=    30.00 Ry     beta=0.70
     Davidson diagonalization with overlap
     ethr =  1.00E-06,  avg # of iterations =  4.0

     Threshold (ethr) on eigenvalues was too large:
     Diagonalizing with lowered threshold

     Davidson diagonalization with overlap
     ethr =  5.91E-08,  avg # of iterations =  1.0

     negative rho (up, down):  1.999E-08 0.000E+00

     total cpu time spent up to now is        4.6 secs

     total energy              =    -329.48722754 Ry
     Harris-Foulkes estimate   =    -329.48723450 Ry
     estimated scf accuracy    <       0.00003307 Ry

     iteration #  2     ecut=    30.00 Ry     beta=0.70
     Davidson diagonalization with overlap
     ethr =  6.01E-08,  avg # of iterations =  3.0

     total cpu time spent up to now is        4.8 secs

     total energy              =    -329.48722328 Ry
     Harris-Foulkes estimate   =    -329.48725719 Ry
     estimated scf accuracy    <       0.00008262 Ry

     iteration #  3     ecut=    30.00 Ry     beta=0.70
     Davidson diagonalization with overlap
     ethr =  6.01E-08,  avg # of iterations =  2.0

     total cpu time spent up to now is        5.1 secs

     total energy              =    -329.48723937 Ry
     Harris-Foulkes estimate   =    -329.48724215 Ry
     estimated scf accuracy    <       0.00000655 Ry

     iteration #  4     ecut=    30.00 Ry     beta=0.70
     Davidson diagonalization with overlap
     ethr =  1.19E-08,  avg # of iterations =  2.0

     total cpu time spent up to now is        5.4 secs

     total energy              =    -329.48724030 Ry
     Harris-Foulkes estimate   =    -329.48724096 Ry
     estimated scf accuracy    <       0.00000083 Ry

     iteration #  5     ecut=    30.00 Ry     beta=0.70
     Davidson diagonalization with overlap
     ethr =  1.50E-09,  avg # of iterations =  2.0

     total cpu time spent up to now is        5.6 secs

     total energy              =    -329.48724050 Ry
     Harris-Foulkes estimate   =    -329.48724057 Ry
     estimated scf accuracy    <       0.00000025 Ry

     iteration #  6     ecut=    30.00 Ry     beta=0.70
     Davidson diagonalization with overlap
     ethr =  4.54E-10,  avg # of iterations =  2.0

     total cpu time spent up to now is        5.8 secs

     total energy              =    -329.48724039 Ry
     Harris-Foulkes estimate   =    -329.48724056 Ry
     estimated scf accuracy    <       0.00000001 Ry

     iteration #  7     ecut=    30.00 Ry     beta=0.70
     Davidson diagonalization with overlap
     ethr =  2.11E-11,  avg # of iterations =  3.0

     total cpu time spent up to now is        6.0 secs

     End of self-consistent calculation

          k = 0.0000 0.0000 0.0000 ( 22119 PWs)   bands (ev):

    -8.4914  -7.7937  -7.6951  -7.2101  -6.8593  -6.7770  -6.5831  -6.5074
    -6.2766  -6.0965  -5.9018  -5.8005  -5.6911  -5.6273  -5.5101  -5.3730
    -5.2918  -5.2732  -5.2014  -5.1902  -5.1595  -5.1108  -5.0105  -4.9658
    -4.8316  -4.6942  -4.5344  -3.7585  -2.5363  -2.2449  -0.5815  -0.1725
     0.4591   0.8079

     the Fermi energy is    -3.7193 ev

!    total energy              =    -329.48724052 Ry
     Harris-Foulkes estimate   =    -329.48724039 Ry
     estimated scf accuracy    <          4.2E-09 Ry

     The total energy is the sum of the following terms:

     one-electron contribution =    -608.61146473 Ry
     hartree contribution      =     325.73647449 Ry
     xc contribution           =     -51.39264555 Ry
     ewald contribution        =       4.78627629 Ry
     smearing contrib. (-TS)   =      -0.00588102 Ry

     convergence has been achieved in   7 iterations

     Forces acting on atoms (Ry/au):

     atom    1 type  1   force =     0.00960441    0.00391402    0.00373098
     atom    2 type  1   force =    -0.00145508    0.00187824    0.00363351
     atom    3 type  1   force =    -0.00117536   -0.00775960   -0.00971685
     atom    4 type  1   force =    -0.00217107   -0.00114269    0.00118358
     atom    5 type  1   force =    -0.00480290    0.00311003    0.00116878

     Total force =     0.018381     Total SCF correction =     0.000291

     number of scf cycles    =   2
     number of bfgs steps    =   1

     energy   old            =    -329.4868352398 Ry
     energy   new            =    -329.4872405202 Ry

     CASE: energy  _new < energy  _old


     WARNING: bfgs curvature condition failed, Theta= 0.908
     new trust radius        =       0.0159679091 bohr
     new conv_thr            =       0.0000000004 Ry


ATOMIC_POSITIONS (bohr)
Au      -2.067644474   1.495593447  -0.729031079
Au      -0.864083423   2.582265063   4.216023159
Au       2.839384475   2.271252179   0.568365403
Au       4.102438421   3.328643463   5.767572125
Au       7.632892001   2.024581847   2.209305392



     Writing output data file pwscf.save
     Check: negative starting charge=   -0.006577
     NEW-OLD atomic charge density approx. for the potential
     Check: negative starting charge=   -0.006575

     negative rho (up, down):  2.498E-05 0.000E+00

     total cpu time spent up to now is        6.3 secs

     per-process dynamical memory:    50.5 Mb

     Self-consistent Calculation

     iteration #  1     ecut=    30.00 Ry     beta=0.70
     Davidson diagonalization with overlap
     ethr =  1.00E-06,  avg # of iterations =  4.0

     Threshold (ethr) on eigenvalues was too large:
     Diagonalizing with lowered threshold

     Davidson diagonalization with overlap
     ethr =  7.27E-08,  avg # of iterations =  1.0

     negative rho (up, down):  5.037E-08 0.000E+00

     total cpu time spent up to now is        6.8 secs

     total energy              =    -329.48762546 Ry
     Harris-Foulkes estimate   =    -329.48763231 Ry
     estimated scf accuracy    <       0.00004046 Ry

     iteration #  2     ecut=    30.00 Ry     beta=0.70
     Davidson diagonalization with overlap
     ethr =  7.36E-08,  avg # of iterations =  3.0

     total cpu time spent up to now is        7.1 secs

     total energy              =    -329.48762111 Ry
     Harris-Foulkes estimate   =    -329.48765951 Ry
     estimated scf accuracy    <       0.00009198 Ry

     iteration #  3     ecut=    30.00 Ry     beta=0.70
     Davidson diagonalization with overlap
     ethr =  7.36E-08,  avg # of iterations =  2.0

     total cpu time spent up to now is        7.3 secs

     total energy              =    -329.48763970 Ry
     Harris-Foulkes estimate   =    -329.48764306 Ry
     estimated scf accuracy    <       0.00000904 Ry

     iteration #  4     ecut=    30.00 Ry     beta=0.70
     Davidson diagonalization with overlap
     ethr =  1.64E-08,  avg # of iterations =  2.0

     total cpu time spent up to now is        7.5 secs

     total energy              =    -329.48764130 Ry
     Harris-Foulkes estimate   =    -329.48764184 Ry
     estimated scf accuracy    <       0.00000105 Ry

     iteration #  5     ecut=    30.00 Ry     beta=0.70
     Davidson diagonalization with overlap
     ethr =  1.92E-09,  avg # of iterations =  2.0

     total cpu time spent up to now is        7.7 secs

     total energy              =    -329.48764142 Ry
     Harris-Foulkes estimate   =    -329.48764164 Ry
     estimated scf accuracy    <       0.00000029 Ry

     iteration #  6     ecut=    30.00 Ry     beta=0.70
     Davidson diagonalization with overlap
     ethr =  5.28E-10,  avg # of iterations =  2.0

     total cpu time spent up to now is        7.9 secs

     total energy              =    -329.48764134 Ry
     Harris-Foulkes estimate   =    -329.48764149 Ry
     estimated scf accuracy    <       0.00000001 Ry

     iteration #  7     ecut=    30.00 Ry     beta=0.70
     Davidson diagonalization with overlap
     ethr =  2.52E-11,  avg # of iterations =  3.0

     total cpu time spent up to now is        8.2 secs

     total energy              =    -329.48764136 Ry
     Harris-Foulkes estimate   =    -329.48764135 Ry
     estimated scf accuracy    <          1.8E-09 Ry

     iteration #  8     ecut=    30.00 Ry     beta=0.70
     Davidson diagonalization with overlap
     ethr =  3.30E-12,  avg # of iterations =  2.0

     total cpu time spent up to now is        8.4 secs

     total energy              =    -329.48764133 Ry
     Harris-Foulkes estimate   =    -329.48764136 Ry
     estimated scf accuracy    <          7.3E-10 Ry

     iteration #  9     ecut=    30.00 Ry     beta=0.70
     Davidson diagonalization with overlap
     ethr =  1.33E-12,  avg # of iterations =  2.0

     total cpu time spent up to now is        8.7 secs

     End of self-consistent calculation

          k = 0.0000 0.0000 0.0000 ( 22119 PWs)   bands (ev):

    -8.4955  -7.7933  -7.6842  -7.2109  -6.8625  -6.7834  -6.5813  -6.5064
    -6.2764  -6.0982  -5.9064  -5.8021  -5.6973  -5.6314  -5.5063  -5.3737
    -5.2917  -5.2719  -5.2019  -5.1903  -5.1611  -5.1130  -5.0076  -4.9641
    -4.8359  -4.6933  -4.5312  -3.7593  -2.5318  -2.2440  -0.5811  -0.1773
     0.4619   0.8106

     the Fermi energy is    -3.7205 ev

!    total energy              =    -329.48764132 Ry
     Harris-Foulkes estimate   =    -329.48764134 Ry
     estimated scf accuracy    <          1.7E-10 Ry

     The total energy is the sum of the following terms:

     one-electron contribution =    -608.75708038 Ry
     hartree contribution      =     325.80887297 Ry
     xc contribution           =     -51.39329178 Ry
     ewald contribution        =       4.85966490 Ry
     smearing contrib. (-TS)   =      -0.00580704 Ry

     convergence has been achieved in   9 iterations

     Forces acting on atoms (Ry/au):

     atom    1 type  1   force =     0.00810241    0.00354951    0.00291089
     atom    2 type  1   force =    -0.00081009    0.00169849    0.00330741
     atom    3 type  1   force =     0.00027304   -0.00699669   -0.00795469
     atom    4 type  1   force =    -0.00246957   -0.00125039    0.00072390
     atom    5 type  1   force =    -0.00509579    0.00299908    0.00101250

     Total force =     0.016052     Total SCF correction =     0.000043

     number of scf cycles    =   3
     number of bfgs steps    =   2

     energy   old            =    -329.4872405202 Ry
     energy   new            =    -329.4876413231 Ry

     CASE: energy  _new < energy  _old

     new trust radius        =       0.0239518637 bohr
     new conv_thr            =       0.0000000004 Ry


ATOMIC_POSITIONS (bohr)
Au      -2.049302940   1.503400791  -0.722161142
Au      -0.866349587   2.585994658   4.223243785
Au       2.838710676   2.255842228   0.550041343
Au       4.097478916   3.326103291   5.769523816
Au       7.622449936   2.030995033   2.211587198



     Writing output data file pwscf.save
     Check: negative starting charge=   -0.006575
     NEW-OLD atomic charge density approx. for the potential
     Check: negative starting charge=   -0.006575

     negative rho (up, down):  9.435E-05 0.000E+00

     total cpu time spent up to now is        9.0 secs

     per-process dynamical memory:    50.5 Mb

     Self-consistent Calculation

     iteration #  1     ecut=    30.00 Ry     beta=0.70
     Davidson diagonalization with overlap
     ethr =  1.00E-06,  avg # of iterations =  4.0

     negative rho (up, down):  7.665E-07 0.000E+00

     total cpu time spent up to now is        9.6 secs

     total energy              =    -329.48811689 Ry
     Harris-Foulkes estimate   =    -329.48812789 Ry
     estimated scf accuracy    <       0.00009199 Ry

     iteration #  2     ecut=    30.00 Ry     beta=0.70
     Davidson diagonalization with overlap
     ethr =  1.67E-07,  avg # of iterations =  2.0

     negative rho (up, down):  9.996E-08 0.000E+00

     total cpu time spent up to now is        9.9 secs

     total energy              =    -329.48811195 Ry
     Harris-Foulkes estimate   =    -329.48818874 Ry
     estimated scf accuracy    <       0.00017983 Ry

     iteration #  3     ecut=    30.00 Ry     beta=0.70
     Davidson diagonalization with overlap
     ethr =  1.67E-07,  avg # of iterations =  2.0

     total cpu time spent up to now is       10.1 secs

     total energy              =    -329.48814973 Ry
     Harris-Foulkes estimate   =    -329.48815768 Ry
     estimated scf accuracy    <       0.00002292 Ry

     iteration #  4     ecut=    30.00 Ry     beta=0.70
     Davidson diagonalization with overlap
     ethr =  4.17E-08,  avg # of iterations =  2.0

     total cpu time spent up to now is       10.3 secs

     total energy              =    -329.48815342 Ry
     Harris-Foulkes estimate   =    -329.48815516 Ry
     estimated scf accuracy    <       0.00000265 Ry

     iteration #  5     ecut=    30.00 Ry     beta=0.70
     Davidson diagonalization with overlap
     ethr =  4.83E-09,  avg # of iterations =  3.0

     total cpu time spent up to now is       10.6 secs

     total energy              =    -329.48815393 Ry
     Harris-Foulkes estimate   =    -329.48815424 Ry
     estimated scf accuracy    <       0.00000074 Ry

     iteration #  6     ecut=    30.00 Ry     beta=0.70
     Davidson diagonalization with overlap
     ethr =  1.35E-09,  avg # of iterations =  2.0

     total cpu time spent up to now is       10.8 secs

     total energy              =    -329.48815401 Ry
     Harris-Foulkes estimate   =    -329.48815410 Ry
     estimated scf accuracy    <       0.00000004 Ry

     iteration #  7     ecut=    30.00 Ry     beta=0.70
     Davidson diagonalization with overlap
     ethr =  6.63E-11,  avg # of iterations =  3.0

     total cpu time spent up to now is       11.1 secs

     total energy              =    -329.48815407 Ry
     Harris-Foulkes estimate   =    -329.48815402 Ry
     estimated scf accuracy    <          5.7E-09 Ry

     iteration #  8     ecut=    30.00 Ry     beta=0.70
     Davidson diagonalization with overlap
     ethr =  1.04E-11,  avg # of iterations =  2.0

     total cpu time spent up to now is       11.5 secs

     total energy              =    -329.48815408 Ry
     Harris-Foulkes estimate   =    -329.48815407 Ry
     estimated scf accuracy    <          2.6E-09 Ry

     iteration #  9     ecut=    30.00 Ry     beta=0.70
     Davidson diagonalization with overlap
     ethr =  4.72E-12,  avg # of iterations =  2.0

     total cpu time spent up to now is       11.6 secs

     End of self-consistent calculation

          k = 0.0000 0.0000 0.0000 ( 22119 PWs)   bands (ev):

    -8.5032  -7.7941  -7.6704  -7.2124  -6.8687  -6.7941  -6.5823  -6.5036
    -6.2765  -6.0999  -5.9147  -5.8042  -5.7075  -5.6372  -5.4990  -5.3747
    -5.2927  -5.2688  -5.2028  -5.1907  -5.1634  -5.1156  -5.0025  -4.9611
    -4.8421  -4.6920  -4.5253  -3.7611  -2.5241  -2.2419  -0.5806  -0.1847
     0.4667   0.8154

     the Fermi energy is    -3.7229 ev

!    total energy              =    -329.48815407 Ry
     Harris-Foulkes estimate   =    -329.48815408 Ry
     estimated scf accuracy    <          3.6E-10 Ry

     The total energy is the sum of the following terms:

     one-electron contribution =    -609.05444761 Ry
     hartree contribution      =     325.95642617 Ry
     xc contribution           =     -51.39475316 Ry
     ewald contribution        =       5.01028034 Ry
     smearing contrib. (-TS)   =      -0.00565980 Ry

     convergence has been achieved in   9 iterations

     Forces acting on atoms (Ry/au):

     atom    1 type  1   force =     0.00578529    0.00304799    0.00180202
     atom    2 type  1   force =     0.00002090    0.00146652    0.00273669
     atom    3 type  1   force =     0.00198040   -0.00606496   -0.00573453
     atom    4 type  1   force =    -0.00275585   -0.00129436    0.00032968
     atom    5 type  1   force =    -0.00503074    0.00284480    0.00086613

     Total force =     0.013144     Total SCF correction =     0.000067

     number of scf cycles    =   4
     number of bfgs steps    =   3

     energy   old            =    -329.4876413231 Ry
     energy   new            =    -329.4881540669 Ry

     CASE: energy  _new < energy  _old

     new trust radius        =       0.0359277955 bohr
     new conv_thr            =       0.0000000005 Ry


ATOMIC_POSITIONS (bohr)
Au      -2.022821230   1.515516844  -0.712644598
Au      -0.868691184   2.591795316   4.234252437
Au       2.840508416   2.231822299   0.523383930
Au       4.088749703   3.321812549   5.772108961
Au       7.605241295   2.041388992   2.215134270



     Writing output data file pwscf.save
     Check: negative starting charge=   -0.006575
     NEW-OLD atomic charge density approx. for the potential
     Check: negative starting charge=   -0.006576

     negative rho (up, down):  2.632E-04 0.000E+00

     total cpu time spent up to now is       11.9 secs

     per-process dynamical memory:    50.7 Mb

     Self-consistent Calculation

     iteration #  1     ecut=    30.00 Ry     beta=0.70
     Davidson diagonalization with overlap
     ethr =  1.00E-06,  avg # of iterations =  4.0

     negative rho (up, down):  5.809E-06 0.000E+00

     total cpu time spent up to now is       12.3 secs

     total energy              =    -329.48864276 Ry
     Harris-Foulkes estimate   =    -329.48863585 Ry
     estimated scf accuracy    <       0.00020816 Ry

     iteration #  2     ecut=    30.00 Ry     beta=0.70
     Davidson diagonalization with overlap
     ethr =  3.78E-07,  avg # of iterations =  3.0

     negative rho (up, down):  1.090E-06 0.000E+00

     total cpu time spent up to now is       12.6 secs

     total energy              =    -329.48863790 Ry
     Harris-Foulkes estimate   =    -329.48879683 Ry
     estimated scf accuracy    <       0.00036476 Ry

     iteration #  3     ecut=    30.00 Ry     beta=0.70
     Davidson diagonalization with overlap
     ethr =  3.78E-07,  avg # of iterations =  2.0

     total cpu time spent up to now is       12.8 secs

     total energy              =    -329.48871602 Ry
     Harris-Foulkes estimate   =    -329.48873502 Ry
     estimated scf accuracy    <       0.00005639 Ry

     iteration #  4     ecut=    30.00 Ry     beta=0.70
     Davidson diagonalization with overlap
     ethr =  1.03E-07,  avg # of iterations =  2.0

     total cpu time spent up to now is       13.0 secs

     total energy              =    -329.48872721 Ry
     Harris-Foulkes estimate   =    -329.48872932 Ry
     estimated scf accuracy    <       0.00000635 Ry

     iteration #  5     ecut=    30.00 Ry     beta=0.70
     Davidson diagonalization with overlap
     ethr =  1.15E-08,  avg # of iterations =  2.0

     total cpu time spent up to now is       13.3 secs

     total energy              =    -329.48872837 Ry
     Harris-Foulkes estimate   =    -329.48872918 Ry
     estimated scf accuracy    <       0.00000186 Ry

     iteration #  6     ecut=    30.00 Ry     beta=0.70
     Davidson diagonalization with overlap
     ethr =  3.39E-09,  avg # of iterations =  2.0

     total cpu time spent up to now is       13.5 secs

     total energy              =    -329.48872875 Ry
     Harris-Foulkes estimate   =    -329.48872879 Ry
     estimated scf accuracy    <       0.00000009 Ry

     iteration #  7     ecut=    30.00 Ry     beta=0.70
     Davidson diagonalization with overlap
     ethr =  1.66E-10,  avg # of iterations =  2.0

     total cpu time spent up to now is       13.7 secs

     total energy              =    -329.48872870 Ry
     Harris-Foulkes estimate   =    -329.48872878 Ry
     estimated scf accuracy    <       0.00000003 Ry

     iteration #  8     ecut=    30.00 Ry     beta=0.70
     Davidson diagonalization with overlap
     ethr =  5.87E-11,  avg # of iterations =  2.0

     total cpu time spent up to now is       13.9 secs

     total energy              =    -329.48872873 Ry
     Harris-Foulkes estimate   =    -329.48872871 Ry
     estimated scf accuracy    <       0.00000001 Ry

     iteration #  9     ecut=    30.00 Ry     beta=0.70
     Davidson diagonalization with overlap
     ethr =  1.91E-11,  avg # of iterations =  2.0

     total cpu time spent up to now is       14.1 secs

     End of self-consistent calculation

          k = 0.0000 0.0000 0.0000 ( 22119 PWs)   bands (ev):

    -8.5161  -7.7964  -7.6543  -7.2139  -6.8797  -6.8110  -6.5892  -6.4970
    -6.2770  -6.1011  -5.9284  -5.8066  -5.7231  -5.6450  -5.4848  -5.3767
    -5.2961  -5.2623  -5.2042  -5.1912  -5.1667  -5.1186  -4.9936  -4.9556
    -4.8509  -4.6901  -4.5149  -3.7649  -2.5115  -2.2378  -0.5801  -0.1960
     0.4744   0.8234

     the Fermi energy is    -3.7278 ev

!    total energy              =    -329.48872873 Ry
     Harris-Foulkes estimate   =    -329.48872874 Ry
     estimated scf accuracy    <          4.4E-10 Ry

     The total energy is the sum of the following terms:

     one-electron contribution =    -609.56872762 Ry
     hartree contribution      =     326.21196141 Ry
     xc contribution           =     -51.39761005 Ry
     ewald contribution        =       5.27101518 Ry
     smearing contrib. (-TS)   =      -0.00536764 Ry

     convergence has been achieved in   9 iterations

     Forces acting on atoms (Ry/au):

     atom    1 type  1   force =     0.00219049    0.00241643    0.00032990
     atom    2 type  1   force =     0.00109319    0.00119493    0.00178463
     atom    3 type  1   force =     0.00359376   -0.00504515   -0.00288684
     atom    4 type  1   force =    -0.00279286   -0.00122069    0.00004680
     atom    5 type  1   force =    -0.00408458    0.00265448    0.00072551

     Total force =     0.009839     Total SCF correction =     0.000095

     number of scf cycles    =   5
     number of bfgs steps    =   4

     energy   old            =    -329.4881540669 Ry
     energy   new            =    -329.4887287339 Ry

     CASE: energy  _new < energy  _old

     new trust radius        =       0.0538916933 bohr
     new conv_thr            =       0.0000000005 Ry


ATOMIC_POSITIONS (bohr)
Au      -1.986883910   1.534279605  -0.700181177
Au      -0.870094373   2.600846134   4.250453494
Au       2.847394996   2.194108610   0.485508249
Au       4.074017206   3.314793633   5.775729856
Au       7.578553081   2.058308017   2.220724579



     Writing output data file pwscf.save
     Check: negative starting charge=   -0.006576
     NEW-OLD atomic charge density approx. for the potential
     Check: negative starting charge=   -0.006576

     negative rho (up, down):  5.942E-04 0.000E+00

     total cpu time spent up to now is       14.3 secs

     per-process dynamical memory:    50.7 Mb

     Self-consistent Calculation

     iteration #  1     ecut=    30.00 Ry     beta=0.70
     Davidson diagonalization with overlap
     ethr =  1.00E-06,  avg # of iterations =  6.0

     negative rho (up, down):  2.596E-05 0.000E+00

     total cpu time spent up to now is       14.7 secs

     total energy              =    -329.48894550 Ry
     Harris-Foulkes estimate   =    -329.48876800 Ry
     estimated scf accuracy    <       0.00046740 Ry

     iteration #  2     ecut=    30.00 Ry     beta=0.70
     Davidson diagonalization with overlap
     ethr =  8.50E-07,  avg # of iterations =  5.0

     negative rho (up, down):  6.421E-06 0.000E+00

     total cpu time spent up to now is       15.0 secs

     total energy              =    -329.48894716 Ry
     Harris-Foulkes estimate   =    -329.48927595 Ry
     estimated scf accuracy    <       0.00074135 Ry

     iteration #  3     ecut=    30.00 Ry     beta=0.70
     Davidson diagonalization with overlap
     ethr =  8.50E-07,  avg # of iterations =  2.0

     negative rho (up, down):  2.133E-07 0.000E+00

     total cpu time spent up to now is       15.3 secs

     total energy              =    -329.48910536 Ry
     Harris-Foulkes estimate   =    -329.48915222 Ry
     estimated scf accuracy    <       0.00013679 Ry

     iteration #  4     ecut=    30.00 Ry     beta=0.70
     Davidson diagonalization with overlap
     ethr =  2.49E-07,  avg # of iterations =  2.0

     total cpu time spent up to now is       15.5 secs

     total energy              =    -329.48913333 Ry
     Harris-Foulkes estimate   =    -329.48913754 Ry
     estimated scf accuracy    <       0.00001501 Ry

     iteration #  5     ecut=    30.00 Ry     beta=0.70
     Davidson diagonalization with overlap
     ethr =  2.73E-08,  avg # of iterations =  2.0

     total cpu time spent up to now is       15.7 secs

     total energy              =    -329.48913556 Ry
     Harris-Foulkes estimate   =    -329.48913816 Ry
     estimated scf accuracy    <       0.00000512 Ry

     iteration #  6     ecut=    30.00 Ry     beta=0.70
     Davidson diagonalization with overlap
     ethr =  9.32E-09,  avg # of iterations =  2.0

     total cpu time spent up to now is       16.0 secs

     total energy              =    -329.48913612 Ry
     Harris-Foulkes estimate   =    -329.48913662 Ry
     estimated scf accuracy    <       0.00000021 Ry

     iteration #  7     ecut=    30.00 Ry     beta=0.70
     Davidson diagonalization with overlap
     ethr =  3.73E-10,  avg # of iterations =  3.0

     total cpu time spent up to now is       16.2 secs

     total energy              =    -329.48913607 Ry
     Harris-Foulkes estimate   =    -329.48913622 Ry
     estimated scf accuracy    <       0.00000012 Ry

     iteration #  8     ecut=    30.00 Ry     beta=0.70
     Davidson diagonalization with overlap
     ethr =  2.22E-10,  avg # of iterations =  2.0

     total cpu time spent up to now is       16.5 secs

     total energy              =    -329.48913594 Ry
     Harris-Foulkes estimate   =    -329.48913610 Ry
     estimated scf accuracy    <       0.00000002 Ry

     iteration #  9     ecut=    30.00 Ry     beta=0.70
     Davidson diagonalization with overlap
     ethr =  3.16E-11,  avg # of iterations =  2.0

     total cpu time spent up to now is       16.7 secs

     total energy              =    -329.48913591 Ry
     Harris-Foulkes estimate   =    -329.48913595 Ry
     estimated scf accuracy    <          7.4E-10 Ry

     iteration # 10     ecut=    30.00 Ry     beta=0.70
     Davidson diagonalization with overlap
     ethr =  1.35E-12,  avg # of iterations =  3.0

     total cpu time spent up to now is       16.9 secs

     End of self-consistent calculation

          k = 0.0000 0.0000 0.0000 ( 22119 PWs)   bands (ev):

    -8.5354  -7.8000  -7.6395  -7.2128  -6.8980  -6.8351  -6.6053  -6.4858
    -6.2774  -6.1005  -5.9493  -5.8083  -5.7448  -5.6547  -5.4583  -5.3800
    -5.3028  -5.2506  -5.2062  -5.1919  -5.1703  -5.1224  -4.9790  -4.9459
    -4.8629  -4.6872  -4.4973  -3.7726  -2.4920  -2.2301  -0.5793  -0.2126
     0.4866   0.8368

     the Fermi energy is    -3.7380 ev

!    total energy              =    -329.48913589 Ry
     Harris-Foulkes estimate   =    -329.48913591 Ry
     estimated scf accuracy    <          3.4E-10 Ry

     The total energy is the sum of the following terms:

     one-electron contribution =    -610.36513260 Ry
     hartree contribution      =     326.60886976 Ry
     xc contribution           =     -51.40276214 Ry
     ewald contribution        =       5.67465860 Ry
     smearing contrib. (-TS)   =      -0.00476951 Ry

     convergence has been achieved in  10 iterations

     Forces acting on atoms (Ry/au):

     atom    1 type  1   force =    -0.00329427    0.00155580   -0.00164183
     atom    2 type  1   force =     0.00226632    0.00059448    0.00003766
     atom    3 type  1   force =     0.00443942   -0.00316968    0.00146795
     atom    4 type  1   force =    -0.00220097   -0.00121763   -0.00028277
     atom    5 type  1   force =    -0.00121049    0.00223703    0.00041899

     Total force =     0.008150     Total SCF correction =     0.000083

     number of scf cycles    =   6
     number of bfgs steps    =   5

     energy   old            =    -329.4887287339 Ry
     energy   new            =    -329.4891358946 Ry

     CASE: energy  _new < energy  _old

     new trust radius        =       0.0136774424 bohr
     new conv_thr            =       0.0000000004 Ry


ATOMIC_POSITIONS (bohr)
Au      -1.982979446   1.539689619  -0.699188596
Au      -0.868245620   2.603263564   4.253666900
Au       2.852680608   2.183230316   0.479120960
Au       4.069048427   3.312190687   5.776334954
Au       7.572483030   2.063961814   2.222300782



     Writing output data file pwscf.save
     Check: negative starting charge=   -0.006576
     NEW-OLD atomic charge density approx. for the potential
     Check: negative starting charge=   -0.006575

     negative rho (up, down):  1.303E-05 0.000E+00

     total cpu time spent up to now is       17.3 secs

     per-process dynamical memory:    50.7 Mb

     Self-consistent Calculation

     iteration #  1     ecut=    30.00 Ry     beta=0.70
     Davidson diagonalization with overlap
     ethr =  1.00E-06,  avg # of iterations =  4.0

     Threshold (ethr) on eigenvalues was too large:
     Diagonalizing with lowered threshold

     Davidson diagonalization with overlap
     ethr =  5.36E-08,  avg # of iterations =  1.0

     negative rho (up, down):  1.032E-08 0.000E+00

     total cpu time spent up to now is       18.0 secs

     total energy              =    -329.48919447 Ry
     Harris-Foulkes estimate   =    -329.48920539 Ry
     estimated scf accuracy    <       0.00003006 Ry

     iteration #  2     ecut=    30.00 Ry     beta=0.70
     Davidson diagonalization with overlap
     ethr =  5.46E-08,  avg # of iterations =  2.0

     total cpu time spent up to now is       18.3 secs

     total energy              =    -329.48919641 Ry
     Harris-Foulkes estimate   =    -329.48921281 Ry
     estimated scf accuracy    <       0.00003366 Ry

     iteration #  3     ecut=    30.00 Ry     beta=0.70
     Davidson diagonalization with overlap
     ethr =  5.46E-08,  avg # of iterations =  2.0

     total cpu time spent up to now is       18.5 secs

     total energy              =    -329.48920305 Ry
     Harris-Foulkes estimate   =    -329.48920652 Ry
     estimated scf accuracy    <       0.00000891 Ry

     iteration #  4     ecut=    30.00 Ry     beta=0.70
     Davidson diagonalization with overlap
     ethr =  1.62E-08,  avg # of iterations =  2.0

     total cpu time spent up to now is       18.7 secs

     total energy              =    -329.48920450 Ry
     Harris-Foulkes estimate   =    -329.48920531 Ry
     estimated scf accuracy    <       0.00000117 Ry

     iteration #  5     ecut=    30.00 Ry     beta=0.70
     Davidson diagonalization with overlap
     ethr =  2.13E-09,  avg # of iterations =  2.0

     total cpu time spent up to now is       18.9 secs

     total energy              =    -329.48920456 Ry
     Harris-Foulkes estimate   =    -329.48920480 Ry
     estimated scf accuracy    <       0.00000022 Ry

     iteration #  6     ecut=    30.00 Ry     beta=0.70
     Davidson diagonalization with overlap
     ethr =  3.98E-10,  avg # of iterations =  2.0

     total cpu time spent up to now is       19.2 secs

     total energy              =    -329.48920452 Ry
     Harris-Foulkes estimate   =    -329.48920461 Ry
     estimated scf accuracy    <       0.00000001 Ry

     iteration #  7     ecut=    30.00 Ry     beta=0.70
     Davidson diagonalization with overlap
     ethr =  2.06E-11,  avg # of iterations =  3.0

     total cpu time spent up to now is       19.4 secs

     total energy              =    -329.48920457 Ry
     Harris-Foulkes estimate   =    -329.48920452 Ry
     estimated scf accuracy    <          4.2E-09 Ry

     iteration #  8     ecut=    30.00 Ry     beta=0.70
     Davidson diagonalization with overlap
     ethr =  7.55E-12,  avg # of iterations =  2.0

     total cpu time spent up to now is       19.7 secs

     total energy              =    -329.48920456 Ry
     Harris-Foulkes estimate   =    -329.48920457 Ry
     estimated scf accuracy    <          1.3E-09 Ry

     iteration #  9     ecut=    30.00 Ry     beta=0.70
     Davidson diagonalization with overlap
     ethr =  2.29E-12,  avg # of iterations =  2.0

     total cpu time spent up to now is       19.9 secs

     End of self-consistent calculation

          k = 0.0000 0.0000 0.0000 ( 22119 PWs)   bands (ev):

    -8.5377  -7.7999  -7.6403  -7.2135  -6.9027  -6.8387  -6.6081  -6.4845
    -6.2793  -6.0991  -5.9535  -5.8067  -5.7482  -5.6568  -5.4523  -5.3808
    -5.3052  -5.2479  -5.2070  -5.1928  -5.1697  -5.1234  -4.9762  -4.9429
    -4.8646  -4.6875  -4.4929  -3.7753  -2.4884  -2.2272  -0.5794  -0.2163
     0.4888   0.8412

     the Fermi energy is    -3.7415 ev

!    total energy              =    -329.48920458 Ry
     Harris-Foulkes estimate   =    -329.48920456 Ry
     estimated scf accuracy    <          9.8E-11 Ry

     The total energy is the sum of the following terms:

     one-electron contribution =    -610.54101567 Ry
     hartree contribution      =     326.69671568 Ry
     xc contribution           =     -51.40394126 Ry
     ewald contribution        =       5.76362156 Ry
     smearing contrib. (-TS)   =      -0.00458488 Ry

     convergence has been achieved in   9 iterations

     Forces acting on atoms (Ry/au):

     atom    1 type  1   force =    -0.00355081    0.00151894   -0.00162110
     atom    2 type  1   force =     0.00210406    0.00031662   -0.00066584
     atom    3 type  1   force =     0.00325543   -0.00277874    0.00188440
     atom    4 type  1   force =    -0.00185085   -0.00116314   -0.00007738
     atom    5 type  1   force =     0.00004217    0.00210632    0.00047992

     Total force =     0.007337     Total SCF correction =     0.000038

     number of scf cycles    =   7
     number of bfgs steps    =   6

     energy   old            =    -329.4891358946 Ry
     energy   new            =    -329.4892045805 Ry

     CASE: energy  _new < energy  _old

     new trust radius        =       0.0150451867 bohr
     new conv_thr            =            1.0E-10 Ry


ATOMIC_POSITIONS (bohr)
Au      -1.983328690   1.546144644  -0.699926694
Au      -0.864515759   2.605651680   4.255518067
Au       2.860086183   2.170669748   0.475413236
Au       4.062896230   3.308687789   5.776969240
Au       7.567849036   2.071182140   2.224261152



     Writing output data file pwscf.save
     Check: negative starting charge=   -0.006575
     NEW-OLD atomic charge density approx. for the potential
     Check: negative starting charge=   -0.006574

     negative rho (up, down):  1.937E-05 0.000E+00

     total cpu time spent up to now is       20.1 secs

     per-process dynamical memory:    50.7 Mb

     Self-consistent Calculation

     iteration #  1     ecut=    30.00 Ry     beta=0.70
     Davidson diagonalization with overlap
     ethr =  1.00E-06,  avg # of iterations =  4.0

     Threshold (ethr) on eigenvalues was too large:
     Diagonalizing with lowered threshold

     Davidson diagonalization with overlap
     ethr =  7.26E-08,  avg # of iterations =  1.0

     negative rho (up, down):  2.238E-08 0.000E+00

     total cpu time spent up to now is       20.6 secs

     total energy              =    -329.48927654 Ry
     Harris-Foulkes estimate   =    -329.48929343 Ry
     estimated scf accuracy    <       0.00004052 Ry

     iteration #  2     ecut=    30.00 Ry     beta=0.70
     Davidson diagonalization with overlap
     ethr =  7.37E-08,  avg # of iterations =  2.0

     total cpu time spent up to now is       20.9 secs

     total energy              =    -329.48927989 Ry
     Harris-Foulkes estimate   =    -329.48930178 Ry
     estimated scf accuracy    <       0.00004487 Ry

     iteration #  3     ecut=    30.00 Ry     beta=0.70
     Davidson diagonalization with overlap
     ethr =  7.37E-08,  avg # of iterations =  2.0

     total cpu time spent up to now is       21.1 secs

     total energy              =    -329.48928843 Ry
     Harris-Foulkes estimate   =    -329.48929302 Ry
     estimated scf accuracy    <       0.00001143 Ry

     iteration #  4     ecut=    30.00 Ry     beta=0.70
     Davidson diagonalization with overlap
     ethr =  2.08E-08,  avg # of iterations =  2.0

     total cpu time spent up to now is       21.3 secs

     total energy              =    -329.48929070 Ry
     Harris-Foulkes estimate   =    -329.48929134 Ry
     estimated scf accuracy    <       0.00000141 Ry

     iteration #  5     ecut=    30.00 Ry     beta=0.70
     Davidson diagonalization with overlap
     ethr =  2.56E-09,  avg # of iterations =  2.0

     total cpu time spent up to now is       21.5 secs

     total energy              =    -329.48929098 Ry
     Harris-Foulkes estimate   =    -329.48929100 Ry
     estimated scf accuracy    <       0.00000013 Ry

     iteration #  6     ecut=    30.00 Ry     beta=0.70
     Davidson diagonalization with overlap
     ethr =  2.30E-10,  avg # of iterations =  2.0

     total cpu time spent up to now is       21.7 secs

     total energy              =    -329.48929095 Ry
     Harris-Foulkes estimate   =    -329.48929101 Ry
     estimated scf accuracy    <       0.00000001 Ry

     iteration #  7     ecut=    30.00 Ry     beta=0.70
     Davidson diagonalization with overlap
     ethr =  2.15E-11,  avg # of iterations =  3.0

     total cpu time spent up to now is       22.0 secs

     total energy              =    -329.48929091 Ry
     Harris-Foulkes estimate   =    -329.48929095 Ry
     estimated scf accuracy    <          3.9E-09 Ry

     iteration #  8     ecut=    30.00 Ry     beta=0.70
     Davidson diagonalization with overlap
     ethr =  7.16E-12,  avg # of iterations =  2.0

     total cpu time spent up to now is       22.2 secs

     total energy              =    -329.48929091 Ry
     Harris-Foulkes estimate   =    -329.48929091 Ry
     estimated scf accuracy    <          1.2E-09 Ry

     iteration #  9     ecut=    30.00 Ry     beta=0.70
     Davidson diagonalization with overlap
     ethr =  2.12E-12,  avg # of iterations =  2.0

     total cpu time spent up to now is       22.5 secs

     total energy              =    -329.48929090 Ry
     Harris-Foulkes estimate   =    -329.48929091 Ry
     estimated scf accuracy    <          2.1E-10 Ry

     iteration # 10     ecut=    30.00 Ry     beta=0.70
     Davidson diagonalization with overlap
     ethr =  3.83E-13,  avg # of iterations =  2.0

     total cpu time spent up to now is       22.7 secs

     End of self-consistent calculation

          k = 0.0000 0.0000 0.0000 ( 22119 PWs)   bands (ev):

    -8.5379  -7.7991  -7.6442  -7.2158  -6.9075  -6.8402  -6.6090  -6.4843
    -6.2830  -6.0966  -5.9566  -5.8033  -5.7497  -5.6590  -5.4476  -5.3815
    -5.3082  -5.2456  -5.2080  -5.1943  -5.1681  -5.1243  -4.9748  -4.9394
    -4.8655  -4.6887  -4.4888  -3.7784  -2.4863  -2.2234  -0.5796  -0.2194
     0.4901   0.8465

     the Fermi energy is    -3.7455 ev

!    total energy              =    -329.48929091 Ry
     Harris-Foulkes estimate   =    -329.48929090 Ry
     estimated scf accuracy    <          2.1E-11 Ry

     The total energy is the sum of the following terms:

     one-electron contribution =    -610.69247378 Ry
     hartree contribution      =     326.77228414 Ry
     xc contribution           =     -51.40490544 Ry
     ewald contribution        =       5.84019698 Ry
     smearing contrib. (-TS)   =      -0.00439282 Ry

     convergence has been achieved in  10 iterations

     Forces acting on atoms (Ry/au):

     atom    1 type  1   force =    -0.00284532    0.00161895   -0.00125365
     atom    2 type  1   force =     0.00155847   -0.00002527   -0.00148195
     atom    3 type  1   force =     0.00117964   -0.00256604    0.00175060
     atom    4 type  1   force =    -0.00133198   -0.00104396    0.00032698
     atom    5 type  1   force =     0.00143919    0.00201631    0.00065802

     Total force =     0.006123     Total SCF correction =     0.000021

     number of scf cycles    =   8
     number of bfgs steps    =   7

     energy   old            =    -329.4892045805 Ry
     energy   new            =    -329.4892909129 Ry

     CASE: energy  _new < energy  _old

     new trust radius        =       0.0225677800 bohr
     new conv_thr            =            1.0E-10 Ry


ATOMIC_POSITIONS (bohr)
Au      -1.986810462   1.556779245  -0.702230184
Au      -0.857946980   2.608668727   4.255855804
Au       2.870413832   2.150828561   0.472417961
Au       4.053334525   3.302823366   5.778421656
Au       7.563996085   2.083236101   2.227769763



     Writing output data file pwscf.save
     Check: negative starting charge=   -0.006574
     NEW-OLD atomic charge density approx. for the potential
     Check: negative starting charge=   -0.006573

     negative rho (up, down):  8.200E-05 0.000E+00

     total cpu time spent up to now is       22.9 secs

     per-process dynamical memory:    50.7 Mb

     Self-consistent Calculation

     iteration #  1     ecut=    30.00 Ry     beta=0.70
     Davidson diagonalization with overlap
     ethr =  1.00E-06,  avg # of iterations =  4.0

     negative rho (up, down):  5.200E-07 0.000E+00

     total cpu time spent up to now is       23.3 secs

     total energy              =    -329.48936199 Ry
     Harris-Foulkes estimate   =    -329.48940020 Ry
     estimated scf accuracy    <       0.00010271 Ry

     iteration #  2     ecut=    30.00 Ry     beta=0.70
     Davidson diagonalization with overlap
     ethr =  1.87E-07,  avg # of iterations =  2.0

     negative rho (up, down):  2.114E-08 0.000E+00

     total cpu time spent up to now is       23.6 secs

     total energy              =    -329.48937466 Ry
     Harris-Foulkes estimate   =    -329.48942468 Ry
     estimated scf accuracy    <       0.00010158 Ry

     iteration #  3     ecut=    30.00 Ry     beta=0.70
     Davidson diagonalization with overlap
     ethr =  1.85E-07,  avg # of iterations =  2.0

     total cpu time spent up to now is       23.8 secs

     total energy              =    -329.48939392 Ry
     Harris-Foulkes estimate   =    -329.48940332 Ry
     estimated scf accuracy    <       0.00002280 Ry

     iteration #  4     ecut=    30.00 Ry     beta=0.70
     Davidson diagonalization with overlap
     ethr =  4.15E-08,  avg # of iterations =  2.0

     total cpu time spent up to now is       24.0 secs

     total energy              =    -329.48939827 Ry
     Harris-Foulkes estimate   =    -329.48940051 Ry
     estimated scf accuracy    <       0.00000422 Ry

     iteration #  5     ecut=    30.00 Ry     beta=0.70
     Davidson diagonalization with overlap
     ethr =  7.67E-09,  avg # of iterations =  2.0

     total cpu time spent up to now is       24.2 secs

     total energy              =    -329.48939865 Ry
     Harris-Foulkes estimate   =    -329.48939905 Ry
     estimated scf accuracy    <       0.00000026 Ry

     iteration #  6     ecut=    30.00 Ry     beta=0.70
     Davidson diagonalization with overlap
     ethr =  4.75E-10,  avg # of iterations =  2.0

     total cpu time spent up to now is       24.4 secs

     total energy              =    -329.48939859 Ry
     Harris-Foulkes estimate   =    -329.48939873 Ry
     estimated scf accuracy    <       0.00000004 Ry

     iteration #  7     ecut=    30.00 Ry     beta=0.70
     Davidson diagonalization with overlap
     ethr =  6.72E-11,  avg # of iterations =  2.0

     total cpu time spent up to now is       24.7 secs

     total energy              =    -329.48939849 Ry
     Harris-Foulkes estimate   =    -329.48939860 Ry
     estimated scf accuracy    <       0.00000001 Ry

     iteration #  8     ecut=    30.00 Ry     beta=0.70
     Davidson diagonalization with overlap
     ethr =  2.30E-11,  avg # of iterations =  2.0

     total cpu time spent up to now is       24.9 secs

     total energy              =    -329.48939845 Ry
     Harris-Foulkes estimate   =    -329.48939849 Ry
     estimated scf accuracy    <          1.8E-09 Ry

     iteration #  9     ecut=    30.00 Ry     beta=0.70
     Davidson diagonalization with overlap
     ethr =  3.33E-12,  avg # of iterations =  2.0

     total cpu time spent up to now is       25.1 secs

     total energy              =    -329.48939847 Ry
     Harris-Foulkes estimate   =    -329.48939846 Ry
     estimated scf accuracy    <          2.7E-10 Ry

     iteration # 10     ecut=    30.00 Ry     beta=0.70
     Davidson diagonalization with overlap
     ethr =  4.88E-13,  avg # of iterations =  2.0

     total cpu time spent up to now is       25.4 secs

     End of self-consistent calculation

          k = 0.0000 0.0000 0.0000 ( 22119 PWs)   bands (ev):

    -8.5367  -7.7974  -7.6521  -7.2206  -6.9146  -6.8403  -6.6085  -6.4850
    -6.2897  -6.0921  -5.9599  -5.7974  -5.7503  -5.6622  -5.4425  -5.3825
    -5.3126  -5.2425  -5.2096  -5.1965  -5.1656  -5.1253  -4.9742  -4.9341
    -4.8664  -4.6904  -4.4835  -3.7827  -2.4854  -2.2173  -0.5802  -0.2231
     0.4910   0.8550

     the Fermi energy is    -3.7509 ev

!    total energy              =    -329.48939848 Ry
     Harris-Foulkes estimate   =    -329.48939847 Ry
     estimated scf accuracy    <          3.4E-11 Ry

     The total energy is the sum of the following terms:

     one-electron contribution =    -610.87919342 Ry
     hartree contribution      =     326.86533444 Ry
     xc contribution           =     -51.40606690 Ry
     ewald contribution        =       5.93465895 Ry
     smearing contrib. (-TS)   =      -0.00413154 Ry

     convergence has been achieved in  10 iterations

     Forces acting on atoms (Ry/au):

     atom    1 type  1   force =    -0.00143276    0.00179806   -0.00066132
     atom    2 type  1   force =     0.00047606   -0.00049011   -0.00248926
     atom    3 type  1   force =    -0.00161004   -0.00250330    0.00126785
     atom    4 type  1   force =    -0.00047598   -0.00083050    0.00093067
     atom    5 type  1   force =     0.00304272    0.00202585    0.00095207

     Total force =     0.006237     Total SCF correction =     0.000027

     number of scf cycles    =   9
     number of bfgs steps    =   8

     energy   old            =    -329.4892909129 Ry
     energy   new            =    -329.4893984796 Ry

     CASE: energy  _new < energy  _old

     new trust radius        =       0.0338516701 bohr
     new conv_thr            =       0.0000000001 Ry


ATOMIC_POSITIONS (bohr)
Au      -1.992465784   1.574073788  -0.706007909
Au      -0.848538903   2.612341314   4.253475756
Au       2.882797617   2.119495981   0.469124503
Au       4.039380880   3.293594116   5.781685078
Au       7.561813190   2.102830802   2.233957571



     Writing output data file pwscf.save
     Check: negative starting charge=   -0.006573
     NEW-OLD atomic charge density approx. for the potential
     Check: negative starting charge=   -0.006569

     negative rho (up, down):  2.518E-04 0.000E+00

     total cpu time spent up to now is       25.6 secs

     per-process dynamical memory:    50.7 Mb

     Self-consistent Calculation

     iteration #  1     ecut=    30.00 Ry     beta=0.70
     Davidson diagonalization with overlap
     ethr =  1.00E-06,  avg # of iterations =  4.0

     negative rho (up, down):  4.907E-06 0.000E+00

     total cpu time spent up to now is       26.1 secs

     total energy              =    -329.48943394 Ry
     Harris-Foulkes estimate   =    -329.48949116 Ry
     estimated scf accuracy    <       0.00024944 Ry

     iteration #  2     ecut=    30.00 Ry     beta=0.70
     Davidson diagonalization with overlap
     ethr =  4.54E-07,  avg # of iterations =  2.0

     negative rho (up, down):  4.135E-07 0.000E+00

     total cpu time spent up to now is       26.3 secs

     total energy              =    -329.48947809 Ry
     Harris-Foulkes estimate   =    -329.48957847 Ry
     estimated scf accuracy    <       0.00020507 Ry

     iteration #  3     ecut=    30.00 Ry     beta=0.70
     Davidson diagonalization with overlap
     ethr =  3.73E-07,  avg # of iterations =  2.0

     total cpu time spent up to now is       26.6 secs

     total energy              =    -329.48951672 Ry
     Harris-Foulkes estimate   =    -329.48953145 Ry
     estimated scf accuracy    <       0.00003222 Ry

     iteration #  4     ecut=    30.00 Ry     beta=0.70
     Davidson diagonalization with overlap
     ethr =  5.86E-08,  avg # of iterations =  2.0

     total cpu time spent up to now is       26.8 secs

     total energy              =    -329.48952367 Ry
     Harris-Foulkes estimate   =    -329.48952982 Ry
     estimated scf accuracy    <       0.00001578 Ry

     iteration #  5     ecut=    30.00 Ry     beta=0.70
     Davidson diagonalization with overlap
     ethr =  2.87E-08,  avg # of iterations =  2.0

     total cpu time spent up to now is       27.0 secs

     total energy              =    -329.48952577 Ry
     Harris-Foulkes estimate   =    -329.48952628 Ry
     estimated scf accuracy    <       0.00000046 Ry

     iteration #  6     ecut=    30.00 Ry     beta=0.70
     Davidson diagonalization with overlap
     ethr =  8.36E-10,  avg # of iterations =  3.0

     total cpu time spent up to now is       27.3 secs

     total energy              =    -329.48952594 Ry
     Harris-Foulkes estimate   =    -329.48952598 Ry
     estimated scf accuracy    <       0.00000012 Ry

     iteration #  7     ecut=    30.00 Ry     beta=0.70
     Davidson diagonalization with overlap
     ethr =  2.11E-10,  avg # of iterations =  2.0

     total cpu time spent up to now is       27.5 secs

     total energy              =    -329.48952588 Ry
     Harris-Foulkes estimate   =    -329.48952598 Ry
     estimated scf accuracy    <       0.00000003 Ry

     iteration #  8     ecut=    30.00 Ry     beta=0.70
     Davidson diagonalization with overlap
     ethr =  6.03E-11,  avg # of iterations =  2.0

     total cpu time spent up to now is       27.9 secs

     total energy              =    -329.48952586 Ry
     Harris-Foulkes estimate   =    -329.48952588 Ry
     estimated scf accuracy    <          3.4E-09 Ry

     iteration #  9     ecut=    30.00 Ry     beta=0.70
     Davidson diagonalization with overlap
     ethr =  6.19E-12,  avg # of iterations =  2.0

     total cpu time spent up to now is       28.1 secs

     total energy              =    -329.48952586 Ry
     Harris-Foulkes estimate   =    -329.48952586 Ry
     estimated scf accuracy    <          7.6E-10 Ry

     iteration # 10     ecut=    30.00 Ry     beta=0.70
     Davidson diagonalization with overlap
     ethr =  1.37E-12,  avg # of iterations =  2.0

     total cpu time spent up to now is       28.3 secs

     End of self-consistent calculation

          k = 0.0000 0.0000 0.0000 ( 22119 PWs)   bands (ev):

    -8.5339  -7.7947  -7.6635  -7.2281  -6.9250  -6.8385  -6.6068  -6.4863
    -6.2998  -6.0850  -5.9639  -5.7887  -5.7494  -5.6672  -5.4365  -5.3839
    -5.3189  -5.2383  -5.2118  -5.1991  -5.1626  -5.1266  -4.9750  -4.9265
    -4.8680  -4.6921  -4.4768  -3.7880  -2.4859  -2.2080  -0.5810  -0.2275
     0.4917   0.8677

     the Fermi energy is    -3.7578 ev

!    total energy              =    -329.48952580 Ry
     Harris-Foulkes estimate   =    -329.48952586 Ry
     estimated scf accuracy    <          6.1E-11 Ry

     The total energy is the sum of the following terms:

     one-electron contribution =    -611.10498692 Ry
     hartree contribution      =     326.97787431 Ry
     xc contribution           =     -51.40757245 Ry
     ewald contribution        =       6.04893779 Ry
     smearing contrib. (-TS)   =      -0.00377853 Ry

     convergence has been achieved in  10 iterations

     Forces acting on atoms (Ry/au):

     atom    1 type  1   force =     0.00030234    0.00196890   -0.00007631
     atom    2 type  1   force =    -0.00120357   -0.00097307   -0.00355274
     atom    3 type  1   force =    -0.00436516   -0.00280251    0.00071433
     atom    4 type  1   force =     0.00077345   -0.00045715    0.00161556
     atom    5 type  1   force =     0.00449293    0.00226383    0.00129917

     Total force =     0.008765     Total SCF correction =     0.000033

     number of scf cycles    =  10
     number of bfgs steps    =   9

     energy   old            =    -329.4893984796 Ry
     energy   new            =    -329.4895257953 Ry

     CASE: energy  _new < energy  _old

     new trust radius        =       0.0507775051 bohr
     new conv_thr            =       0.0000000001 Ry


ATOMIC_POSITIONS (bohr)
Au      -1.998752604   1.600868182  -0.711128079
Au      -0.836752870   2.617002773   4.247630165
Au       2.897287783   2.071112315   0.463888952
Au       4.020024706   3.279994293   5.787783491
Au       7.561179985   2.133358437   2.244060471



     Writing output data file pwscf.save
     Check: negative starting charge=   -0.006569
     NEW-OLD atomic charge density approx. for the potential
     Check: negative starting charge=   -0.006564

     negative rho (up, down):  5.898E-04 0.000E+00

     total cpu time spent up to now is       28.6 secs

     per-process dynamical memory:    50.7 Mb

     Self-consistent Calculation

     iteration #  1     ecut=    30.00 Ry     beta=0.70
     Davidson diagonalization with overlap
     ethr =  1.00E-06,  avg # of iterations =  9.0

     negative rho (up, down):  2.495E-05 0.000E+00

     total cpu time spent up to now is       29.0 secs

     total energy              =    -329.48948094 Ry
     Harris-Foulkes estimate   =    -329.48945654 Ry
     estimated scf accuracy    <       0.00057642 Ry

     iteration #  2     ecut=    30.00 Ry     beta=0.70
     Davidson diagonalization with overlap
     ethr =  1.05E-06,  avg # of iterations =  6.0

     negative rho (up, down):  3.347E-06 0.000E+00

     total cpu time spent up to now is       29.3 secs

     total energy              =    -329.48960198 Ry
     Harris-Foulkes estimate   =    -329.48980640 Ry
     estimated scf accuracy    <       0.00042604 Ry

     iteration #  3     ecut=    30.00 Ry     beta=0.70
     Davidson diagonalization with overlap
     ethr =  7.75E-07,  avg # of iterations =  2.0

     negative rho (up, down):  2.218E-08 0.000E+00

     total cpu time spent up to now is       29.5 secs

     total energy              =    -329.48968532 Ry
     Harris-Foulkes estimate   =    -329.48970197 Ry
     estimated scf accuracy    <       0.00003504 Ry

     iteration #  4     ecut=    30.00 Ry     beta=0.70
     Davidson diagonalization with overlap
     ethr =  6.37E-08,  avg # of iterations =  2.0

     total cpu time spent up to now is       29.8 secs

     total energy              =    -329.48969109 Ry
     Harris-Foulkes estimate   =    -329.48970876 Ry
     estimated scf accuracy    <       0.00004939 Ry

     iteration #  5     ecut=    30.00 Ry     beta=0.70
     Davidson diagonalization with overlap
     ethr =  6.37E-08,  avg # of iterations =  2.0

     total cpu time spent up to now is       30.0 secs

     total energy              =    -329.48969868 Ry
     Harris-Foulkes estimate   =    -329.48969916 Ry
     estimated scf accuracy    <       0.00000090 Ry

     iteration #  6     ecut=    30.00 Ry     beta=0.70
     Davidson diagonalization with overlap
     ethr =  1.63E-09,  avg # of iterations =  3.0

     total cpu time spent up to now is       30.2 secs

     total energy              =    -329.48969897 Ry
     Harris-Foulkes estimate   =    -329.48969905 Ry
     estimated scf accuracy    <       0.00000021 Ry

     iteration #  7     ecut=    30.00 Ry     beta=0.70
     Davidson diagonalization with overlap
     ethr =  3.90E-10,  avg # of iterations =  2.0

     total cpu time spent up to now is       30.5 secs

     total energy              =    -329.48969906 Ry
     Harris-Foulkes estimate   =    -329.48969903 Ry
     estimated scf accuracy    <       0.00000007 Ry

     iteration #  8     ecut=    30.00 Ry     beta=0.70
     Davidson diagonalization with overlap
     ethr =  1.29E-10,  avg # of iterations =  2.0

     total cpu time spent up to now is       30.7 secs

     total energy              =    -329.48969901 Ry
     Harris-Foulkes estimate   =    -329.48969908 Ry
     estimated scf accuracy    <       0.00000001 Ry

     iteration #  9     ecut=    30.00 Ry     beta=0.70
     Davidson diagonalization with overlap
     ethr =  2.28E-11,  avg # of iterations =  2.0

     total cpu time spent up to now is       30.9 secs

     total energy              =    -329.48969901 Ry
     Harris-Foulkes estimate   =    -329.48969901 Ry
     estimated scf accuracy    <          1.5E-09 Ry

     iteration # 10     ecut=    30.00 Ry     beta=0.70
     Davidson diagonalization with overlap
     ethr =  2.77E-12,  avg # of iterations =  2.0

     total cpu time spent up to now is       31.2 secs

     total energy              =    -329.48969902 Ry
     Harris-Foulkes estimate   =    -329.48969901 Ry
     estimated scf accuracy    <          1.7E-10 Ry

     iteration # 11     ecut=    30.00 Ry     beta=0.70
     Davidson diagonalization with overlap
     ethr =  3.17E-13,  avg # of iterations =  2.0

     total cpu time spent up to now is       31.4 secs

     End of self-consistent calculation

          k = 0.0000 0.0000 0.0000 ( 22119 PWs)   bands (ev):

    -8.5281  -7.7897  -7.6771  -7.2379  -6.9397  -6.8343  -6.6050  -6.4872
    -6.3133  -6.0744  -5.9690  -5.7779  -5.7460  -5.6747  -5.4281  -5.3861
    -5.3268  -5.2319  -5.2146  -5.2018  -5.1595  -5.1281  -4.9776  -4.9159
    -4.8704  -4.6933  -4.4674  -3.7945  -2.4880  -2.1951  -0.5819  -0.2333
     0.4920   0.8862

     the Fermi energy is    -3.7665 ev

!    total energy              =    -329.48969904 Ry
     Harris-Foulkes estimate   =    -329.48969902 Ry
     estimated scf accuracy    <          2.3E-11 Ry

     The total energy is the sum of the following terms:

     one-electron contribution =    -611.34871838 Ry
     hartree contribution      =     327.10006132 Ry
     xc contribution           =     -51.40962549 Ry
     ewald contribution        =       6.17186622 Ry
     smearing contrib. (-TS)   =      -0.00328271 Ry

     convergence has been achieved in  11 iterations

     Forces acting on atoms (Ry/au):

     atom    1 type  1   force =     0.00204639    0.00198846    0.00028060
     atom    2 type  1   force =    -0.00350675   -0.00122846   -0.00470359
     atom    3 type  1   force =    -0.00676534   -0.00351622    0.00055249
     atom    4 type  1   force =     0.00249952    0.00026413    0.00223421
     atom    5 type  1   force =     0.00572618    0.00249209    0.00163629

     Total force =     0.012473     Total SCF correction =     0.000023

     number of scf cycles    =  11
     number of bfgs steps    =  10

     energy   old            =    -329.4895257953 Ry
     energy   new            =    -329.4896990355 Ry

     CASE: energy  _new < energy  _old

     new trust radius        =       0.0761662576 bohr
     new conv_thr            =       0.0000000002 Ry


ATOMIC_POSITIONS (bohr)
Au      -2.006282807   1.641205089  -0.718650417
Au      -0.822328285   2.623377076   4.236472319
Au       2.915357608   1.997472513   0.456680642
Au       3.993533144   3.260542497   5.797900752
Au       7.562707340   2.179738825   2.259831704



     Writing output data file pwscf.save
     Check: negative starting charge=   -0.006564
     NEW-OLD atomic charge density approx. for the potential
     Check: negative starting charge=   -0.006541

     negative rho (up, down):  1.188E-03 0.000E+00

     total cpu time spent up to now is       31.7 secs

     per-process dynamical memory:    50.7 Mb

     Self-consistent Calculation

     iteration #  1     ecut=    30.00 Ry     beta=0.70
     Davidson diagonalization with overlap
     ethr =  1.00E-06,  avg # of iterations = 13.0

     negative rho (up, down):  8.326E-05 0.000E+00

     total cpu time spent up to now is       32.2 secs

     total energy              =    -329.48938477 Ry
     Harris-Foulkes estimate   =    -329.48907241 Ry
     estimated scf accuracy    <       0.00129690 Ry

     iteration #  2     ecut=    30.00 Ry     beta=0.70
     Davidson diagonalization with overlap
     ethr =  2.36E-06,  avg # of iterations =  7.0

     negative rho (up, down):  1.671E-05 0.000E+00

     total cpu time spent up to now is       32.6 secs

     total energy              =    -329.48967335 Ry
     Harris-Foulkes estimate   =    -329.49010697 Ry
     estimated scf accuracy    <       0.00091690 Ry

     iteration #  3     ecut=    30.00 Ry     beta=0.70
     Davidson diagonalization with overlap
     ethr =  1.67E-06,  avg # of iterations =  2.0

     negative rho (up, down):  2.917E-08 0.000E+00

     total cpu time spent up to now is       32.8 secs

     total energy              =    -329.48986232 Ry
     Harris-Foulkes estimate   =    -329.48987655 Ry
     estimated scf accuracy    <       0.00003965 Ry

     iteration #  4     ecut=    30.00 Ry     beta=0.70
     Davidson diagonalization with overlap
     ethr =  7.21E-08,  avg # of iterations =  3.0

     total cpu time spent up to now is       33.1 secs

     total energy              =    -329.48986463 Ry
     Harris-Foulkes estimate   =    -329.48989821 Ry
     estimated scf accuracy    <       0.00009886 Ry

     iteration #  5     ecut=    30.00 Ry     beta=0.70
     Davidson diagonalization with overlap
     ethr =  7.21E-08,  avg # of iterations =  2.0

     total cpu time spent up to now is       33.4 secs

     total energy              =    -329.48988038 Ry
     Harris-Foulkes estimate   =    -329.48988124 Ry
     estimated scf accuracy    <       0.00000198 Ry

     iteration #  6     ecut=    30.00 Ry     beta=0.70
     Davidson diagonalization with overlap
     ethr =  3.60E-09,  avg # of iterations =  2.0

     total cpu time spent up to now is       33.6 secs

     total energy              =    -329.48988059 Ry
     Harris-Foulkes estimate   =    -329.48988095 Ry
     estimated scf accuracy    <       0.00000033 Ry

     iteration #  7     ecut=    30.00 Ry     beta=0.70
     Davidson diagonalization with overlap
     ethr =  6.04E-10,  avg # of iterations =  2.0

     total cpu time spent up to now is       33.9 secs

     total energy              =    -329.48988055 Ry
     Harris-Foulkes estimate   =    -329.48988072 Ry
     estimated scf accuracy    <       0.00000018 Ry

     iteration #  8     ecut=    30.00 Ry     beta=0.70
     Davidson diagonalization with overlap
     ethr =  3.27E-10,  avg # of iterations =  2.0

     total cpu time spent up to now is       34.1 secs

     total energy              =    -329.48988062 Ry
     Harris-Foulkes estimate   =    -329.48988060 Ry
     estimated scf accuracy    <       0.00000002 Ry

     iteration #  9     ecut=    30.00 Ry     beta=0.70
     Davidson diagonalization with overlap
     ethr =  4.50E-11,  avg # of iterations =  2.0

     total cpu time spent up to now is       34.3 secs

     total energy              =    -329.48988063 Ry
     Harris-Foulkes estimate   =    -329.48988063 Ry
     estimated scf accuracy    <          2.1E-09 Ry

     iteration # 10     ecut=    30.00 Ry     beta=0.70
     Davidson diagonalization with overlap
     ethr =  3.84E-12,  avg # of iterations =  2.0

     total cpu time spent up to now is       34.6 secs

     total energy              =    -329.48988063 Ry
     Harris-Foulkes estimate   =    -329.48988063 Ry
     estimated scf accuracy    <          3.8E-10 Ry

     iteration # 11     ecut=    30.00 Ry     beta=0.70
     Davidson diagonalization with overlap
     ethr =  6.83E-13,  avg # of iterations =  2.0

     total cpu time spent up to now is       34.8 secs

     End of self-consistent calculation

          k = 0.0000 0.0000 0.0000 ( 22119 PWs)   bands (ev):

    -8.5144  -7.7797  -7.6917  -7.2494  -6.9587  -6.8261  -6.6028  -6.4868
    -6.3310  -6.0582  -5.9744  -5.7665  -5.7344  -5.6848  -5.4168  -5.3904
    -5.3355  -5.2224  -5.2176  -5.2047  -5.1556  -5.1295  -4.9838  -4.9021
    -4.8715  -4.6936  -4.4540  -3.8025  -2.4939  -2.1773  -0.5823  -0.2404
     0.4911   0.9123

     the Fermi energy is    -3.7778 ev

!    total energy              =    -329.48988061 Ry
     Harris-Foulkes estimate   =    -329.48988063 Ry
     estimated scf accuracy    <          3.7E-11 Ry

     The total energy is the sum of the following terms:

     one-electron contribution =    -611.51915081 Ry
     hartree contribution      =     327.18780091 Ry
     xc contribution           =     -51.41217959 Ry
     ewald contribution        =       6.25621540 Ry
     smearing contrib. (-TS)   =      -0.00256652 Ry

     convergence has been achieved in  11 iterations

     Forces acting on atoms (Ry/au):

     atom    1 type  1   force =     0.00388313    0.00117507    0.00029512
     atom    2 type  1   force =    -0.00677363   -0.00125989   -0.00619343
     atom    3 type  1   force =    -0.00901826   -0.00294853    0.00108448
     atom    4 type  1   force =     0.00509169    0.00120475    0.00264679
     atom    5 type  1   force =     0.00681707    0.00182859    0.00216704

     Total force =     0.016807     Total SCF correction =     0.000025

     number of scf cycles    =  12
     number of bfgs steps    =  11

     energy   old            =    -329.4896990355 Ry
     energy   new            =    -329.4898806131 Ry

     CASE: energy  _new < energy  _old

     new trust radius        =       0.0233838791 bohr
     new conv_thr            =       0.0000000002 Ry


ATOMIC_POSITIONS (bohr)
Au      -2.012198417   1.653578058  -0.723694901
Au      -0.821982938   2.623375103   4.224982553
Au       2.915176820   1.974655285   0.461794081
Au       3.990009536   3.255417917   5.802733761
Au       7.571981999   2.195309637   2.266419506



     Writing output data file pwscf.save
     Check: negative starting charge=   -0.006541
     NEW-OLD atomic charge density approx. for the potential
     Check: negative starting charge=   -0.006528

     negative rho (up, down):  1.222E-04 0.000E+00

     total cpu time spent up to now is       35.0 secs

     per-process dynamical memory:    50.7 Mb

     Self-consistent Calculation

     iteration #  1     ecut=    30.00 Ry     beta=0.70
     Davidson diagonalization with overlap
     ethr =  1.00E-06,  avg # of iterations =  4.0

     negative rho (up, down):  1.087E-06 0.000E+00

     total cpu time spent up to now is       35.4 secs

     total energy              =    -329.49002517 Ry
     Harris-Foulkes estimate   =    -329.49007191 Ry
     estimated scf accuracy    <       0.00014195 Ry

     iteration #  2     ecut=    30.00 Ry     beta=0.70
     Davidson diagonalization with overlap
     ethr =  2.58E-07,  avg # of iterations =  2.0

     negative rho (up, down):  5.491E-08 0.000E+00

     total cpu time spent up to now is       35.7 secs

     total energy              =    -329.49005282 Ry
     Harris-Foulkes estimate   =    -329.49010544 Ry
     estimated scf accuracy    <       0.00011170 Ry

     iteration #  3     ecut=    30.00 Ry     beta=0.70
     Davidson diagonalization with overlap
     ethr =  2.03E-07,  avg # of iterations =  2.0

     total cpu time spent up to now is       35.9 secs

     total energy              =    -329.49007443 Ry
     Harris-Foulkes estimate   =    -329.49008133 Ry
     estimated scf accuracy    <       0.00001679 Ry

     iteration #  4     ecut=    30.00 Ry     beta=0.70
     Davidson diagonalization with overlap
     ethr =  3.05E-08,  avg # of iterations =  2.0

     total cpu time spent up to now is       36.2 secs

     total energy              =    -329.49007897 Ry
     Harris-Foulkes estimate   =    -329.49008213 Ry
     estimated scf accuracy    <       0.00001168 Ry

     iteration #  5     ecut=    30.00 Ry     beta=0.70
     Davidson diagonalization with overlap
     ethr =  2.12E-08,  avg # of iterations =  2.0

     total cpu time spent up to now is       36.4 secs

     total energy              =    -329.49008065 Ry
     Harris-Foulkes estimate   =    -329.49008080 Ry
     estimated scf accuracy    <       0.00000021 Ry

     iteration #  6     ecut=    30.00 Ry     beta=0.70
     Davidson diagonalization with overlap
     ethr =  3.86E-10,  avg # of iterations =  3.0

     total cpu time spent up to now is       36.6 secs

     total energy              =    -329.49008078 Ry
     Harris-Foulkes estimate   =    -329.49008076 Ry
     estimated scf accuracy    <       0.00000005 Ry

     iteration #  7     ecut=    30.00 Ry     beta=0.70
     Davidson diagonalization with overlap
     ethr =  8.72E-11,  avg # of iterations =  2.0

     total cpu time spent up to now is       36.9 secs

[...]

     CASE: energy  _new < energy  _old

     new trust radius        =       0.0049096326 bohr
     new conv_thr            =            1.0E-10 Ry


ATOMIC_POSITIONS (bohr)
Au      -1.985712126   1.664789746  -0.775225622
Au      -0.868217421   2.620832155   4.192131006
Au       2.892686151   1.920486311   0.517220612
Au       4.011003668   3.256558359   5.820315276
Au       7.593226727   2.239669429   2.277793728



     Writing output data file pwscf.save
     Check: negative starting charge=   -0.006501
     NEW-OLD atomic charge density approx. for the potential
     Check: negative starting charge=   -0.006501

     negative rho (up, down):  5.473E-08 0.000E+00

     total cpu time spent up to now is       54.7 secs

     per-process dynamical memory:    50.7 Mb

     Self-consistent Calculation

     iteration #  1     ecut=    30.00 Ry     beta=0.70
     Davidson diagonalization with overlap
     ethr =  1.00E-06,  avg # of iterations =  3.0

     Threshold (ethr) on eigenvalues was too large:
     Diagonalizing with lowered threshold

     Davidson diagonalization with overlap
     ethr =  6.68E-09,  avg # of iterations =  2.0

     total cpu time spent up to now is       55.1 secs

     total energy              =    -329.49076102 Ry
     Harris-Foulkes estimate   =    -329.49076013 Ry
     estimated scf accuracy    <       0.00000391 Ry

     iteration #  2     ecut=    30.00 Ry     beta=0.70
     Davidson diagonalization with overlap
     ethr =  7.12E-09,  avg # of iterations =  2.0

     total cpu time spent up to now is       55.4 secs

     total energy              =    -329.49076071 Ry
     Harris-Foulkes estimate   =    -329.49076408 Ry
     estimated scf accuracy    <       0.00000757 Ry

     iteration #  3     ecut=    30.00 Ry     beta=0.70
     Davidson diagonalization with overlap
     ethr =  7.12E-09,  avg # of iterations =  2.0

     total cpu time spent up to now is       55.6 secs

     total energy              =    -329.49076265 Ry
     Harris-Foulkes estimate   =    -329.49076266 Ry
     estimated scf accuracy    <       0.00000101 Ry

     iteration #  4     ecut=    30.00 Ry     beta=0.70
     Davidson diagonalization with overlap
     ethr =  1.83E-09,  avg # of iterations =  2.0

     total cpu time spent up to now is       55.9 secs

     total energy              =    -329.49076282 Ry
     Harris-Foulkes estimate   =    -329.49076288 Ry
     estimated scf accuracy    <       0.00000009 Ry

     iteration #  5     ecut=    30.00 Ry     beta=0.70
     Davidson diagonalization with overlap
     ethr =  1.58E-10,  avg # of iterations =  2.0

     total cpu time spent up to now is       56.2 secs

     total energy              =    -329.49076288 Ry
     Harris-Foulkes estimate   =    -329.49076285 Ry
     estimated scf accuracy    <       0.00000002 Ry

     iteration #  6     ecut=    30.00 Ry     beta=0.70
     Davidson diagonalization with overlap
     ethr =  3.13E-11,  avg # of iterations =  2.0

     total cpu time spent up to now is       56.4 secs

     total energy              =    -329.49076287 Ry
     Harris-Foulkes estimate   =    -329.49076289 Ry
     estimated scf accuracy    <          2.7E-09 Ry

     iteration #  7     ecut=    30.00 Ry     beta=0.70
     Davidson diagonalization with overlap
     ethr =  4.95E-12,  avg # of iterations =  2.0

     total cpu time spent up to now is       56.6 secs

     total energy              =    -329.49076290 Ry
     Harris-Foulkes estimate   =    -329.49076287 Ry
     estimated scf accuracy    <          6.2E-10 Ry

     iteration #  8     ecut=    30.00 Ry     beta=0.70
     Davidson diagonalization with overlap
     ethr =  1.12E-12,  avg # of iterations =  2.0

     total cpu time spent up to now is       56.9 secs

     total energy              =    -329.49076289 Ry
     Harris-Foulkes estimate   =    -329.49076290 Ry
     estimated scf accuracy    <          1.4E-10 Ry

     iteration #  9     ecut=    30.00 Ry     beta=0.70
     Davidson diagonalization with overlap
     ethr =  2.53E-13,  avg # of iterations =  2.0

     total cpu time spent up to now is       57.1 secs

     End of self-consistent calculation

          k = 0.0000 0.0000 0.0000 ( 22119 PWs)   bands (ev):

    -8.5254  -7.7914  -7.6577  -7.2355  -6.9103  -6.8269  -6.6043  -6.4925
    -6.3024  -6.0776  -5.9758  -5.7683  -5.7363  -5.6904  -5.4487  -5.3767
    -5.3243  -5.2415  -5.2110  -5.2005  -5.1701  -5.1290  -4.9954  -4.9313
    -4.8852  -4.6882  -4.4914  -3.7807  -2.4985  -2.2133  -0.5811  -0.2221
     0.4747   0.9213

     the Fermi energy is    -3.7477 ev

!    total energy              =    -329.49076290 Ry
     Harris-Foulkes estimate   =    -329.49076289 Ry
     estimated scf accuracy    <          4.9E-11 Ry

     The total energy is the sum of the following terms:

     one-electron contribution =    -610.34386250 Ry
     hartree contribution      =     326.59211183 Ry
     xc contribution           =     -51.40363690 Ry
     ewald contribution        =       5.66902194 Ry
     smearing contrib. (-TS)   =      -0.00439728 Ry

     convergence has been achieved in   9 iterations

     Forces acting on atoms (Ry/au):

     atom    1 type  1   force =     0.00018013   -0.00067431    0.00005712
     atom    2 type  1   force =     0.00066442    0.00016127   -0.00012340
     atom    3 type  1   force =     0.00002680    0.00012105    0.00061289
     atom    4 type  1   force =    -0.00168561    0.00028837   -0.00033028
     atom    5 type  1   force =     0.00081427    0.00010363   -0.00021633

     Total force =     0.002262     Total SCF correction =     0.000023

     number of scf cycles    =  20
     number of bfgs steps    =  19

     energy   old            =    -329.4907516438 Ry
     energy   new            =    -329.4907628987 Ry

     CASE: energy  _new < energy  _old

     new trust radius        =       0.0054005958 bohr
     new conv_thr            =            1.0E-10 Ry


ATOMIC_POSITIONS (bohr)
Au      -1.986034139   1.662151217  -0.778330214
Au      -0.866975285   2.621241559   4.192184091
Au       2.893989327   1.920881898   0.522446670
Au       4.006928398   3.257594878   5.819323419
Au       7.595078699   2.240466448   2.276611034



     Writing output data file pwscf.save
     Check: negative starting charge=   -0.006501
     NEW-OLD atomic charge density approx. for the potential
     Check: negative starting charge=   -0.006501

     negative rho (up, down):  1.813E-07 0.000E+00

     total cpu time spent up to now is       57.4 secs

     per-process dynamical memory:    50.7 Mb

     Self-consistent Calculation

     iteration #  1     ecut=    30.00 Ry     beta=0.70
     Davidson diagonalization with overlap
     ethr =  1.00E-06,  avg # of iterations =  3.0

     Threshold (ethr) on eigenvalues was too large:
     Diagonalizing with lowered threshold

     Davidson diagonalization with overlap
     ethr =  1.02E-08,  avg # of iterations =  2.0

     total cpu time spent up to now is       57.9 secs

     total energy              =    -329.49077045 Ry
     Harris-Foulkes estimate   =    -329.49077006 Ry
     estimated scf accuracy    <       0.00000592 Ry

     iteration #  2     ecut=    30.00 Ry     beta=0.70
     Davidson diagonalization with overlap
     ethr =  1.08E-08,  avg # of iterations =  3.0

     total cpu time spent up to now is       58.1 secs

     total energy              =    -329.49076954 Ry
     Harris-Foulkes estimate   =    -329.49077563 Ry
     estimated scf accuracy    <       0.00001436 Ry

     iteration #  3     ecut=    30.00 Ry     beta=0.70
     Davidson diagonalization with overlap
     ethr =  1.08E-08,  avg # of iterations =  2.0

     total cpu time spent up to now is       58.4 secs

     total energy              =    -329.49077262 Ry
     Harris-Foulkes estimate   =    -329.49077288 Ry
     estimated scf accuracy    <       0.00000130 Ry

     iteration #  4     ecut=    30.00 Ry     beta=0.70
     Davidson diagonalization with overlap
     ethr =  2.37E-09,  avg # of iterations =  2.0

     total cpu time spent up to now is       58.6 secs

     total energy              =    -329.49077304 Ry
     Harris-Foulkes estimate   =    -329.49077294 Ry
     estimated scf accuracy    <       0.00000018 Ry

     iteration #  5     ecut=    30.00 Ry     beta=0.70
     Davidson diagonalization with overlap
     ethr =  3.35E-10,  avg # of iterations =  2.0

     total cpu time spent up to now is       58.8 secs

     total energy              =    -329.49077314 Ry
     Harris-Foulkes estimate   =    -329.49077310 Ry
     estimated scf accuracy    <       0.00000005 Ry

     iteration #  6     ecut=    30.00 Ry     beta=0.70
     Davidson diagonalization with overlap
     ethr =  9.42E-11,  avg # of iterations =  2.0

     total cpu time spent up to now is       59.0 secs

     total energy              =    -329.49077315 Ry
     Harris-Foulkes estimate   =    -329.49077316 Ry
     estimated scf accuracy    <          6.5E-09 Ry

     iteration #  7     ecut=    30.00 Ry     beta=0.70
     Davidson diagonalization with overlap
     ethr =  1.19E-11,  avg # of iterations =  2.0

     total cpu time spent up to now is       59.3 secs

     total energy              =    -329.49077318 Ry
     Harris-Foulkes estimate   =    -329.49077315 Ry
     estimated scf accuracy    <          1.2E-09 Ry

     iteration #  8     ecut=    30.00 Ry     beta=0.70
     Davidson diagonalization with overlap
     ethr =  2.11E-12,  avg # of iterations =  2.0

     total cpu time spent up to now is       59.5 secs

     total energy              =    -329.49077315 Ry
     Harris-Foulkes estimate   =    -329.49077318 Ry
     estimated scf accuracy    <          2.3E-10 Ry

     iteration #  9     ecut=    30.00 Ry     beta=0.70
     Davidson diagonalization with overlap
     ethr =  4.24E-13,  avg # of iterations =  2.0

     total cpu time spent up to now is       59.7 secs

     End of self-consistent calculation

          k = 0.0000 0.0000 0.0000 ( 22119 PWs)   bands (ev):

    -8.5261  -7.7913  -7.6641  -7.2368  -6.9098  -6.8269  -6.5990  -6.4948
    -6.3050  -6.0784  -5.9716  -5.7680  -5.7351  -5.6910  -5.4503  -5.3765
    -5.3249  -5.2423  -5.2115  -5.2008  -5.1689  -5.1283  -4.9956  -4.9310
    -4.8824  -4.6895  -4.4915  -3.7822  -2.4980  -2.2125  -0.5815  -0.2216
     0.4749   0.9226

     the Fermi energy is    -3.7494 ev

!    total energy              =    -329.49077318 Ry
     Harris-Foulkes estimate   =    -329.49077315 Ry
     estimated scf accuracy    <          2.2E-11 Ry

     The total energy is the sum of the following terms:

     one-electron contribution =    -610.39770924 Ry
     hartree contribution      =     326.61879738 Ry
     xc contribution           =     -51.40375545 Ry
     ewald contribution        =       5.69625259 Ry
     smearing contrib. (-TS)   =      -0.00435845 Ry

     convergence has been achieved in   9 iterations

     Forces acting on atoms (Ry/au):

     atom    1 type  1   force =     0.00063747   -0.00058529    0.00054576
     atom    2 type  1   force =     0.00004942    0.00008759   -0.00043991
     atom    3 type  1   force =    -0.00042768    0.00000689   -0.00002702
     atom    4 type  1   force =    -0.00109411    0.00033508   -0.00016387
     atom    5 type  1   force =     0.00083489    0.00015574    0.00008504

     Total force =     0.001871     Total SCF correction =     0.000017

     number of scf cycles    =  21
     number of bfgs steps    =  20

     energy   old            =    -329.4907628987 Ry
     energy   new            =    -329.4907731788 Ry

     CASE: energy  _new < energy  _old

     new trust radius        =       0.0041619094 bohr
     new conv_thr            =            1.0E-10 Ry


ATOMIC_POSITIONS (bohr)
Au      -1.985378638   1.659463689  -0.779309900
Au      -0.866141595   2.621596464   4.191816164
Au       2.894289193   1.921707601   0.525478162
Au       4.003061523   3.258796993   5.818362334
Au       7.597156517   2.240771253   2.275888239



     Writing output data file pwscf.save
     Check: negative starting charge=   -0.006501
     NEW-OLD atomic charge density approx. for the potential
     Check: negative starting charge=   -0.006502

     negative rho (up, down):  2.563E-08 0.000E+00

     total cpu time spent up to now is       60.0 secs

     per-process dynamical memory:    50.7 Mb

     Self-consistent Calculation

     iteration #  1     ecut=    30.00 Ry     beta=0.70
     Davidson diagonalization with overlap
     ethr =  1.00E-06,  avg # of iterations =  3.0

     Threshold (ethr) on eigenvalues was too large:
     Diagonalizing with lowered threshold

     Davidson diagonalization with overlap
     ethr =  5.96E-09,  avg # of iterations =  2.0

     total cpu time spent up to now is       60.4 secs

     total energy              =    -329.49077708 Ry
     Harris-Foulkes estimate   =    -329.49077740 Ry
     estimated scf accuracy    <       0.00000348 Ry

     iteration #  2     ecut=    30.00 Ry     beta=0.70
     Davidson diagonalization with overlap
     ethr =  6.34E-09,  avg # of iterations =  3.0

     total cpu time spent up to now is       60.7 secs

     total energy              =    -329.49077676 Ry
     Harris-Foulkes estimate   =    -329.49078013 Ry
     estimated scf accuracy    <       0.00000852 Ry

     iteration #  3     ecut=    30.00 Ry     beta=0.70
     Davidson diagonalization with overlap
     ethr =  6.34E-09,  avg # of iterations =  2.0

     total cpu time spent up to now is       60.9 secs

     total energy              =    -329.49077859 Ry
     Harris-Foulkes estimate   =    -329.49077875 Ry
     estimated scf accuracy    <       0.00000086 Ry

     iteration #  4     ecut=    30.00 Ry     beta=0.70
     Davidson diagonalization with overlap
     ethr =  1.56E-09,  avg # of iterations =  2.0

     total cpu time spent up to now is       61.2 secs

     total energy              =    -329.49077875 Ry
     Harris-Foulkes estimate   =    -329.49077880 Ry
     estimated scf accuracy    <       0.00000014 Ry

     iteration #  5     ecut=    30.00 Ry     beta=0.70
     Davidson diagonalization with overlap
     ethr =  2.47E-10,  avg # of iterations =  2.0

     total cpu time spent up to now is       61.4 secs

     total energy              =    -329.49077877 Ry
     Harris-Foulkes estimate   =    -329.49077879 Ry
     estimated scf accuracy    <       0.00000003 Ry

     iteration #  6     ecut=    30.00 Ry     beta=0.70
     Davidson diagonalization with overlap
     ethr =  5.13E-11,  avg # of iterations =  2.0

     total cpu time spent up to now is       61.6 secs

     total energy              =    -329.49077885 Ry
     Harris-Foulkes estimate   =    -329.49077878 Ry
     estimated scf accuracy    <          3.8E-09 Ry

     iteration #  7     ecut=    30.00 Ry     beta=0.70
     Davidson diagonalization with overlap
     ethr =  6.99E-12,  avg # of iterations =  2.0

     total cpu time spent up to now is       61.9 secs

     total energy              =    -329.49077891 Ry
     Harris-Foulkes estimate   =    -329.49077885 Ry
     estimated scf accuracy    <          6.0E-10 Ry

     iteration #  8     ecut=    30.00 Ry     beta=0.70
     Davidson diagonalization with overlap
     ethr =  1.09E-12,  avg # of iterations =  2.0

     total cpu time spent up to now is       62.1 secs

     total energy              =    -329.49077891 Ry
     Harris-Foulkes estimate   =    -329.49077891 Ry
     estimated scf accuracy    <          1.4E-10 Ry

     iteration #  9     ecut=    30.00 Ry     beta=0.70
     Davidson diagonalization with overlap
     ethr =  2.63E-13,  avg # of iterations =  2.0

     total cpu time spent up to now is       62.3 secs

     End of self-consistent calculation

          k = 0.0000 0.0000 0.0000 ( 22119 PWs)   bands (ev):

    -8.5271  -7.7913  -7.6693  -7.2381  -6.9098  -6.8272  -6.5953  -6.4965
    -6.3072  -6.0789  -5.9685  -5.7684  -5.7345  -5.6916  -5.4513  -5.3765
    -5.3253  -5.2428  -5.2117  -5.2006  -5.1685  -5.1277  -4.9958  -4.9304
    -4.8804  -4.6903  -4.4911  -3.7832  -2.4977  -2.2114  -0.5819  -0.2212
     0.4755   0.9234

     the Fermi energy is    -3.7506 ev

!    total energy              =    -329.49077892 Ry
     Harris-Foulkes estimate   =    -329.49077891 Ry
     estimated scf accuracy    <          1.3E-11 Ry

     The total energy is the sum of the following terms:

     one-electron contribution =    -610.47039065 Ry
     hartree contribution      =     326.65490020 Ry
     xc contribution           =     -51.40399930 Ry
     ewald contribution        =       5.73302911 Ry
     smearing contrib. (-TS)   =      -0.00431828 Ry

     convergence has been achieved in   9 iterations

     Forces acting on atoms (Ry/au):

     atom    1 type  1   force =     0.00072434   -0.00055078    0.00067318
     atom    2 type  1   force =    -0.00044485    0.00006262   -0.00051847
     atom    3 type  1   force =    -0.00031351   -0.00007994   -0.00034647
     atom    4 type  1   force =    -0.00055054    0.00035466   -0.00009482
     atom    5 type  1   force =     0.00058456    0.00021344    0.00028658

     Total force =     0.001698     Total SCF correction =     0.000014

     bfgs converged in  22 scf cycles and  21 bfgs steps
     (criteria: energy <  1.0E-04, force <  1.0E-03)

     End of BFGS Geometry Optimization

     Final energy   =    -329.4907789226 Ry
Begin final coordinates

ATOMIC_POSITIONS (bohr)
Au      -1.985378638   1.659463689  -0.779309900
Au      -0.866141595   2.621596464   4.191816164
Au       2.894289193   1.921707601   0.525478162
Au       4.003061523   3.258796993   5.818362334
Au       7.597156517   2.240771253   2.275888239
End final coordinates



     Writing output data file pwscf.save
 
     init_run     :      0.17s CPU      0.19s WALL (       1 calls)
     electrons    :     52.84s CPU     57.63s WALL (      22 calls)
     update_pot   :      1.65s CPU      2.07s WALL (      21 calls)
     forces       :      1.02s CPU      1.07s WALL (      22 calls)

     Called by init_run:
     wfcinit      :      0.07s CPU      0.09s WALL (       1 calls)
     potinit      :      0.03s CPU      0.04s WALL (       1 calls)

     Called by electrons:
     c_bands      :     40.54s CPU     42.05s WALL (     222 calls)
     sum_band     :      5.80s CPU      6.06s WALL (     222 calls)
     v_of_rho     :      4.48s CPU      4.64s WALL (     232 calls)
     mix_rho      :      1.81s CPU      3.58s WALL (     222 calls)

     Called by c_bands:
     init_us_2    :      0.71s CPU      0.77s WALL (     445 calls)
     cegterg      :     36.16s CPU     37.34s WALL (     222 calls)

     Called by sum_band:

     Called by *egterg:
     h_psi        :     28.50s CPU     29.37s WALL (     756 calls)
     g_psi        :      0.27s CPU      0.28s WALL (     533 calls)
     cdiaghg      :      1.79s CPU      1.83s WALL (     722 calls)

     Called by h_psi:
     h_psi:pot    :     28.13s CPU     28.98s WALL (     756 calls)
     h_psi:calbec :      1.55s CPU      1.58s WALL (     756 calls)
     vloc_psi     :     24.93s CPU     25.71s WALL (     756 calls)
     add_vuspsi   :      1.65s CPU      1.69s WALL (     756 calls)

     General routines
     calbec       :      1.82s CPU      1.87s WALL (     844 calls)
     fft          :      2.57s CPU      2.69s WALL (    2619 calls)
     fftw         :     26.65s CPU     27.43s WALL (   48874 calls)
     davcio       :      0.26s CPU      1.70s WALL (    2161 calls)
 
     Parallel routines
     fft_scatter  :      7.99s CPU      8.09s WALL (   51493 calls)
 
     PWSCF        :  0m56.38s CPU     1m 2.50s WALL

 
   This run was terminated on:  15:23:29   3Aug2017            

=------------------------------------------------------------------------------=
   JOB DONE.
=------------------------------------------------------------------------------=
