
     Program PWSCF v.6.0 (svn rev. 13079) starts on  3Aug2017 at 12:33:46 

     This program is part of the open-source Quantum ESPRESSO suite
     for quantum simulation of materials; please cite
         "P. Giannozzi et al., J. Phys.:Condens. Matter 21 395502 (2009);
          URL http://www.quantum-espresso.org", 
     in publications or presentations arising from this work. More details at
     http://www.quantum-espresso.org/quote

     Parallel version (MPI), running on    10 processors
     R & G space division:  proc/nbgrp/npool/nimage =      10
     Reading input from input/multi/minchecks-Gold5-99.in

     Current dimensions of program PWSCF are:
     Max number of different atomic species (ntypx) = 10
     Max number of k-points (npk) =  40000
     Max angular momentum in pseudopotentials (lmaxx) =  3
     Message from routine iosys:
     pot_extrapolation='second-order' not available, using 'atomic'
     Message from routine iosys:
     wfc_extrapolation='second-order' not available, using 'atomic'

     Subspace diagonalization in iterative solution of the eigenvalue problem:
     a serial algorithm will be used

 
     Parallelization info
     --------------------
     sticks:   dense  smooth     PW     G-vecs:    dense   smooth      PW
     Min         380     380     94                17748    17748    2208
     Max         381     381     95                17753    17753    2213
     Sum        3809    3809    949               177509   177509   22119
 


     bravais-lattice index     =            1
     lattice parameter (alat)  =      20.0000  a.u.
     unit-cell volume          =    8000.0000 (a.u.)^3
     number of atoms/cell      =            5
     number of atomic types    =            1
     number of electrons       =        55.00
     number of Kohn-Sham states=           34
     kinetic-energy cutoff     =      30.0000  Ry
     charge density cutoff     =     120.0000  Ry
     convergence threshold     =      1.0E-08
     mixing beta               =       0.7000
     number of iterations used =            8  plain     mixing
     Exchange-correlation      = BLYP ( 1  3  1  3 0 0)
     nstep                     =           50


     celldm(1)=  20.000000  celldm(2)=   0.000000  celldm(3)=   0.000000
     celldm(4)=   0.000000  celldm(5)=   0.000000  celldm(6)=   0.000000

     crystal axes: (cart. coord. in units of alat)
               a(1) = (   1.000000   0.000000   0.000000 )  
               a(2) = (   0.000000   1.000000   0.000000 )  
               a(3) = (   0.000000   0.000000   1.000000 )  

     reciprocal axes: (cart. coord. in units 2 pi/alat)
               b(1) = (  1.000000  0.000000  0.000000 )  
               b(2) = (  0.000000  1.000000  0.000000 )  
               b(3) = (  0.000000  0.000000  1.000000 )  


     PseudoPot. # 1 for Au read from file:
     ./Au.blyp-d-hgh.UPF
     MD5 check sum: c10d8bae01f806c36a1643a1c69a8479
     Pseudo is Norm-conserving, Zval = 11.0
     Generated in analytical, separable form
     Using radial grid of 1279 points,  6 beta functions with: 
                l(1) =   0
                l(2) =   0
                l(3) =   1
                l(4) =   1
                l(5) =   2
                l(6) =   2

     atomic species   valence    mass     pseudopotential
        Au            11.00    28.08600     Au( 1.00)

     No symmetry found



   Cartesian axes

     site n.     atom                  positions (alat units)
         1           Au  tau(   1) = (  -0.0936599   0.1135955  -0.0550645  )
         2           Au  tau(   2) = (  -0.0443862   0.1773582   0.1923518  )
         3           Au  tau(   3) = (   0.1492375   0.0980133   0.0294196  )
         4           Au  tau(   4) = (   0.1953313   0.1447075   0.3035574  )
         5           Au  tau(   5) = (   0.3740683   0.0885755   0.1408144  )

     number of k points=     1  Marzari-Vanderbilt smearing, width (Ry)=  0.0250
                       cart. coord. in units 2pi/alat
        k(    1) = (   0.0000000   0.0000000   0.0000000), wk =   2.0000000

     Dense  grid:   177509 G-vectors     FFT dimensions: (  72,  72,  72)

     Estimated max dynamical RAM per process >      15.04Mb

     Estimated total allocated dynamical RAM >     150.39Mb

     Initial potential from superposition of free atoms
     Check: negative starting charge=   -0.006502

     starting charge   54.99940, renormalised to   55.00000

     negative rho (up, down):  6.502E-03 0.000E+00
     Starting wfc are   45 randomized atomic wfcs

     total cpu time spent up to now is        0.3 secs

     per-process dynamical memory:    41.0 Mb

     Self-consistent Calculation

     iteration #  1     ecut=    30.00 Ry     beta=0.70
     Davidson diagonalization with overlap
     ethr =  1.00E-02,  avg # of iterations =  3.0

     Threshold (ethr) on eigenvalues was too large:
     Diagonalizing with lowered threshold

     Davidson diagonalization with overlap
     ethr =  4.23E-04,  avg # of iterations =  4.0

     negative rho (up, down):  9.009E-04 0.000E+00

     total cpu time spent up to now is        0.8 secs

     total energy              =    -329.37402490 Ry
     Harris-Foulkes estimate   =    -329.54837181 Ry
     estimated scf accuracy    <       0.28727674 Ry

     iteration #  2     ecut=    30.00 Ry     beta=0.70
     Davidson diagonalization with overlap
     ethr =  5.22E-04,  avg # of iterations =  2.0

     negative rho (up, down):  4.016E-04 0.000E+00

     total cpu time spent up to now is        1.0 secs

     total energy              =    -329.41081874 Ry
     Harris-Foulkes estimate   =    -329.56511121 Ry
     estimated scf accuracy    <       0.31680471 Ry

     iteration #  3     ecut=    30.00 Ry     beta=0.70
     Davidson diagonalization with overlap
     ethr =  5.22E-04,  avg # of iterations =  2.0

     negative rho (up, down):  1.490E-04 0.000E+00

     total cpu time spent up to now is        1.3 secs

     total energy              =    -329.47452285 Ry
     Harris-Foulkes estimate   =    -329.49978165 Ry
     estimated scf accuracy    <       0.06430291 Ry

     iteration #  4     ecut=    30.00 Ry     beta=0.70
     Davidson diagonalization with overlap
     ethr =  1.17E-04,  avg # of iterations =  2.0

     negative rho (up, down):  6.797E-06 0.000E+00

     total cpu time spent up to now is        1.5 secs

     total energy              =    -329.48683338 Ry
     Harris-Foulkes estimate   =    -329.48836376 Ry
     estimated scf accuracy    <       0.00385346 Ry

     iteration #  5     ecut=    30.00 Ry     beta=0.70
     Davidson diagonalization with overlap
     ethr =  7.01E-06,  avg # of iterations =  5.0

     total cpu time spent up to now is        1.8 secs

     total energy              =    -329.48759405 Ry
     Harris-Foulkes estimate   =    -329.48862273 Ry
     estimated scf accuracy    <       0.00273851 Ry

     iteration #  6     ecut=    30.00 Ry     beta=0.70
     Davidson diagonalization with overlap
     ethr =  4.98E-06,  avg # of iterations =  2.0

     total cpu time spent up to now is        2.0 secs

     total energy              =    -329.48805080 Ry
     Harris-Foulkes estimate   =    -329.48815997 Ry
     estimated scf accuracy    <       0.00024946 Ry

     iteration #  7     ecut=    30.00 Ry     beta=0.70
     Davidson diagonalization with overlap
     ethr =  4.54E-07,  avg # of iterations =  2.0

     total cpu time spent up to now is        2.3 secs

     total energy              =    -329.48810772 Ry
     Harris-Foulkes estimate   =    -329.48811613 Ry
     estimated scf accuracy    <       0.00001799 Ry

     iteration #  8     ecut=    30.00 Ry     beta=0.70
     Davidson diagonalization with overlap
     ethr =  3.27E-08,  avg # of iterations =  2.0

     total cpu time spent up to now is        2.5 secs

     total energy              =    -329.48811085 Ry
     Harris-Foulkes estimate   =    -329.48811457 Ry
     estimated scf accuracy    <       0.00000811 Ry

     iteration #  9     ecut=    30.00 Ry     beta=0.70
     Davidson diagonalization with overlap
     ethr =  1.47E-08,  avg # of iterations =  2.0

     total cpu time spent up to now is        2.8 secs

     total energy              =    -329.48811232 Ry
     Harris-Foulkes estimate   =    -329.48811297 Ry
     estimated scf accuracy    <       0.00000122 Ry

     iteration # 10     ecut=    30.00 Ry     beta=0.70
     Davidson diagonalization with overlap
     ethr =  2.22E-09,  avg # of iterations =  2.0

     total cpu time spent up to now is        3.0 secs

     total energy              =    -329.48811239 Ry
     Harris-Foulkes estimate   =    -329.48811269 Ry
     estimated scf accuracy    <       0.00000024 Ry

     iteration # 11     ecut=    30.00 Ry     beta=0.70
     Davidson diagonalization with overlap
     ethr =  4.33E-10,  avg # of iterations =  2.0

     total cpu time spent up to now is        3.3 secs

     total energy              =    -329.48811243 Ry
     Harris-Foulkes estimate   =    -329.48811244 Ry
     estimated scf accuracy    <       0.00000002 Ry

     iteration # 12     ecut=    30.00 Ry     beta=0.70
     Davidson diagonalization with overlap
     ethr =  2.85E-11,  avg # of iterations =  2.0

     total cpu time spent up to now is        3.5 secs

     End of self-consistent calculation

          k = 0.0000 0.0000 0.0000 ( 22119 PWs)   bands (ev):

    -8.4692  -7.8280  -7.5663  -7.2688  -6.8803  -6.8071  -6.6864  -6.5126
    -6.2747  -6.0598  -6.0242  -5.7275  -5.7113  -5.6651  -5.4595  -5.3690
    -5.3155  -5.2336  -5.2321  -5.1748  -5.1549  -5.1376  -5.0251  -4.9540
    -4.9226  -4.6600  -4.5312  -3.7155  -2.5190  -2.2419  -0.5589  -0.1909
     0.3800   0.8377

     the Fermi energy is    -3.6737 ev

!    total energy              =    -329.48811243 Ry
     Harris-Foulkes estimate   =    -329.48811244 Ry
     estimated scf accuracy    <          6.2E-09 Ry

     The total energy is the sum of the following terms:

     one-electron contribution =    -606.68819906 Ry
     hartree contribution      =     324.76279585 Ry
     xc contribution           =     -51.39321926 Ry
     ewald contribution        =       3.83707186 Ry
     smearing contrib. (-TS)   =      -0.00656182 Ry

     convergence has been achieved in  12 iterations

     Forces acting on atoms (Ry/au):

     atom    1 type  1   force =     0.01038204    0.00074016    0.00520615
     atom    2 type  1   force =     0.00894016   -0.00116220    0.00305341
     atom    3 type  1   force =    -0.01246500    0.00032072   -0.00272710
     atom    4 type  1   force =    -0.02579956    0.00647740    0.00757882
     atom    5 type  1   force =     0.01894236   -0.00637608   -0.01311127

     Total force =     0.041537     Total SCF correction =     0.000248

     BFGS Geometry Optimization

     number of scf cycles    =   1
     number of bfgs steps    =   0

     energy   new            =    -329.4881124325 Ry

     new trust radius        =       0.0276588611 bohr
     new conv_thr            =       0.0000000100 Ry


ATOMIC_POSITIONS (bohr)
Au      -1.862815964   2.272650156  -1.096083851
Au      -0.878783842   3.546002800   3.850089407
Au       2.972286004   1.960586723   0.585664902
Au       3.880826438   2.900626405   6.078725815
Au       7.500308364   1.765133916   2.803175727



     Writing output data file pwscf.save
     Check: negative starting charge=   -0.006502
     NEW-OLD atomic charge density approx. for the potential
     Check: negative starting charge=   -0.006495

     negative rho (up, down):  1.290E-04 0.000E+00

     total cpu time spent up to now is        3.8 secs

     per-process dynamical memory:    42.9 Mb

     Self-consistent Calculation

     iteration #  1     ecut=    30.00 Ry     beta=0.70
     Davidson diagonalization with overlap
     ethr =  1.00E-06,  avg # of iterations =  4.0

     negative rho (up, down):  1.558E-06 0.000E+00

     total cpu time spent up to now is        4.2 secs

     total energy              =    -329.48946065 Ry
     Harris-Foulkes estimate   =    -329.48949056 Ry
     estimated scf accuracy    <       0.00014827 Ry

     iteration #  2     ecut=    30.00 Ry     beta=0.70
     Davidson diagonalization with overlap
     ethr =  2.70E-07,  avg # of iterations =  3.0

     negative rho (up, down):  4.145E-07 0.000E+00

     total cpu time spent up to now is        4.5 secs

     total energy              =    -329.48941731 Ry
     Harris-Foulkes estimate   =    -329.48964988 Ry
     estimated scf accuracy    <       0.00066553 Ry

     iteration #  3     ecut=    30.00 Ry     beta=0.70
     Davidson diagonalization with overlap
     ethr =  2.70E-07,  avg # of iterations =  3.0

     total cpu time spent up to now is        4.8 secs

     total energy              =    -329.48953488 Ry
     Harris-Foulkes estimate   =    -329.48953557 Ry
     estimated scf accuracy    <       0.00001223 Ry

     iteration #  4     ecut=    30.00 Ry     beta=0.70
     Davidson diagonalization with overlap
     ethr =  2.22E-08,  avg # of iterations =  2.0

     total cpu time spent up to now is        5.0 secs

     total energy              =    -329.48953640 Ry
     Harris-Foulkes estimate   =    -329.48953854 Ry
     estimated scf accuracy    <       0.00000411 Ry

     iteration #  5     ecut=    30.00 Ry     beta=0.70
     Davidson diagonalization with overlap
     ethr =  7.47E-09,  avg # of iterations =  2.0

     total cpu time spent up to now is        5.3 secs

     total energy              =    -329.48953720 Ry
     Harris-Foulkes estimate   =    -329.48953752 Ry
     estimated scf accuracy    <       0.00000060 Ry

     iteration #  6     ecut=    30.00 Ry     beta=0.70
     Davidson diagonalization with overlap
     ethr =  1.09E-09,  avg # of iterations =  2.0

     total cpu time spent up to now is        5.5 secs

     total energy              =    -329.48953727 Ry
     Harris-Foulkes estimate   =    -329.48953736 Ry
     estimated scf accuracy    <       0.00000006 Ry

     iteration #  7     ecut=    30.00 Ry     beta=0.70
     Davidson diagonalization with overlap
     ethr =  1.02E-10,  avg # of iterations =  2.0

     total cpu time spent up to now is        5.8 secs

     total energy              =    -329.48953721 Ry
     Harris-Foulkes estimate   =    -329.48953728 Ry
     estimated scf accuracy    <       0.00000001 Ry

     iteration #  8     ecut=    30.00 Ry     beta=0.70
     Davidson diagonalization with overlap
     ethr =  2.09E-11,  avg # of iterations =  2.0

     total cpu time spent up to now is        6.0 secs

     End of self-consistent calculation

          k = 0.0000 0.0000 0.0000 ( 22119 PWs)   bands (ev):

    -8.4600  -7.7997  -7.5727  -7.2539  -6.8933  -6.7926  -6.6575  -6.4993
    -6.2755  -6.0581  -6.0144  -5.7329  -5.7161  -5.6693  -5.4543  -5.3730
    -5.3160  -5.2353  -5.2262  -5.1807  -5.1626  -5.1374  -5.0231  -4.9551
    -4.9197  -4.6626  -4.5300  -3.7290  -2.5136  -2.2437  -0.5584  -0.1953
     0.3877   0.8437

     the Fermi energy is    -3.6881 ev

!    total energy              =    -329.48953715 Ry
     Harris-Foulkes estimate   =    -329.48953721 Ry
     estimated scf accuracy    <          1.2E-09 Ry

     The total energy is the sum of the following terms:

     one-electron contribution =    -606.46106457 Ry
     hartree contribution      =     324.65331379 Ry
     xc contribution           =     -51.39103867 Ry
     ewald contribution        =       3.71556944 Ry
     smearing contrib. (-TS)   =      -0.00631715 Ry

     convergence has been achieved in   8 iterations

     Forces acting on atoms (Ry/au):

     atom    1 type  1   force =     0.00767505    0.00052931    0.00385495
     atom    2 type  1   force =     0.00710253   -0.00086803    0.00321662
     atom    3 type  1   force =    -0.00641146   -0.00015373   -0.00066856
     atom    4 type  1   force =    -0.01854991    0.00486511    0.00297734
     atom    5 type  1   force =     0.01018379   -0.00437266   -0.00938035

     Total force =     0.027652     Total SCF correction =     0.000134

     number of scf cycles    =   2
     number of bfgs steps    =   1

     energy   old            =    -329.4881124325 Ry
     energy   new            =    -329.4895371497 Ry

     CASE: energy  _new < energy  _old

     new trust radius        =       0.0304247472 bohr
     new conv_thr            =       0.0000000014 Ry


ATOMIC_POSITIONS (bohr)
Au      -1.850809008   2.273479504  -1.090053562
Au      -0.867708068   3.544645476   3.855052475
Au       2.962054039   1.960374364   0.584522002
Au       3.851769078   2.908231927   6.083572578
Au       7.516514959   1.758268730   2.788478507



     Writing output data file pwscf.save
     Check: negative starting charge=   -0.006495
     NEW-OLD atomic charge density approx. for the potential
     Check: negative starting charge=   -0.006495

     negative rho (up, down):  1.493E-04 0.000E+00

     total cpu time spent up to now is        6.2 secs

     per-process dynamical memory:    50.7 Mb

     Self-consistent Calculation

     iteration #  1     ecut=    30.00 Ry     beta=0.70
     Davidson diagonalization with overlap
     ethr =  1.00E-06,  avg # of iterations =  4.0

     negative rho (up, down):  2.135E-06 0.000E+00

     total cpu time spent up to now is        6.6 secs

     total energy              =    -329.49039518 Ry
     Harris-Foulkes estimate   =    -329.49041333 Ry
     estimated scf accuracy    <       0.00014374 Ry

     iteration #  2     ecut=    30.00 Ry     beta=0.70
     Davidson diagonalization with overlap
     ethr =  2.61E-07,  avg # of iterations =  3.0

     negative rho (up, down):  5.809E-07 0.000E+00

     total cpu time spent up to now is        6.9 secs

     total energy              =    -329.49035333 Ry
     Harris-Foulkes estimate   =    -329.49056844 Ry
     estimated scf accuracy    <       0.00060863 Ry

     iteration #  3     ecut=    30.00 Ry     beta=0.70
     Davidson diagonalization with overlap
     ethr =  2.61E-07,  avg # of iterations =  3.0

     total cpu time spent up to now is        7.2 secs

     total energy              =    -329.49046322 Ry
     Harris-Foulkes estimate   =    -329.49046441 Ry
     estimated scf accuracy    <       0.00001400 Ry

     iteration #  4     ecut=    30.00 Ry     beta=0.70
     Davidson diagonalization with overlap
     ethr =  2.55E-08,  avg # of iterations =  2.0

     total cpu time spent up to now is        7.4 secs

     total energy              =    -329.49046514 Ry
     Harris-Foulkes estimate   =    -329.49046709 Ry
     estimated scf accuracy    <       0.00000408 Ry

     iteration #  5     ecut=    30.00 Ry     beta=0.70
     Davidson diagonalization with overlap
     ethr =  7.42E-09,  avg # of iterations =  2.0

     total cpu time spent up to now is        7.7 secs

     total energy              =    -329.49046570 Ry
     Harris-Foulkes estimate   =    -329.49046628 Ry
     estimated scf accuracy    <       0.00000064 Ry

     iteration #  6     ecut=    30.00 Ry     beta=0.70
     Davidson diagonalization with overlap
     ethr =  1.17E-09,  avg # of iterations =  2.0

     total cpu time spent up to now is        7.9 secs

     total energy              =    -329.49046568 Ry
     Harris-Foulkes estimate   =    -329.49046587 Ry
     estimated scf accuracy    <       0.00000005 Ry

     iteration #  7     ecut=    30.00 Ry     beta=0.70
     Davidson diagonalization with overlap
     ethr =  9.66E-11,  avg # of iterations =  2.0

     total cpu time spent up to now is        8.2 secs

     total energy              =    -329.49046573 Ry
     Harris-Foulkes estimate   =    -329.49046570 Ry
     estimated scf accuracy    <       0.00000001 Ry

     iteration #  8     ecut=    30.00 Ry     beta=0.70
     Davidson diagonalization with overlap
     ethr =  1.96E-11,  avg # of iterations =  2.0

     total cpu time spent up to now is        8.4 secs

     End of self-consistent calculation

          k = 0.0000 0.0000 0.0000 ( 22119 PWs)   bands (ev):

    -8.4597  -7.7776  -7.5906  -7.2420  -6.9073  -6.7873  -6.6282  -6.4898
    -6.2814  -6.0568  -6.0003  -5.7400  -5.7192  -5.6743  -5.4483  -5.3773
    -5.3184  -5.2371  -5.2193  -5.1869  -5.1692  -5.1363  -5.0195  -4.9538
    -4.9154  -4.6647  -4.5261  -3.7436  -2.5062  -2.2418  -0.5589  -0.2003
     0.3972   0.8511

     the Fermi energy is    -3.7041 ev

!    total energy              =    -329.49046567 Ry
     Harris-Foulkes estimate   =    -329.49046573 Ry
     estimated scf accuracy    <          9.1E-10 Ry

     The total energy is the sum of the following terms:

     one-electron contribution =    -606.54028614 Ry
     hartree contribution      =     324.69503285 Ry
     xc contribution           =     -51.39043431 Ry
     ewald contribution        =       3.75119309 Ry
     smearing contrib. (-TS)   =      -0.00597117 Ry

     convergence has been achieved in   8 iterations

     Forces acting on atoms (Ry/au):

     atom    1 type  1   force =     0.00494266    0.00039001    0.00248001
     atom    2 type  1   force =     0.00460149   -0.00060315    0.00299477
     atom    3 type  1   force =    -0.00122721   -0.00058953    0.00087805
     atom    4 type  1   force =    -0.01143103    0.00344989   -0.00041760
     atom    5 type  1   force =     0.00311408   -0.00264722   -0.00593523

     Total force =     0.016079     Total SCF correction =     0.000123

     number of scf cycles    =   3
     number of bfgs steps    =   2

     energy   old            =    -329.4895371497 Ry
     energy   new            =    -329.4904656696 Ry

     CASE: energy  _new < energy  _old

     new trust radius        =       0.0427970680 bohr
     new conv_thr            =       0.0000000009 Ry


ATOMIC_POSITIONS (bohr)
Au      -1.833369296   2.274795900  -1.081301050
Au      -0.851606401   3.542575937   3.864238054
Au       2.953425583   1.959004268   0.585664997
Au       3.810667949   2.919981192   6.085631946
Au       7.532703163   1.748642703   2.767338053



     Writing output data file pwscf.save
     Check: negative starting charge=   -0.006495
     NEW-OLD atomic charge density approx. for the potential
     Check: negative starting charge=   -0.006504

     negative rho (up, down):  3.048E-04 0.000E+00

     total cpu time spent up to now is        8.9 secs

     per-process dynamical memory:    50.7 Mb

     Self-consistent Calculation

     iteration #  1     ecut=    30.00 Ry     beta=0.70
     Davidson diagonalization with overlap
     ethr =  1.00E-06,  avg # of iterations =  4.0

     negative rho (up, down):  8.263E-06 0.000E+00

     total cpu time spent up to now is        9.3 secs

     total energy              =    -329.49090479 Ry
     Harris-Foulkes estimate   =    -329.49086892 Ry
     estimated scf accuracy    <       0.00022290 Ry

     iteration #  2     ecut=    30.00 Ry     beta=0.70
     Davidson diagonalization with overlap
     ethr =  4.05E-07,  avg # of iterations =  3.0

     negative rho (up, down):  2.788E-06 0.000E+00

     total cpu time spent up to now is        9.6 secs

     total energy              =    -329.49084366 Ry
     Harris-Foulkes estimate   =    -329.49114971 Ry
     estimated scf accuracy    <       0.00085402 Ry

     iteration #  3     ecut=    30.00 Ry     beta=0.70
     Davidson diagonalization with overlap
     ethr =  4.05E-07,  avg # of iterations =  3.0

     total cpu time spent up to now is        9.9 secs

     total energy              =    -329.49100358 Ry
     Harris-Foulkes estimate   =    -329.49100744 Ry
     estimated scf accuracy    <       0.00002852 Ry

     iteration #  4     ecut=    30.00 Ry     beta=0.70
     Davidson diagonalization with overlap
     ethr =  5.18E-08,  avg # of iterations =  2.0

     total cpu time spent up to now is       10.1 secs

     total energy              =    -329.49100780 Ry
     Harris-Foulkes estimate   =    -329.49101070 Ry
     estimated scf accuracy    <       0.00000652 Ry

     iteration #  5     ecut=    30.00 Ry     beta=0.70
     Davidson diagonalization with overlap
     ethr =  1.19E-08,  avg # of iterations =  2.0

     total cpu time spent up to now is       10.4 secs

     total energy              =    -329.49100916 Ry
     Harris-Foulkes estimate   =    -329.49100968 Ry
     estimated scf accuracy    <       0.00000115 Ry

     iteration #  6     ecut=    30.00 Ry     beta=0.70
     Davidson diagonalization with overlap
     ethr =  2.10E-09,  avg # of iterations =  2.0

     total cpu time spent up to now is       10.6 secs

     total energy              =    -329.49100937 Ry
     Harris-Foulkes estimate   =    -329.49100946 Ry
     estimated scf accuracy    <       0.00000009 Ry

     iteration #  7     ecut=    30.00 Ry     beta=0.70
     Davidson diagonalization with overlap
     ethr =  1.59E-10,  avg # of iterations =  3.0

     total cpu time spent up to now is       10.9 secs

     total energy              =    -329.49100939 Ry
     Harris-Foulkes estimate   =    -329.49100940 Ry
     estimated scf accuracy    <       0.00000002 Ry

     iteration #  8     ecut=    30.00 Ry     beta=0.70
     Davidson diagonalization with overlap
     ethr =  3.25E-11,  avg # of iterations =  2.0

     total cpu time spent up to now is       11.1 secs

     total energy              =    -329.49100932 Ry
     Harris-Foulkes estimate   =    -329.49100939 Ry
     estimated scf accuracy    <          2.1E-09 Ry

     iteration #  9     ecut=    30.00 Ry     beta=0.70
     Davidson diagonalization with overlap
     ethr =  3.82E-12,  avg # of iterations =  2.0

     total cpu time spent up to now is       11.4 secs

     End of self-consistent calculation

          k = 0.0000 0.0000 0.0000 ( 22119 PWs)   bands (ev):

    -8.4694  -7.7584  -7.6280  -7.2345  -6.9231  -6.7908  -6.5910  -6.4851
    -6.2948  -6.0561  -5.9770  -5.7506  -5.7201  -5.6820  -5.4398  -5.3828
    -5.3241  -5.2389  -5.2116  -5.1941  -5.1743  -5.1340  -5.0128  -4.9480
    -4.9077  -4.6668  -4.5168  -3.7639  -2.4939  -2.2340  -0.5608  -0.2076
     0.4119   0.8624

     the Fermi energy is    -3.7269 ev

!    total energy              =    -329.49100932 Ry
     Harris-Foulkes estimate   =    -329.49100932 Ry
     estimated scf accuracy    <          3.8E-10 Ry

     The total energy is the sum of the following terms:

     one-electron contribution =    -607.05757863 Ry
     hartree contribution      =     324.95475643 Ry
     xc contribution           =     -51.39210646 Ry
     ewald contribution        =       4.00924561 Ry
     smearing contrib. (-TS)   =      -0.00532626 Ry

     convergence has been achieved in   9 iterations

     Forces acting on atoms (Ry/au):

     atom    1 type  1   force =     0.00186022    0.00035982    0.00084577
     atom    2 type  1   force =     0.00051189   -0.00022526    0.00202278
     atom    3 type  1   force =     0.00397225   -0.00105472    0.00209310
     atom    4 type  1   force =    -0.00290855    0.00196441   -0.00295668
     atom    5 type  1   force =    -0.00343582   -0.00104424   -0.00200497

     Total force =     0.008244     Total SCF correction =     0.000069

     number of scf cycles    =   4
     number of bfgs steps    =   3

     energy   old            =    -329.4904656696 Ry
     energy   new            =    -329.4910093198 Ry

     CASE: energy  _new < energy  _old

     new trust radius        =       0.0137046998 bohr
     new conv_thr            =       0.0000000004 Ry


ATOMIC_POSITIONS (bohr)
Au      -1.827334297   2.275513836  -1.078379846
Au      -0.847557606   3.541861852   3.868464166
Au       2.955725711   1.957529425   0.588149156
Au       3.798123569   2.924861217   6.083054606
Au       7.532863623   1.745233669   2.760283918



     Writing output data file pwscf.save
     Check: negative starting charge=   -0.006504
     NEW-OLD atomic charge density approx. for the potential
     Check: negative starting charge=   -0.006508

     negative rho (up, down):  1.150E-05 0.000E+00

     total cpu time spent up to now is       11.6 secs

     per-process dynamical memory:    50.7 Mb

     Self-consistent Calculation

     iteration #  1     ecut=    30.00 Ry     beta=0.70
     Davidson diagonalization with overlap
     ethr =  1.00E-06,  avg # of iterations =  4.0

     Threshold (ethr) on eigenvalues was too large:
     Diagonalizing with lowered threshold

     Davidson diagonalization with overlap
     ethr =  2.59E-08,  avg # of iterations =  1.0

     negative rho (up, down):  1.604E-08 0.000E+00

     total cpu time spent up to now is       12.1 secs

     total energy              =    -329.49109095 Ry
     Harris-Foulkes estimate   =    -329.49108805 Ry
     estimated scf accuracy    <       0.00001434 Ry

     iteration #  2     ecut=    30.00 Ry     beta=0.70
     Davidson diagonalization with overlap
     ethr =  2.61E-08,  avg # of iterations =  3.0

     total cpu time spent up to now is       12.4 secs

     total energy              =    -329.49108848 Ry
     Harris-Foulkes estimate   =    -329.49109992 Ry
     estimated scf accuracy    <       0.00002739 Ry

     iteration #  3     ecut=    30.00 Ry     beta=0.70
     Davidson diagonalization with overlap
     ethr =  2.61E-08,  avg # of iterations =  2.0

     total cpu time spent up to now is       12.6 secs

     total energy              =    -329.49109403 Ry
     Harris-Foulkes estimate   =    -329.49109610 Ry
     estimated scf accuracy    <       0.00000502 Ry

     iteration #  4     ecut=    30.00 Ry     beta=0.70
     Davidson diagonalization with overlap
     ethr =  9.13E-09,  avg # of iterations =  2.0

     total cpu time spent up to now is       12.8 secs

     total energy              =    -329.49109477 Ry
     Harris-Foulkes estimate   =    -329.49109508 Ry
     estimated scf accuracy    <       0.00000055 Ry

     iteration #  5     ecut=    30.00 Ry     beta=0.70
     Davidson diagonalization with overlap
     ethr =  9.91E-10,  avg # of iterations =  2.0

     total cpu time spent up to now is       13.1 secs

     total energy              =    -329.49109476 Ry
     Harris-Foulkes estimate   =    -329.49109494 Ry
     estimated scf accuracy    <       0.00000012 Ry

     iteration #  6     ecut=    30.00 Ry     beta=0.70
     Davidson diagonalization with overlap
     ethr =  2.14E-10,  avg # of iterations =  2.0

     total cpu time spent up to now is       13.3 secs

     total energy              =    -329.49109479 Ry
     Harris-Foulkes estimate   =    -329.49109480 Ry
     estimated scf accuracy    <       0.00000002 Ry

     iteration #  7     ecut=    30.00 Ry     beta=0.70
     Davidson diagonalization with overlap
     ethr =  2.81E-11,  avg # of iterations =  2.0

     total cpu time spent up to now is       13.6 secs

     total energy              =    -329.49109479 Ry
     Harris-Foulkes estimate   =    -329.49109479 Ry
     estimated scf accuracy    <          2.7E-09 Ry

     iteration #  8     ecut=    30.00 Ry     beta=0.70
     Davidson diagonalization with overlap
     ethr =  4.98E-12,  avg # of iterations =  2.0

     total cpu time spent up to now is       13.8 secs

     total energy              =    -329.49109479 Ry
     Harris-Foulkes estimate   =    -329.49109479 Ry
     estimated scf accuracy    <          5.0E-10 Ry

     iteration #  9     ecut=    30.00 Ry     beta=0.70
     Davidson diagonalization with overlap
     ethr =  9.04E-13,  avg # of iterations =  2.0

     total cpu time spent up to now is       14.1 secs

     End of self-consistent calculation

          k = 0.0000 0.0000 0.0000 ( 22119 PWs)   bands (ev):

    -8.4760  -7.7578  -7.6427  -7.2360  -6.9278  -6.7949  -6.5836  -6.4870
    -6.3008  -6.0574  -5.9712  -5.7534  -5.7199  -5.6849  -5.4373  -5.3839
    -5.3263  -5.2389  -5.2108  -5.1962  -5.1732  -5.1334  -5.0096  -4.9445
    -4.9038  -4.6681  -4.5118  -3.7700  -2.4884  -2.2294  -0.5620  -0.2101
     0.4176   0.8665

     the Fermi energy is    -3.7341 ev

!    total energy              =    -329.49109479 Ry
     Harris-Foulkes estimate   =    -329.49109479 Ry
     estimated scf accuracy    <          5.7E-11 Ry

     The total energy is the sum of the following terms:

     one-electron contribution =    -607.44315429 Ry
     hartree contribution      =     325.14708522 Ry
     xc contribution           =     -51.39378746 Ry
     ewald contribution        =       4.20382543 Ry
     smearing contrib. (-TS)   =      -0.00506369 Ry

     convergence has been achieved in   9 iterations

     Forces acting on atoms (Ry/au):

     atom    1 type  1   force =     0.00148861    0.00033897    0.00062144
     atom    2 type  1   force =    -0.00088947   -0.00016283    0.00133305
     atom    3 type  1   force =     0.00388097   -0.00106551    0.00176990
     atom    4 type  1   force =    -0.00079534    0.00167227   -0.00285609
     atom    5 type  1   force =    -0.00368476   -0.00078291   -0.00086831

     Total force =     0.007153     Total SCF correction =     0.000025

     number of scf cycles    =   5
     number of bfgs steps    =   4

     energy   old            =    -329.4910093198 Ry
     energy   new            =    -329.4910947889 Ry

     CASE: energy  _new < energy  _old

     new trust radius        =       0.0150751698 bohr
     new conv_thr            =            1.0E-10 Ry


ATOMIC_POSITIONS (bohr)
Au      -1.819758635   2.276627097  -1.074860030
Au      -0.845473314   3.540994392   3.873792796
Au       2.962434547   1.954800646   0.592463006
Au       3.785897278   2.931552871   6.077310015
Au       7.528721124   1.741024994   2.752866213



     Writing output data file pwscf.save
     Check: negative starting charge=   -0.006508
     NEW-OLD atomic charge density approx. for the potential
     Check: negative starting charge=   -0.006513

     negative rho (up, down):  2.223E-05 0.000E+00

     total cpu time spent up to now is       14.3 secs

     per-process dynamical memory:    50.7 Mb

     Self-consistent Calculation

     iteration #  1     ecut=    30.00 Ry     beta=0.70
     Davidson diagonalization with overlap
     ethr =  1.00E-06,  avg # of iterations =  4.0

     Threshold (ethr) on eigenvalues was too large:
     Diagonalizing with lowered threshold

     Davidson diagonalization with overlap
     ethr =  3.35E-08,  avg # of iterations =  1.0

     negative rho (up, down):  5.258E-08 0.000E+00

     total cpu time spent up to now is       14.9 secs

     total energy              =    -329.49117589 Ry
     Harris-Foulkes estimate   =    -329.49116853 Ry
     estimated scf accuracy    <       0.00001849 Ry

     iteration #  2     ecut=    30.00 Ry     beta=0.70
     Davidson diagonalization with overlap
     ethr =  3.36E-08,  avg # of iterations =  2.0

     total cpu time spent up to now is       15.1 secs

     total energy              =    -329.49117631 Ry
     Harris-Foulkes estimate   =    -329.49118274 Ry
     estimated scf accuracy    <       0.00001268 Ry

     iteration #  3     ecut=    30.00 Ry     beta=0.70
     Davidson diagonalization with overlap
     ethr =  2.30E-08,  avg # of iterations =  2.0

     total cpu time spent up to now is       15.4 secs

     total energy              =    -329.49117854 Ry
     Harris-Foulkes estimate   =    -329.49118139 Ry
     estimated scf accuracy    <       0.00000620 Ry

     iteration #  4     ecut=    30.00 Ry     beta=0.70
     Davidson diagonalization with overlap
     ethr =  1.13E-08,  avg # of iterations =  2.0

     total cpu time spent up to now is       15.6 secs

     total energy              =    -329.49117938 Ry
     Harris-Foulkes estimate   =    -329.49118031 Ry
     estimated scf accuracy    <       0.00000147 Ry

     iteration #  5     ecut=    30.00 Ry     beta=0.70
     Davidson diagonalization with overlap
     ethr =  2.68E-09,  avg # of iterations =  2.0

     total cpu time spent up to now is       15.8 secs

     total energy              =    -329.49117965 Ry
     Harris-Foulkes estimate   =    -329.49117968 Ry
     estimated scf accuracy    <       0.00000010 Ry

     iteration #  6     ecut=    30.00 Ry     beta=0.70
     Davidson diagonalization with overlap
     ethr =  1.85E-10,  avg # of iterations =  3.0

     total cpu time spent up to now is       16.1 secs

     total energy              =    -329.49117954 Ry
     Harris-Foulkes estimate   =    -329.49117969 Ry
     estimated scf accuracy    <       0.00000003 Ry

     iteration #  7     ecut=    30.00 Ry     beta=0.70
     Davidson diagonalization with overlap
     ethr =  4.92E-11,  avg # of iterations =  2.0

     total cpu time spent up to now is       16.3 secs

     total energy              =    -329.49117948 Ry
     Harris-Foulkes estimate   =    -329.49117955 Ry
     estimated scf accuracy    <          5.3E-09 Ry

     iteration #  8     ecut=    30.00 Ry     beta=0.70
     Davidson diagonalization with overlap
     ethr =  9.60E-12,  avg # of iterations =  2.0

     total cpu time spent up to now is       16.5 secs

     total energy              =    -329.49117947 Ry
     Harris-Foulkes estimate   =    -329.49117948 Ry
     estimated scf accuracy    <          4.7E-10 Ry

     iteration #  9     ecut=    30.00 Ry     beta=0.70
     Davidson diagonalization with overlap
     ethr =  8.53E-13,  avg # of iterations =  2.0

     total cpu time spent up to now is       16.8 secs

     End of self-consistent calculation

          k = 0.0000 0.0000 0.0000 ( 22119 PWs)   bands (ev):

    -8.4858  -7.7617  -7.6585  -7.2396  -6.9331  -6.8015  -6.5805  -6.4906
    -6.3079  -6.0602  -5.9677  -5.7559  -5.7201  -5.6883  -5.4348  -5.3843
    -5.3286  -5.2381  -5.2110  -5.1984  -5.1706  -5.1327  -5.0052  -4.9396
    -4.8984  -4.6704  -4.5049  -3.7757  -2.4808  -2.2234  -0.5635  -0.2129
     0.4247   0.8709

     the Fermi energy is    -3.7411 ev

!    total energy              =    -329.49117944 Ry
     Harris-Foulkes estimate   =    -329.49117947 Ry
     estimated scf accuracy    <          8.4E-11 Ry

     The total energy is the sum of the following terms:

     one-electron contribution =    -608.03156489 Ry
     hartree contribution      =     325.44009736 Ry
     xc contribution           =     -51.39644542 Ry
     ewald contribution        =       4.50148908 Ry
     smearing contrib. (-TS)   =      -0.00475557 Ry

     convergence has been achieved in   9 iterations

     Forces acting on atoms (Ry/au):

     atom    1 type  1   force =     0.00152407    0.00026417    0.00053704
     atom    2 type  1   force =    -0.00228876   -0.00015019    0.00040017
     atom    3 type  1   force =     0.00226467   -0.00095456    0.00090183
     atom    4 type  1   force =     0.00095676    0.00149695   -0.00214819
     atom    5 type  1   force =    -0.00245675   -0.00065636    0.00030915

     Total force =     0.005412     Total SCF correction =     0.000030

     number of scf cycles    =   6
     number of bfgs steps    =   5

     energy   old            =    -329.4910947889 Ry
     energy   new            =    -329.4911794436 Ry

     CASE: energy  _new < energy  _old

     new trust radius        =       0.0130276290 bohr
     new conv_thr            =            1.0E-10 Ry


ATOMIC_POSITIONS (bohr)
Au      -1.811677362   2.277874806  -1.071397658
Au      -0.847665946   3.540106363   3.878366066
Au       2.970951105   1.951241040   0.597077167
Au       3.778394682   2.938945534   6.069643289
Au       7.521818522   1.736832257   2.747883136



     Writing output data file pwscf.save
     Check: negative starting charge=   -0.006513
     NEW-OLD atomic charge density approx. for the potential
     Check: negative starting charge=   -0.006517

     negative rho (up, down):  1.987E-05 0.000E+00

     total cpu time spent up to now is       17.0 secs

     per-process dynamical memory:    50.7 Mb

     Self-consistent Calculation

     iteration #  1     ecut=    30.00 Ry     beta=0.70
     Davidson diagonalization with overlap
     ethr =  1.00E-06,  avg # of iterations =  4.0

     Threshold (ethr) on eigenvalues was too large:
     Diagonalizing with lowered threshold

     Davidson diagonalization with overlap
     ethr =  4.07E-08,  avg # of iterations =  1.0

     negative rho (up, down):  3.702E-08 0.000E+00

     total cpu time spent up to now is       17.6 secs

     total energy              =    -329.49122973 Ry
     Harris-Foulkes estimate   =    -329.49122730 Ry
     estimated scf accuracy    <       0.00002263 Ry

     iteration #  2     ecut=    30.00 Ry     beta=0.70
     Davidson diagonalization with overlap
     ethr =  4.12E-08,  avg # of iterations =  2.0

     total cpu time spent up to now is       17.8 secs

     total energy              =    -329.49123109 Ry
     Harris-Foulkes estimate   =    -329.49124083 Ry
     estimated scf accuracy    <       0.00002087 Ry

     iteration #  3     ecut=    30.00 Ry     beta=0.70
     Davidson diagonalization with overlap
     ethr =  3.79E-08,  avg # of iterations =  2.0

     total cpu time spent up to now is       18.1 secs

     total energy              =    -329.49123453 Ry
     Harris-Foulkes estimate   =    -329.49123796 Ry
     estimated scf accuracy    <       0.00000678 Ry

     iteration #  4     ecut=    30.00 Ry     beta=0.70
     Davidson diagonalization with overlap
     ethr =  1.23E-08,  avg # of iterations =  2.0

     total cpu time spent up to now is       18.3 secs

     total energy              =    -329.49123580 Ry
     Harris-Foulkes estimate   =    -329.49123664 Ry
     estimated scf accuracy    <       0.00000198 Ry

     iteration #  5     ecut=    30.00 Ry     beta=0.70
     Davidson diagonalization with overlap
     ethr =  3.60E-09,  avg # of iterations =  2.0

     total cpu time spent up to now is       18.5 secs

     total energy              =    -329.49123598 Ry
     Harris-Foulkes estimate   =    -329.49123621 Ry
     estimated scf accuracy    <       0.00000017 Ry

     iteration #  6     ecut=    30.00 Ry     beta=0.70
     Davidson diagonalization with overlap
     ethr =  3.07E-10,  avg # of iterations =  2.0

     total cpu time spent up to now is       18.8 secs

     total energy              =    -329.49123602 Ry
     Harris-Foulkes estimate   =    -329.49123603 Ry
     estimated scf accuracy    <       0.00000001 Ry

     iteration #  7     ecut=    30.00 Ry     beta=0.70
     Davidson diagonalization with overlap
     ethr =  2.58E-11,  avg # of iterations =  2.0

     total cpu time spent up to now is       19.0 secs

     total energy              =    -329.49123606 Ry
     Harris-Foulkes estimate   =    -329.49123602 Ry
     estimated scf accuracy    <          3.7E-09 Ry

     iteration #  8     ecut=    30.00 Ry     beta=0.70
     Davidson diagonalization with overlap
     ethr =  6.75E-12,  avg # of iterations =  2.0

     total cpu time spent up to now is       19.3 secs

     total energy              =    -329.49123602 Ry
     Harris-Foulkes estimate   =    -329.49123606 Ry
     estimated scf accuracy    <          7.1E-10 Ry

     iteration #  9     ecut=    30.00 Ry     beta=0.70
     Davidson diagonalization with overlap
     ethr =  1.29E-12,  avg # of iterations =  2.0

     total cpu time spent up to now is       19.5 secs

     total energy              =    -329.49123602 Ry
     Harris-Foulkes estimate   =    -329.49123602 Ry
     estimated scf accuracy    <          1.2E-10 Ry

     iteration # 10     ecut=    30.00 Ry     beta=0.70
     Davidson diagonalization with overlap
     ethr =  2.13E-13,  avg # of iterations =  2.0

     total cpu time spent up to now is       19.8 secs

     End of self-consistent calculation

          k = 0.0000 0.0000 0.0000 ( 22119 PWs)   bands (ev):

    -8.4968  -7.7690  -7.6691  -7.2433  -6.9369  -6.8095  -6.5840  -6.4938
    -6.3132  -6.0639  -5.9685  -5.7581  -5.7210  -5.6913  -5.4330  -5.3839
    -5.3298  -5.2370  -5.2115  -5.1998  -5.1677  -5.1322  -5.0007  -4.9349
    -4.8934  -4.6732  -4.4982  -3.7789  -2.4732  -2.2183  -0.5650  -0.2150
     0.4313   0.8741

     the Fermi energy is    -3.7453 ev

!    total energy              =    -329.49123602 Ry
     Harris-Foulkes estimate   =    -329.49123602 Ry
     estimated scf accuracy    <          1.6E-11 Ry

     The total energy is the sum of the following terms:

     one-electron contribution =    -608.63961795 Ry
     hartree contribution      =     325.74256809 Ry
     xc contribution           =     -51.39925720 Ry
     ewald contribution        =       4.80959119 Ry
     smearing contrib. (-TS)   =      -0.00452015 Ry

     convergence has been achieved in  10 iterations

     Forces acting on atoms (Ry/au):

     atom    1 type  1   force =     0.00176497    0.00013098    0.00044691
     atom    2 type  1   force =    -0.00305418   -0.00017368   -0.00030861
     atom    3 type  1   force =    -0.00021605   -0.00076951   -0.00010358
     atom    4 type  1   force =     0.00169375    0.00151790   -0.00116791
     atom    5 type  1   force =    -0.00018849   -0.00070569    0.00113320

     Total force =     0.004668     Total SCF correction =     0.000019

     number of scf cycles    =   7
     number of bfgs steps    =   6

     energy   old            =    -329.4911794436 Ry
     energy   new            =    -329.4912360198 Ry

     CASE: energy  _new < energy  _old

     new trust radius        =       0.0082236069 bohr
     new conv_thr            =            1.0E-10 Ry


ATOMIC_POSITIONS (bohr)
Au      -1.805502724   2.278677356  -1.069204728
Au      -0.853038985   3.539452122   3.880346155
Au       2.975662004   1.948336929   0.599528378
Au       3.777428628   2.944634670   6.063784264
Au       7.517272078   1.733898924   2.747117931



     Writing output data file pwscf.save
     Check: negative starting charge=   -0.006517
     NEW-OLD atomic charge density approx. for the potential
     Check: negative starting charge=   -0.006518

     negative rho (up, down):  3.713E-06 0.000E+00

     total cpu time spent up to now is       20.0 secs

     per-process dynamical memory:    50.7 Mb

     Self-consistent Calculation

     iteration #  1     ecut=    30.00 Ry     beta=0.70
     Davidson diagonalization with overlap
     ethr =  1.00E-06,  avg # of iterations =  3.0

     Threshold (ethr) on eigenvalues was too large:
     Diagonalizing with lowered threshold

     Davidson diagonalization with overlap
     ethr =  2.45E-08,  avg # of iterations =  2.0

     total cpu time spent up to now is       20.5 secs

     total energy              =    -329.49126607 Ry
     Harris-Foulkes estimate   =    -329.49126855 Ry
     estimated scf accuracy    <       0.00001446 Ry

     iteration #  2     ecut=    30.00 Ry     beta=0.70
     Davidson diagonalization with overlap
     ethr =  2.63E-08,  avg # of iterations =  3.0

     total cpu time spent up to now is       20.7 secs

     total energy              =    -329.49126623 Ry
     Harris-Foulkes estimate   =    -329.49127531 Ry
     estimated scf accuracy    <       0.00001892 Ry

     iteration #  3     ecut=    30.00 Ry     beta=0.70
     Davidson diagonalization with overlap
     ethr =  2.63E-08,  avg # of iterations =  2.0

     total cpu time spent up to now is       21.0 secs

     total energy              =    -329.49126957 Ry
     Harris-Foulkes estimate   =    -329.49127164 Ry
     estimated scf accuracy    <       0.00000430 Ry

     iteration #  4     ecut=    30.00 Ry     beta=0.70
     Davidson diagonalization with overlap
     ethr =  7.83E-09,  avg # of iterations =  2.0

     total cpu time spent up to now is       21.2 secs

     total energy              =    -329.49127048 Ry
     Harris-Foulkes estimate   =    -329.49127071 Ry
     estimated scf accuracy    <       0.00000074 Ry

     iteration #  5     ecut=    30.00 Ry     beta=0.70
     Davidson diagonalization with overlap
     ethr =  1.34E-09,  avg # of iterations =  2.0

     total cpu time spent up to now is       21.4 secs

     total energy              =    -329.49127074 Ry
     Harris-Foulkes estimate   =    -329.49127067 Ry
     estimated scf accuracy    <       0.00000016 Ry

     iteration #  6     ecut=    30.00 Ry     beta=0.70
     Davidson diagonalization with overlap
     ethr =  2.90E-10,  avg # of iterations =  2.0

     total cpu time spent up to now is       21.7 secs

     total energy              =    -329.49127071 Ry
     Harris-Foulkes estimate   =    -329.49127078 Ry
     estimated scf accuracy    <          8.0E-09 Ry

     iteration #  7     ecut=    30.00 Ry     beta=0.70
     Davidson diagonalization with overlap
     ethr =  1.45E-11,  avg # of iterations =  3.0

     total cpu time spent up to now is       21.9 secs

     total energy              =    -329.49127074 Ry
     Harris-Foulkes estimate   =    -329.49127071 Ry
     estimated scf accuracy    <          3.1E-09 Ry

     iteration #  8     ecut=    30.00 Ry     beta=0.70
     Davidson diagonalization with overlap
     ethr =  5.69E-12,  avg # of iterations =  2.0

     total cpu time spent up to now is       22.2 secs

     total energy              =    -329.49127067 Ry
     Harris-Foulkes estimate   =    -329.49127074 Ry
     estimated scf accuracy    <          6.0E-10 Ry

     iteration #  9     ecut=    30.00 Ry     beta=0.70
     Davidson diagonalization with overlap
     ethr =  1.09E-12,  avg # of iterations =  2.0

     total cpu time spent up to now is       22.4 secs

     End of self-consistent calculation

          k = 0.0000 0.0000 0.0000 ( 22119 PWs)   bands (ev):

    -8.5039  -7.7749  -7.6705  -7.2446  -6.9367  -6.8147  -6.5904  -6.4945
    -6.3142  -6.0666  -5.9717  -5.7597  -5.7227  -5.6926  -5.4325  -5.3829
    -5.3295  -5.2365  -5.2113  -5.1999  -5.1666  -5.1320  -4.9983  -4.9330
    -4.8910  -4.6753  -4.4949  -3.7788  -2.4690  -2.2167  -0.5657  -0.2156
     0.4349   0.8751

     the Fermi energy is    -3.7455 ev

!    total energy              =    -329.49127068 Ry
     Harris-Foulkes estimate   =    -329.49127067 Ry
     estimated scf accuracy    <          7.2E-11 Ry

     The total energy is the sum of the following terms:

     one-electron contribution =    -608.96374800 Ry
     hartree contribution      =     325.90366437 Ry
     xc contribution           =     -51.40076565 Ry
     ewald contribution        =       4.97403613 Ry
     smearing contrib. (-TS)   =      -0.00445754 Ry

     convergence has been achieved in   9 iterations

     Forces acting on atoms (Ry/au):

     atom    1 type  1   force =     0.00175500   -0.00000855    0.00020597
     atom    2 type  1   force =    -0.00291458   -0.00018105   -0.00039621
     atom    3 type  1   force =    -0.00160949   -0.00065739   -0.00052573
     atom    4 type  1   force =     0.00138886    0.00165781   -0.00058758
     atom    5 type  1   force =     0.00138020   -0.00081082    0.00130355

     Total force =     0.004939     Total SCF correction =     0.000039

     number of scf cycles    =   8
     number of bfgs steps    =   7

     energy   old            =    -329.4912360198 Ry
     energy   new            =    -329.4912706840 Ry

     CASE: energy  _new < energy  _old

     new trust radius        =       0.0090459676 bohr
     new conv_thr            =            1.0E-10 Ry


ATOMIC_POSITIONS (bohr)
Au      -1.798385284   2.279370584  -1.067139506
Au      -0.860532931   3.538698608   3.881900452
Au       2.978646766   1.945059061   0.601391017
Au       3.777832257   2.951373318   6.057762865
Au       7.514260192   1.730498429   2.747657172



     Writing output data file pwscf.save
     Check: negative starting charge=   -0.006518
     NEW-OLD atomic charge density approx. for the potential
     Check: negative starting charge=   -0.006519

     negative rho (up, down):  5.299E-06 0.000E+00

     total cpu time spent up to now is       22.7 secs

     per-process dynamical memory:    50.7 Mb

     Self-consistent Calculation

     iteration #  1     ecut=    30.00 Ry     beta=0.70
     Davidson diagonalization with overlap
     ethr =  1.00E-06,  avg # of iterations =  4.0

     Threshold (ethr) on eigenvalues was too large:
     Diagonalizing with lowered threshold

     Davidson diagonalization with overlap
     ethr =  3.15E-08,  avg # of iterations =  2.0

     total cpu time spent up to now is       23.2 secs

     total energy              =    -329.49130279 Ry
     Harris-Foulkes estimate   =    -329.49130757 Ry
     estimated scf accuracy    <       0.00001853 Ry

     iteration #  2     ecut=    30.00 Ry     beta=0.70
     Davidson diagonalization with overlap
     ethr =  3.37E-08,  avg # of iterations =  3.0

     total cpu time spent up to now is       23.5 secs

     total energy              =    -329.49130349 Ry
     Harris-Foulkes estimate   =    -329.49131495 Ry
     estimated scf accuracy    <       0.00002424 Ry

     iteration #  3     ecut=    30.00 Ry     beta=0.70
     Davidson diagonalization with overlap
     ethr =  3.37E-08,  avg # of iterations =  2.0

     total cpu time spent up to now is       23.7 secs

     total energy              =    -329.49130827 Ry
     Harris-Foulkes estimate   =    -329.49131023 Ry
     estimated scf accuracy    <       0.00000484 Ry

     iteration #  4     ecut=    30.00 Ry     beta=0.70
     Davidson diagonalization with overlap
     ethr =  8.79E-09,  avg # of iterations =  2.0

     total cpu time spent up to now is       23.9 secs

     total energy              =    -329.49130886 Ry
     Harris-Foulkes estimate   =    -329.49130955 Ry
     estimated scf accuracy    <       0.00000074 Ry

     iteration #  5     ecut=    30.00 Ry     beta=0.70
     Davidson diagonalization with overlap
     ethr =  1.34E-09,  avg # of iterations =  2.0

     total cpu time spent up to now is       24.2 secs

     total energy              =    -329.49130891 Ry
     Harris-Foulkes estimate   =    -329.49130905 Ry
     estimated scf accuracy    <       0.00000015 Ry

     iteration #  6     ecut=    30.00 Ry     beta=0.70
     Davidson diagonalization with overlap
     ethr =  2.81E-10,  avg # of iterations =  2.0

     total cpu time spent up to now is       24.4 secs

     total energy              =    -329.49130899 Ry
     Harris-Foulkes estimate   =    -329.49130895 Ry
     estimated scf accuracy    <          8.9E-09 Ry

     iteration #  7     ecut=    30.00 Ry     beta=0.70
     Davidson diagonalization with overlap
     ethr =  1.62E-11,  avg # of iterations =  3.0

     total cpu time spent up to now is       24.6 secs

     total energy              =    -329.49130903 Ry
     Harris-Foulkes estimate   =    -329.49130900 Ry
     estimated scf accuracy    <          3.5E-09 Ry

     iteration #  8     ecut=    30.00 Ry     beta=0.70
     Davidson diagonalization with overlap
     ethr =  6.44E-12,  avg # of iterations =  2.0

     total cpu time spent up to now is       24.9 secs

     total energy              =    -329.49130902 Ry
     Harris-Foulkes estimate   =    -329.49130903 Ry
     estimated scf accuracy    <          8.3E-10 Ry

     iteration #  9     ecut=    30.00 Ry     beta=0.70
     Davidson diagonalization with overlap
     ethr =  1.51E-12,  avg # of iterations =  2.0

     total cpu time spent up to now is       25.1 secs

     End of self-consistent calculation

          k = 0.0000 0.0000 0.0000 ( 22119 PWs)   bands (ev):

    -8.5101  -7.7800  -7.6690  -7.2447  -6.9345  -6.8193  -6.5973  -6.4942
    -6.3136  -6.0693  -5.9752  -5.7617  -5.7250  -5.6935  -5.4322  -5.3816
    -5.3287  -5.2362  -5.2106  -5.1996  -5.1664  -5.1318  -4.9962  -4.9317
    -4.8894  -4.6774  -4.4924  -3.7780  -2.4654  -2.2164  -0.5662  -0.2157
     0.4380   0.8756

     the Fermi energy is    -3.7448 ev

!    total energy              =    -329.49130902 Ry
     Harris-Foulkes estimate   =    -329.49130902 Ry
     estimated scf accuracy    <          7.4E-11 Ry

     The total energy is the sum of the following terms:

     one-electron contribution =    -609.19947074 Ry
     hartree contribution      =     326.02087832 Ry
     xc contribution           =     -51.40188903 Ry
     ewald contribution        =       5.09360849 Ry
     smearing contrib. (-TS)   =      -0.00443605 Ry

     convergence has been achieved in   9 iterations

     Forces acting on atoms (Ry/au):

     atom    1 type  1   force =     0.00147918   -0.00016943   -0.00019974
     atom    2 type  1   force =    -0.00247781   -0.00013366   -0.00025878
     atom    3 type  1   force =    -0.00230539   -0.00059157   -0.00062107
     atom    4 type  1   force =     0.00082666    0.00180363   -0.00019601
     atom    5 type  1   force =     0.00247735   -0.00090896    0.00127559

     Total force =     0.005205     Total SCF correction =     0.000042

     number of scf cycles    =   9
     number of bfgs steps    =   8

     energy   old            =    -329.4912706840 Ry
     energy   new            =    -329.4913090179 Ry

     CASE: energy  _new < energy  _old

     new trust radius        =       0.0135689515 bohr
     new conv_thr            =            1.0E-10 Ry


ATOMIC_POSITIONS (bohr)
Au      -1.787669966   2.280130652  -1.064628763
Au      -0.872051552   3.537597694   3.884128017
Au       2.981107167   1.940133765   0.603657664
Au       3.778208752   2.962068896   6.049421443
Au       7.512226598   1.725068993   2.748993639



     Writing output data file pwscf.save
     Check: negative starting charge=   -0.006519
     NEW-OLD atomic charge density approx. for the potential
     Check: negative starting charge=   -0.006517

     negative rho (up, down):  2.499E-05 0.000E+00

     total cpu time spent up to now is       25.4 secs

     per-process dynamical memory:    50.7 Mb

     Self-consistent Calculation

     iteration #  1     ecut=    30.00 Ry     beta=0.70
     Davidson diagonalization with overlap
     ethr =  1.00E-06,  avg # of iterations =  4.0

     Threshold (ethr) on eigenvalues was too large:
     Diagonalizing with lowered threshold

     Davidson diagonalization with overlap
     ethr =  7.39E-08,  avg # of iterations =  1.0

     negative rho (up, down):  4.364E-08 0.000E+00

     total cpu time spent up to now is       25.9 secs

     total energy              =    -329.49134551 Ry
     Harris-Foulkes estimate   =    -329.49135732 Ry
     estimated scf accuracy    <       0.00004099 Ry

     iteration #  2     ecut=    30.00 Ry     beta=0.70
     Davidson diagonalization with overlap
     ethr =  7.45E-08,  avg # of iterations =  3.0

     total cpu time spent up to now is       26.2 secs

     total energy              =    -329.49134830 Ry
     Harris-Foulkes estimate   =    -329.49137239 Ry
     estimated scf accuracy    <       0.00005323 Ry

     iteration #  3     ecut=    30.00 Ry     beta=0.70
     Davidson diagonalization with overlap
     ethr =  7.45E-08,  avg # of iterations =  2.0

     total cpu time spent up to now is       26.4 secs

     total energy              =    -329.49135894 Ry
     Harris-Foulkes estimate   =    -329.49136314 Ry
     estimated scf accuracy    <       0.00001052 Ry

     iteration #  4     ecut=    30.00 Ry     beta=0.70
     Davidson diagonalization with overlap
     ethr =  1.91E-08,  avg # of iterations =  2.0

     total cpu time spent up to now is       26.7 secs

     total energy              =    -329.49136081 Ry
     Harris-Foulkes estimate   =    -329.49136168 Ry
     estimated scf accuracy    <       0.00000145 Ry

     iteration #  5     ecut=    30.00 Ry     beta=0.70
     Davidson diagonalization with overlap
     ethr =  2.64E-09,  avg # of iterations =  2.0

     total cpu time spent up to now is       26.9 secs

     total energy              =    -329.49136079 Ry
     Harris-Foulkes estimate   =    -329.49136115 Ry
     estimated scf accuracy    <       0.00000020 Ry

     iteration #  6     ecut=    30.00 Ry     beta=0.70
     Davidson diagonalization with overlap
     ethr =  3.59E-10,  avg # of iterations =  2.0

     total cpu time spent up to now is       27.1 secs

     total energy              =    -329.49136074 Ry
     Harris-Foulkes estimate   =    -329.49136084 Ry
     estimated scf accuracy    <       0.00000001 Ry

     iteration #  7     ecut=    30.00 Ry     beta=0.70
     Davidson diagonalization with overlap
     ethr =  2.32E-11,  avg # of iterations =  3.0

     total cpu time spent up to now is       27.4 secs

     total energy              =    -329.49136069 Ry
     Harris-Foulkes estimate   =    -329.49136075 Ry
     estimated scf accuracy    <          3.4E-09 Ry

     iteration #  8     ecut=    30.00 Ry     beta=0.70
     Davidson diagonalization with overlap
     ethr =  6.27E-12,  avg # of iterations =  2.0

     total cpu time spent up to now is       27.7 secs

     total energy              =    -329.49136066 Ry
     Harris-Foulkes estimate   =    -329.49136069 Ry
     estimated scf accuracy    <          1.0E-09 Ry

     iteration #  9     ecut=    30.00 Ry     beta=0.70
     Davidson diagonalization with overlap
     ethr =  1.87E-12,  avg # of iterations =  2.0

     total cpu time spent up to now is       27.9 secs

     total energy              =    -329.49136065 Ry
     Harris-Foulkes estimate   =    -329.49136066 Ry
     estimated scf accuracy    <          2.4E-10 Ry

     iteration # 10     ecut=    30.00 Ry     beta=0.70
     Davidson diagonalization with overlap
     ethr =  4.44E-13,  avg # of iterations =  2.0

     total cpu time spent up to now is       28.1 secs

     End of self-consistent calculation

          k = 0.0000 0.0000 0.0000 ( 22119 PWs)   bands (ev):

    -8.5174  -7.7853  -7.6659  -7.2434  -6.9297  -6.8245  -6.6054  -6.4930
    -6.3117  -6.0727  -5.9787  -5.7648  -5.7286  -5.6942  -5.4318  -5.3797
    -5.3274  -5.2361  -5.2091  -5.1987  -5.1667  -5.1316  -4.9937  -4.9303
    -4.8873  -4.6806  -4.4893  -3.7771  -2.4609  -2.2168  -0.5666  -0.2158
     0.4424   0.8762

     the Fermi energy is    -3.7441 ev

!    total energy              =    -329.49136064 Ry
     Harris-Foulkes estimate   =    -329.49136065 Ry
     estimated scf accuracy    <          2.6E-11 Ry

     The total energy is the sum of the following terms:

     one-electron contribution =    -609.43219860 Ry
     hartree contribution      =     326.13688501 Ry
     xc contribution           =     -51.40306210 Ry
     ewald contribution        =       5.21142724 Ry
     smearing contrib. (-TS)   =      -0.00441219 Ry

     convergence has been achieved in  10 iterations

     Forces acting on atoms (Ry/au):

     atom    1 type  1   force =     0.00082832   -0.00038491   -0.00084007
     atom    2 type  1   force =    -0.00175536    0.00002776   -0.00000936
     atom    3 type  1   force =    -0.00251576   -0.00054364   -0.00044601
     atom    4 type  1   force =     0.00010183    0.00191242    0.00012508
     atom    5 type  1   force =     0.00334097   -0.00101163    0.00117037

     Total force =     0.005356     Total SCF correction =     0.000019

     number of scf cycles    =  10
     number of bfgs steps    =   9

     energy   old            =    -329.4913090179 Ry
     energy   new            =    -329.4913606387 Ry

     CASE: energy  _new < energy  _old

     new trust radius        =       0.0203534272 bohr
     new conv_thr            =            1.0E-10 Ry


ATOMIC_POSITIONS (bohr)
Au      -1.772224282   2.280808123  -1.062023818
Au      -0.888941686   3.536187916   3.887572827
Au       2.982939633   1.932748636   0.606834260
Au       3.777891336   2.978777485   6.037803169
Au       7.512156000   1.716477840   2.751385562



     Writing output data file pwscf.save
     Check: negative starting charge=   -0.006517
     NEW-OLD atomic charge density approx. for the potential
     Check: negative starting charge=   -0.006514

     negative rho (up, down):  8.488E-05 0.000E+00

     total cpu time spent up to now is       28.4 secs

     per-process dynamical memory:    50.7 Mb

     Self-consistent Calculation

     iteration #  1     ecut=    30.00 Ry     beta=0.70
     Davidson diagonalization with overlap
     ethr =  1.00E-06,  avg # of iterations =  4.0

     negative rho (up, down):  5.835E-07 0.000E+00

     total cpu time spent up to now is       28.8 secs

     total energy              =    -329.49138676 Ry
     Harris-Foulkes estimate   =    -329.49140754 Ry
     estimated scf accuracy    <       0.00008951 Ry

     iteration #  2     ecut=    30.00 Ry     beta=0.70
     Davidson diagonalization with overlap
     ethr =  1.63E-07,  avg # of iterations =  3.0

     negative rho (up, down):  3.780E-08 0.000E+00

     total cpu time spent up to now is       29.1 secs

     total energy              =    -329.49139278 Ry
     Harris-Foulkes estimate   =    -329.49144610 Ry
     estimated scf accuracy    <       0.00011545 Ry

     iteration #  3     ecut=    30.00 Ry     beta=0.70
     Davidson diagonalization with overlap
     ethr =  1.63E-07,  avg # of iterations =  2.0

     total cpu time spent up to now is       29.3 secs

     total energy              =    -329.49141631 Ry
     Harris-Foulkes estimate   =    -329.49142524 Ry
     estimated scf accuracy    <       0.00002399 Ry

     iteration #  4     ecut=    30.00 Ry     beta=0.70
     Davidson diagonalization with overlap
     ethr =  4.36E-08,  avg # of iterations =  2.0

     total cpu time spent up to now is       29.6 secs

     total energy              =    -329.49142103 Ry
     Harris-Foulkes estimate   =    -329.49142246 Ry
     estimated scf accuracy    <       0.00000312 Ry

     iteration #  5     ecut=    30.00 Ry     beta=0.70
     Davidson diagonalization with overlap
     ethr =  5.67E-09,  avg # of iterations =  2.0

     total cpu time spent up to now is       29.8 secs

     total energy              =    -329.49142153 Ry
     Harris-Foulkes estimate   =    -329.49142179 Ry
     estimated scf accuracy    <       0.00000051 Ry

     iteration #  6     ecut=    30.00 Ry     beta=0.70
     Davidson diagonalization with overlap
     ethr =  9.33E-10,  avg # of iterations =  2.0

     total cpu time spent up to now is       30.0 secs

     total energy              =    -329.49142164 Ry
     Harris-Foulkes estimate   =    -329.49142165 Ry
     estimated scf accuracy    <       0.00000005 Ry

     iteration #  7     ecut=    30.00 Ry     beta=0.70
     Davidson diagonalization with overlap
     ethr =  9.34E-11,  avg # of iterations =  2.0

     total cpu time spent up to now is       30.3 secs

     total energy              =    -329.49142156 Ry
     Harris-Foulkes estimate   =    -329.49142165 Ry
     estimated scf accuracy    <       0.00000001 Ry

     iteration #  8     ecut=    30.00 Ry     beta=0.70
     Davidson diagonalization with overlap
     ethr =  2.15E-11,  avg # of iterations =  2.0

     total cpu time spent up to now is       30.6 secs

     total energy              =    -329.49142155 Ry
     Harris-Foulkes estimate   =    -329.49142157 Ry
     estimated scf accuracy    <          5.4E-09 Ry

     iteration #  9     ecut=    30.00 Ry     beta=0.70
     Davidson diagonalization with overlap
     ethr =  9.76E-12,  avg # of iterations =  2.0

     total cpu time spent up to now is       30.8 secs

     total energy              =    -329.49142157 Ry
     Harris-Foulkes estimate   =    -329.49142155 Ry
     estimated scf accuracy    <          3.6E-10 Ry

     iteration # 10     ecut=    30.00 Ry     beta=0.70
     Davidson diagonalization with overlap
     ethr =  6.51E-13,  avg # of iterations =  3.0

     total cpu time spent up to now is       31.0 secs

     End of self-consistent calculation

          k = 0.0000 0.0000 0.0000 ( 22119 PWs)   bands (ev):

    -8.5254  -7.7897  -7.6609  -7.2398  -6.9215  -6.8301  -6.6136  -6.4903
    -6.3082  -6.0768  -5.9816  -5.7693  -5.7334  -5.6946  -5.4312  -5.3769
    -5.3256  -5.2363  -5.2067  -5.1972  -5.1677  -5.1313  -4.9905  -4.9289
    -4.8844  -4.6854  -4.4856  -3.7765  -2.4555  -2.2182  -0.5668  -0.2158
     0.4482   0.8771

     the Fermi energy is    -3.7437 ev

!    total energy              =    -329.49142155 Ry
     Harris-Foulkes estimate   =    -329.49142157 Ry
     estimated scf accuracy    <          5.3E-11 Ry

     The total energy is the sum of the following terms:

     one-electron contribution =    -609.62430101 Ry
     hartree contribution      =     326.23328276 Ry
     xc contribution           =     -51.40416533 Ry
     ewald contribution        =       5.30813532 Ry
     smearing contrib. (-TS)   =      -0.00437330 Ry

     convergence has been achieved in  10 iterations

     Forces acting on atoms (Ry/au):

     atom    1 type  1   force =    -0.00036317   -0.00061342   -0.00168471
     atom    2 type  1   force =    -0.00069105    0.00034706    0.00025462
     atom    3 type  1   force =    -0.00200617   -0.00047472    0.00009265
     atom    4 type  1   force =    -0.00070294    0.00187594    0.00028521
     atom    5 type  1   force =     0.00376331   -0.00113485    0.00105224

     Total force =     0.005378     Total SCF correction =     0.000033

     number of scf cycles    =  11
     number of bfgs steps    =  10

     energy   old            =    -329.4913606387 Ry
     energy   new            =    -329.4914215520 Ry

     CASE: energy  _new < energy  _old

     new trust radius        =       0.0271301429 bohr
     new conv_thr            =            1.0E-10 Ry


ATOMIC_POSITIONS (bohr)
Au      -1.753875388   2.280880216  -1.061014205
Au      -0.910494078   3.535036289   3.892174119
Au       2.983429216   1.922966087   0.611267982
Au       3.776418769   3.001817962   6.023554919
Au       7.516342481   1.704299446   2.755589185



     Writing output data file pwscf.save
     Check: negative starting charge=   -0.006514
     NEW-OLD atomic charge density approx. for the potential
     Check: negative starting charge=   -0.006511

     negative rho (up, down):  1.703E-04 0.000E+00

     total cpu time spent up to now is       31.3 secs

     per-process dynamical memory:    50.7 Mb

     Self-consistent Calculation

     iteration #  1     ecut=    30.00 Ry     beta=0.70
     Davidson diagonalization with overlap
     ethr =  1.00E-06,  avg # of iterations =  4.0

     negative rho (up, down):  2.379E-06 0.000E+00

     total cpu time spent up to now is       31.7 secs

     total energy              =    -329.49141680 Ry
     Harris-Foulkes estimate   =    -329.49144458 Ry
     estimated scf accuracy    <       0.00015339 Ry

     iteration #  2     ecut=    30.00 Ry     beta=0.70
     Davidson diagonalization with overlap
     ethr =  2.79E-07,  avg # of iterations =  2.0

     negative rho (up, down):  2.616E-07 0.000E+00

     total cpu time spent up to now is       31.9 secs

     total energy              =    -329.49142831 Ry
     Harris-Foulkes estimate   =    -329.49151907 Ry
     estimated scf accuracy    <       0.00019800 Ry

     iteration #  3     ecut=    30.00 Ry     beta=0.70
     Davidson diagonalization with overlap
     ethr =  2.79E-07,  avg # of iterations =  2.0

     total cpu time spent up to now is       32.2 secs

     total energy              =    -329.49146756 Ry
     Harris-Foulkes estimate   =    -329.49148433 Ry
     estimated scf accuracy    <       0.00004325 Ry

     iteration #  4     ecut=    30.00 Ry     beta=0.70
     Davidson diagonalization with overlap
     ethr =  7.86E-08,  avg # of iterations =  2.0

     total cpu time spent up to now is       32.4 secs

     total energy              =    -329.49147692 Ry
     Harris-Foulkes estimate   =    -329.49147853 Ry
     estimated scf accuracy    <       0.00000541 Ry

     iteration #  5     ecut=    30.00 Ry     beta=0.70
     Davidson diagonalization with overlap
     ethr =  9.84E-09,  avg # of iterations =  2.0

     total cpu time spent up to now is       32.6 secs

     total energy              =    -329.49147755 Ry
     Harris-Foulkes estimate   =    -329.49147827 Ry
     estimated scf accuracy    <       0.00000102 Ry

     iteration #  6     ecut=    30.00 Ry     beta=0.70
     Davidson diagonalization with overlap
     ethr =  1.85E-09,  avg # of iterations =  2.0

     total cpu time spent up to now is       32.9 secs

     total energy              =    -329.49147749 Ry
     Harris-Foulkes estimate   =    -329.49147779 Ry
     estimated scf accuracy    <       0.00000009 Ry

     iteration #  7     ecut=    30.00 Ry     beta=0.70
     Davidson diagonalization with overlap
     ethr =  1.72E-10,  avg # of iterations =  2.0

     total cpu time spent up to now is       33.1 secs

     total energy              =    -329.49147752 Ry
     Harris-Foulkes estimate   =    -329.49147751 Ry
     estimated scf accuracy    <       0.00000001 Ry

     iteration #  8     ecut=    30.00 Ry     beta=0.70
     Davidson diagonalization with overlap
     ethr =  2.52E-11,  avg # of iterations =  2.0

     total cpu time spent up to now is       33.4 secs

     total energy              =    -329.49147751 Ry
     Harris-Foulkes estimate   =    -329.49147753 Ry
     estimated scf accuracy    <          8.0E-09 Ry

     iteration #  9     ecut=    30.00 Ry     beta=0.70
     Davidson diagonalization with overlap
     ethr =  1.45E-11,  avg # of iterations =  2.0

     total cpu time spent up to now is       33.6 secs

     total energy              =    -329.49147753 Ry
     Harris-Foulkes estimate   =    -329.49147751 Ry
     estimated scf accuracy    <          6.6E-10 Ry

     iteration # 10     ecut=    30.00 Ry     beta=0.70
     Davidson diagonalization with overlap
     ethr =  1.19E-12,  avg # of iterations =  3.0

     total cpu time spent up to now is       33.9 secs

     End of self-consistent calculation

          k = 0.0000 0.0000 0.0000 ( 22119 PWs)   bands (ev):

    -8.5307  -7.7903  -7.6536  -7.2328  -6.9091  -6.8338  -6.6187  -6.4856
    -6.3029  -6.0803  -5.9817  -5.7743  -5.7381  -5.6940  -5.4308  -5.3734
    -5.3236  -5.2370  -5.2039  -5.1949  -5.1693  -5.1309  -4.9876  -4.9282
    -4.8807  -4.6922  -4.4825  -3.7768  -2.4510  -2.2211  -0.5665  -0.2156
     0.4544   0.8784

     the Fermi energy is    -3.7442 ev

!    total energy              =    -329.49147752 Ry
     Harris-Foulkes estimate   =    -329.49147753 Ry
     estimated scf accuracy    <          6.4E-11 Ry

     The total energy is the sum of the following terms:

     one-electron contribution =    -609.61588361 Ry
     hartree contribution      =     326.23088078 Ry
     xc contribution           =     -51.40448611 Ry
     ewald contribution        =       5.30233902 Ry
     smearing contrib. (-TS)   =      -0.00432760 Ry

     convergence has been achieved in  10 iterations

     Forces acting on atoms (Ry/au):

     atom    1 type  1   force =    -0.00205914   -0.00067653   -0.00242116
     atom    2 type  1   force =     0.00051353    0.00068735    0.00032081
     atom    3 type  1   force =    -0.00042291   -0.00028321    0.00106526
     atom    4 type  1   force =    -0.00133013    0.00152136    0.00003983
     atom    5 type  1   force =     0.00329864   -0.00124897    0.00099527

     Total force =     0.005505     Total SCF correction =     0.000036

     number of scf cycles    =  12
     number of bfgs steps    =  11

     energy   old            =    -329.4914215520 Ry
     energy   new            =    -329.4914775160 Ry

     CASE: energy  _new < energy  _old

     new trust radius        =       0.0153283027 bohr
     new conv_thr            =            1.0E-10 Ry


ATOMIC_POSITIONS (bohr)
Au      -1.747147098   2.280075533  -1.063528033
Au      -0.921605987   3.535322839   3.894412905
Au       2.982651708   1.917672905   0.614559262
Au       3.775058493   3.015337876   6.016461370
Au       7.522863884   1.696590848   2.759666496



     Writing output data file pwscf.save
     Check: negative starting charge=   -0.006511
     NEW-OLD atomic charge density approx. for the potential
     Check: negative starting charge=   -0.006510

     negative rho (up, down):  3.200E-05 0.000E+00

     total cpu time spent up to now is       34.1 secs

     per-process dynamical memory:    50.7 Mb

     Self-consistent Calculation

     iteration #  1     ecut=    30.00 Ry     beta=0.70
     Davidson diagonalization with overlap
     ethr =  1.00E-06,  avg # of iterations =  4.0

     Threshold (ethr) on eigenvalues was too large:
     Diagonalizing with lowered threshold

     Davidson diagonalization with overlap
     ethr =  8.59E-08,  avg # of iterations =  1.0

     negative rho (up, down):  6.991E-08 0.000E+00

     total cpu time spent up to now is       34.7 secs

     total energy              =    -329.49150114 Ry
     Harris-Foulkes estimate   =    -329.49151650 Ry
     estimated scf accuracy    <       0.00004737 Ry

     iteration #  2     ecut=    30.00 Ry     beta=0.70
     Davidson diagonalization with overlap
     ethr =  8.61E-08,  avg # of iterations =  2.0

     total cpu time spent up to now is       35.0 secs

     total energy              =    -329.49150421 Ry
     Harris-Foulkes estimate   =    -329.49153190 Ry
     estimated scf accuracy    <       0.00005971 Ry

     iteration #  3     ecut=    30.00 Ry     beta=0.70
     Davidson diagonalization with overlap
     ethr =  8.61E-08,  avg # of iterations =  2.0

     total cpu time spent up to now is       35.2 secs

     total energy              =    -329.49151575 Ry
     Harris-Foulkes estimate   =    -329.49152134 Ry
     estimated scf accuracy    <       0.00001398 Ry

     iteration #  4     ecut=    30.00 Ry     beta=0.70
     Davidson diagonalization with overlap
     ethr =  2.54E-08,  avg # of iterations =  2.0

     total cpu time spent up to now is       35.4 secs

     total energy              =    -329.49151878 Ry
     Harris-Foulkes estimate   =    -329.49151931 Ry
     estimated scf accuracy    <       0.00000180 Ry

     iteration #  5     ecut=    30.00 Ry     beta=0.70
     Davidson diagonalization with overlap
     ethr =  3.28E-09,  avg # of iterations =  2.0

     total cpu time spent up to now is       35.7 secs

     total energy              =    -329.49151895 Ry
     Harris-Foulkes estimate   =    -329.49151920 Ry
     estimated scf accuracy    <       0.00000021 Ry

     iteration #  6     ecut=    30.00 Ry     beta=0.70
     Davidson diagonalization with overlap
     ethr =  3.90E-10,  avg # of iterations =  2.0

     total cpu time spent up to now is       35.9 secs

     total energy              =    -329.49151896 Ry
     Harris-Foulkes estimate   =    -329.49151901 Ry
     estimated scf accuracy    <       0.00000002 Ry

     iteration #  7     ecut=    30.00 Ry     beta=0.70
     Davidson diagonalization with overlap
     ethr =  4.49E-11,  avg # of iterations =  2.0

     total cpu time spent up to now is       36.1 secs

     total energy              =    -329.49151894 Ry
     Harris-Foulkes estimate   =    -329.49151897 Ry
     estimated scf accuracy    <          3.9E-09 Ry

     iteration #  8     ecut=    30.00 Ry     beta=0.70
     Davidson diagonalization with overlap
     ethr =  7.13E-12,  avg # of iterations =  2.0

     total cpu time spent up to now is       36.4 secs

     total energy              =    -329.49151887 Ry
     Harris-Foulkes estimate   =    -329.49151894 Ry
     estimated scf accuracy    <          1.7E-09 Ry

     iteration #  9     ecut=    30.00 Ry     beta=0.70
     Davidson diagonalization with overlap
     ethr =  3.05E-12,  avg # of iterations =  2.0

     total cpu time spent up to now is       36.6 secs

     total energy              =    -329.49151887 Ry
     Harris-Foulkes estimate   =    -329.49151887 Ry
     estimated scf accuracy    <          3.0E-10 Ry

     iteration # 10     ecut=    30.00 Ry     beta=0.70
     Davidson diagonalization with overlap
     ethr =  5.48E-13,  avg # of iterations =  2.0

[...]
Au       3.010333979   1.899784911   0.657175844
Au       3.735174977   3.087454253   5.935030153
Au       7.560389438   1.601075854   2.830380712



     Writing output data file pwscf.save
     Check: negative starting charge=   -0.006487
     NEW-OLD atomic charge density approx. for the potential
     Check: negative starting charge=   -0.006488

     negative rho (up, down):  1.398E-05 0.000E+00

     total cpu time spent up to now is       64.6 secs

     per-process dynamical memory:    50.7 Mb

     Self-consistent Calculation

     iteration #  1     ecut=    30.00 Ry     beta=0.70
     Davidson diagonalization with overlap
     ethr =  1.00E-06,  avg # of iterations =  4.0

     Threshold (ethr) on eigenvalues was too large:
     Diagonalizing with lowered threshold

     Davidson diagonalization with overlap
     ethr =  5.70E-08,  avg # of iterations =  1.0

     negative rho (up, down):  1.379E-08 0.000E+00

     total cpu time spent up to now is       65.1 secs

     total energy              =    -329.49186850 Ry
     Harris-Foulkes estimate   =    -329.49188423 Ry
     estimated scf accuracy    <       0.00003191 Ry

     iteration #  2     ecut=    30.00 Ry     beta=0.70
     Davidson diagonalization with overlap
     ethr =  5.80E-08,  avg # of iterations =  3.0

     total cpu time spent up to now is       65.3 secs

     total energy              =    -329.49187421 Ry
     Harris-Foulkes estimate   =    -329.49188733 Ry
     estimated scf accuracy    <       0.00002894 Ry

     iteration #  3     ecut=    30.00 Ry     beta=0.70
     Davidson diagonalization with overlap
     ethr =  5.26E-08,  avg # of iterations =  2.0

     total cpu time spent up to now is       65.6 secs

     total energy              =    -329.49188013 Ry
     Harris-Foulkes estimate   =    -329.49188115 Ry
     estimated scf accuracy    <       0.00000259 Ry

     iteration #  4     ecut=    30.00 Ry     beta=0.70
     Davidson diagonalization with overlap
     ethr =  4.71E-09,  avg # of iterations =  2.0

     total cpu time spent up to now is       65.8 secs

     total energy              =    -329.49188054 Ry
     Harris-Foulkes estimate   =    -329.49188164 Ry
     estimated scf accuracy    <       0.00000285 Ry

     iteration #  5     ecut=    30.00 Ry     beta=0.70
     Davidson diagonalization with overlap
     ethr =  4.71E-09,  avg # of iterations =  2.0

     total cpu time spent up to now is       66.0 secs

     total energy              =    -329.49188105 Ry
     Harris-Foulkes estimate   =    -329.49188107 Ry
     estimated scf accuracy    <       0.00000013 Ry

     iteration #  6     ecut=    30.00 Ry     beta=0.70
     Davidson diagonalization with overlap
     ethr =  2.42E-10,  avg # of iterations =  3.0

     total cpu time spent up to now is       66.3 secs

     total energy              =    -329.49188113 Ry
     Harris-Foulkes estimate   =    -329.49188109 Ry
     estimated scf accuracy    <          6.5E-09 Ry

     iteration #  7     ecut=    30.00 Ry     beta=0.70
     Davidson diagonalization with overlap
     ethr =  1.18E-11,  avg # of iterations =  2.0

     total cpu time spent up to now is       66.6 secs

     total energy              =    -329.49188113 Ry
     Harris-Foulkes estimate   =    -329.49188113 Ry
     estimated scf accuracy    <          1.9E-09 Ry

     iteration #  8     ecut=    30.00 Ry     beta=0.70
     Davidson diagonalization with overlap
     ethr =  3.45E-12,  avg # of iterations =  2.0

     total cpu time spent up to now is       66.8 secs

     total energy              =    -329.49188110 Ry
     Harris-Foulkes estimate   =    -329.49188113 Ry
     estimated scf accuracy    <          5.1E-10 Ry

     iteration #  9     ecut=    30.00 Ry     beta=0.70
     Davidson diagonalization with overlap
     ethr =  9.19E-13,  avg # of iterations =  2.0

     total cpu time spent up to now is       67.0 secs

     End of self-consistent calculation

          k = 0.0000 0.0000 0.0000 ( 22119 PWs)   bands (ev):

    -8.5216  -7.7933  -7.6698  -7.2492  -6.8670  -6.8224  -6.6255  -6.4916
    -6.3173  -6.0803  -5.9649  -5.7754  -5.7338  -5.6930  -5.4604  -5.3634
    -5.3196  -5.2466  -5.1996  -5.1838  -5.1740  -5.1238  -5.0023  -4.9225
    -4.8388  -4.7320  -4.4765  -3.7726  -2.4691  -2.2059  -0.5666  -0.1994
     0.4649   0.8762

     the Fermi energy is    -3.7395 ev

!    total energy              =    -329.49188109 Ry
     Harris-Foulkes estimate   =    -329.49188110 Ry
     estimated scf accuracy    <          6.1E-11 Ry

     The total energy is the sum of the following terms:

     one-electron contribution =    -609.63321429 Ry
     hartree contribution      =     326.24013572 Ry
     xc contribution           =     -51.40368364 Ry
     ewald contribution        =       5.30935603 Ry
     smearing contrib. (-TS)   =      -0.00447491 Ry

     convergence has been achieved in   9 iterations

     Forces acting on atoms (Ry/au):

     atom    1 type  1   force =    -0.00073139   -0.00003511   -0.00140320
     atom    2 type  1   force =    -0.00035649    0.00099005    0.00125815
     atom    3 type  1   force =     0.00214999   -0.00021546    0.00016844
     atom    4 type  1   force =    -0.00032266   -0.00046824    0.00027992
     atom    5 type  1   force =    -0.00073945   -0.00027124   -0.00030330

     Total force =     0.003318     Total SCF correction =     0.000033

     number of scf cycles    =  24
     number of bfgs steps    =  23

     energy   old            =    -329.4918598035 Ry
     energy   new            =    -329.4918810919 Ry

     CASE: energy  _new < energy  _old

     new trust radius        =       0.0165203020 bohr
     new conv_thr            =            1.0E-10 Ry


ATOMIC_POSITIONS (bohr)
Au      -1.714665197   2.272233103  -1.069966198
Au      -0.976771936   3.600886585   3.869223929
Au       3.017308677   1.903599852   0.650443325
Au       3.725753394   3.077334654   5.935188956
Au       7.560196062   1.590945805   2.836681988



     Writing output data file pwscf.save
     Check: negative starting charge=   -0.006488
     NEW-OLD atomic charge density approx. for the potential
     Check: negative starting charge=   -0.006485

     negative rho (up, down):  5.198E-05 0.000E+00

     total cpu time spent up to now is       67.3 secs

     per-process dynamical memory:    50.7 Mb

     Self-consistent Calculation

     iteration #  1     ecut=    30.00 Ry     beta=0.70
     Davidson diagonalization with overlap
     ethr =  1.00E-06,  avg # of iterations =  4.0

     negative rho (up, down):  2.060E-07 0.000E+00

     total cpu time spent up to now is       67.7 secs

     total energy              =    -329.49187812 Ry
     Harris-Foulkes estimate   =    -329.49190446 Ry
     estimated scf accuracy    <       0.00006439 Ry

     iteration #  2     ecut=    30.00 Ry     beta=0.70
     Davidson diagonalization with overlap
     ethr =  1.17E-07,  avg # of iterations =  3.0

     total cpu time spent up to now is       68.0 secs

     total energy              =    -329.49188872 Ry
     Harris-Foulkes estimate   =    -329.49191623 Ry
     estimated scf accuracy    <       0.00005822 Ry

     iteration #  3     ecut=    30.00 Ry     beta=0.70
     Davidson diagonalization with overlap
     ethr =  1.06E-07,  avg # of iterations =  2.0

     total cpu time spent up to now is       68.2 secs

     total energy              =    -329.49190141 Ry
     Harris-Foulkes estimate   =    -329.49190222 Ry
     estimated scf accuracy    <       0.00000334 Ry

     iteration #  4     ecut=    30.00 Ry     beta=0.70
     Davidson diagonalization with overlap
     ethr =  6.07E-09,  avg # of iterations =  2.0

     total cpu time spent up to now is       68.5 secs

     total energy              =    -329.49190165 Ry
     Harris-Foulkes estimate   =    -329.49190348 Ry
     estimated scf accuracy    <       0.00000430 Ry

     iteration #  5     ecut=    30.00 Ry     beta=0.70
     Davidson diagonalization with overlap
     ethr =  6.07E-09,  avg # of iterations =  2.0

     total cpu time spent up to now is       68.7 secs

     total energy              =    -329.49190242 Ry
     Harris-Foulkes estimate   =    -329.49190257 Ry
     estimated scf accuracy    <       0.00000038 Ry

     iteration #  6     ecut=    30.00 Ry     beta=0.70
     Davidson diagonalization with overlap
     ethr =  6.98E-10,  avg # of iterations =  2.0

     total cpu time spent up to now is       68.9 secs

     total energy              =    -329.49190253 Ry
     Harris-Foulkes estimate   =    -329.49190250 Ry
     estimated scf accuracy    <       0.00000001 Ry

     iteration #  7     ecut=    30.00 Ry     beta=0.70
     Davidson diagonalization with overlap
     ethr =  2.62E-11,  avg # of iterations =  3.0

     total cpu time spent up to now is       69.1 secs

     total energy              =    -329.49190251 Ry
     Harris-Foulkes estimate   =    -329.49190254 Ry
     estimated scf accuracy    <       0.00000001 Ry

     iteration #  8     ecut=    30.00 Ry     beta=0.70
     Davidson diagonalization with overlap
     ethr =  2.01E-11,  avg # of iterations =  2.0

     total cpu time spent up to now is       69.4 secs

     total energy              =    -329.49190250 Ry
     Harris-Foulkes estimate   =    -329.49190251 Ry
     estimated scf accuracy    <          1.1E-09 Ry

     iteration #  9     ecut=    30.00 Ry     beta=0.70
     Davidson diagonalization with overlap
     ethr =  2.04E-12,  avg # of iterations =  3.0

     total cpu time spent up to now is       69.7 secs

     total energy              =    -329.49190250 Ry
     Harris-Foulkes estimate   =    -329.49190250 Ry
     estimated scf accuracy    <          1.0E-10 Ry

     iteration # 10     ecut=    30.00 Ry     beta=0.70
     Davidson diagonalization with overlap
     ethr =  1.84E-13,  avg # of iterations =  2.0

     total cpu time spent up to now is       69.9 secs

     End of self-consistent calculation

          k = 0.0000 0.0000 0.0000 ( 22119 PWs)   bands (ev):

    -8.5143  -7.7862  -7.6683  -7.2462  -6.8698  -6.8182  -6.6223  -6.4875
    -6.3178  -6.0759  -5.9631  -5.7748  -5.7322  -5.6919  -5.4564  -5.3658
    -5.3209  -5.2443  -5.2009  -5.1826  -5.1740  -5.1242  -5.0022  -4.9213
    -4.8378  -4.7345  -4.4739  -3.7757  -2.4702  -2.2045  -0.5654  -0.2015
     0.4653   0.8756

     the Fermi energy is    -3.7433 ev

!    total energy              =    -329.49190251 Ry
     Harris-Foulkes estimate   =    -329.49190250 Ry
     estimated scf accuracy    <          3.9E-11 Ry

     The total energy is the sum of the following terms:

     one-electron contribution =    -609.41474676 Ry
     hartree contribution      =     326.13333997 Ry
     xc contribution           =     -51.40318892 Ry
     ewald contribution        =       5.19701457 Ry
     smearing contrib. (-TS)   =      -0.00432138 Ry

     convergence has been achieved in  10 iterations

     Forces acting on atoms (Ry/au):

     atom    1 type  1   force =    -0.00026466    0.00015543   -0.00103008
     atom    2 type  1   force =    -0.00043657    0.00035273    0.00058423
     atom    3 type  1   force =     0.00144996   -0.00021464    0.00070457
     atom    4 type  1   force =     0.00020013   -0.00035015    0.00006553
     atom    5 type  1   force =    -0.00094884    0.00005663   -0.00032425

     Total force =     0.002373     Total SCF correction =     0.000024

     number of scf cycles    =  25
     number of bfgs steps    =  24

     energy   old            =    -329.4918810919 Ry
     energy   new            =    -329.4919025104 Ry

     CASE: energy  _new < energy  _old

     new trust radius        =       0.0055157827 bohr
     new conv_thr            =            1.0E-10 Ry


ATOMIC_POSITIONS (bohr)
Au      -1.712500518   2.272267660  -1.071288907
Au      -0.980139826   3.605166293   3.870098726
Au       3.021299067   1.902633030   0.651506881
Au       3.723003390   3.078913564   5.932240478
Au       7.560158887   1.586019453   2.839014822



     Writing output data file pwscf.save
     Check: negative starting charge=   -0.006485
     NEW-OLD atomic charge density approx. for the potential
     Check: negative starting charge=   -0.006482

     negative rho (up, down):  7.730E-07 0.000E+00

     total cpu time spent up to now is       70.1 secs

     per-process dynamical memory:    50.7 Mb

     Self-consistent Calculation

     iteration #  1     ecut=    30.00 Ry     beta=0.70
     Davidson diagonalization with overlap
     ethr =  1.00E-06,  avg # of iterations =  3.0

     Threshold (ethr) on eigenvalues was too large:
     Diagonalizing with lowered threshold

     Davidson diagonalization with overlap
     ethr =  1.18E-08,  avg # of iterations =  2.0

     total cpu time spent up to now is       70.7 secs

     total energy              =    -329.49190639 Ry
     Harris-Foulkes estimate   =    -329.49190767 Ry
     estimated scf accuracy    <       0.00000712 Ry

     iteration #  2     ecut=    30.00 Ry     beta=0.70
     Davidson diagonalization with overlap
     ethr =  1.29E-08,  avg # of iterations =  3.0

     total cpu time spent up to now is       70.9 secs

     total energy              =    -329.49190766 Ry
     Harris-Foulkes estimate   =    -329.49191043 Ry
     estimated scf accuracy    <       0.00000659 Ry

     iteration #  3     ecut=    30.00 Ry     beta=0.70
     Davidson diagonalization with overlap
     ethr =  1.20E-08,  avg # of iterations =  2.0

     total cpu time spent up to now is       71.2 secs

     total energy              =    -329.49190893 Ry
     Harris-Foulkes estimate   =    -329.49190931 Ry
     estimated scf accuracy    <       0.00000055 Ry

     iteration #  4     ecut=    30.00 Ry     beta=0.70
     Davidson diagonalization with overlap
     ethr =  9.95E-10,  avg # of iterations =  3.0

     total cpu time spent up to now is       71.4 secs

     total energy              =    -329.49190875 Ry
     Harris-Foulkes estimate   =    -329.49190919 Ry
     estimated scf accuracy    <       0.00000039 Ry

     iteration #  5     ecut=    30.00 Ry     beta=0.70
     Davidson diagonalization with overlap
     ethr =  7.06E-10,  avg # of iterations =  2.0

     total cpu time spent up to now is       71.7 secs

     total energy              =    -329.49190875 Ry
     Harris-Foulkes estimate   =    -329.49190884 Ry
     estimated scf accuracy    <       0.00000002 Ry

     iteration #  6     ecut=    30.00 Ry     beta=0.70
     Davidson diagonalization with overlap
     ethr =  3.80E-11,  avg # of iterations =  3.0

     total cpu time spent up to now is       71.9 secs

     total energy              =    -329.49190871 Ry
     Harris-Foulkes estimate   =    -329.49190876 Ry
     estimated scf accuracy    <          3.7E-09 Ry

     iteration #  7     ecut=    30.00 Ry     beta=0.70
     Davidson diagonalization with overlap
     ethr =  6.76E-12,  avg # of iterations =  2.0

     total cpu time spent up to now is       72.2 secs

     total energy              =    -329.49190873 Ry
     Harris-Foulkes estimate   =    -329.49190871 Ry
     estimated scf accuracy    <          1.7E-09 Ry

     iteration #  8     ecut=    30.00 Ry     beta=0.70
     Davidson diagonalization with overlap
     ethr =  3.08E-12,  avg # of iterations =  2.0

     total cpu time spent up to now is       72.5 secs

     total energy              =    -329.49190871 Ry
     Harris-Foulkes estimate   =    -329.49190873 Ry
     estimated scf accuracy    <          1.2E-10 Ry

     iteration #  9     ecut=    30.00 Ry     beta=0.70
     Davidson diagonalization with overlap
     ethr =  2.25E-13,  avg # of iterations =  2.0

     total cpu time spent up to now is       72.7 secs

     End of self-consistent calculation

          k = 0.0000 0.0000 0.0000 ( 22119 PWs)   bands (ev):

    -8.5129  -7.7841  -7.6673  -7.2443  -6.8691  -6.8174  -6.6205  -6.4861
    -6.3172  -6.0755  -5.9619  -5.7748  -5.7318  -5.6915  -5.4556  -5.3658
    -5.3211  -5.2439  -5.2013  -5.1823  -5.1737  -5.1242  -5.0018  -4.9212
    -4.8370  -4.7360  -4.4735  -3.7767  -2.4701  -2.2048  -0.5649  -0.2018
     0.4661   0.8755

     the Fermi energy is    -3.7444 ev

!    total energy              =    -329.49190871 Ry
     Harris-Foulkes estimate   =    -329.49190871 Ry
     estimated scf accuracy    <          1.2E-11 Ry

     The total energy is the sum of the following terms:

     one-electron contribution =    -609.32589795 Ry
     hartree contribution      =     326.08985556 Ry
     xc contribution           =     -51.40294208 Ry
     ewald contribution        =       5.15136170 Ry
     smearing contrib. (-TS)   =      -0.00428593 Ry

     convergence has been achieved in   9 iterations

     Forces acting on atoms (Ry/au):

     atom    1 type  1   force =     0.00011244    0.00029699   -0.00056475
     atom    2 type  1   force =    -0.00039263    0.00010997    0.00016784
     atom    3 type  1   force =     0.00061755   -0.00009815    0.00055072
     atom    4 type  1   force =     0.00025794   -0.00039928    0.00005297
     atom    5 type  1   force =    -0.00059531    0.00009047   -0.00020678

     Total force =     0.001394     Total SCF correction =     0.000015

     bfgs converged in  26 scf cycles and  25 bfgs steps
     (criteria: energy <  1.0E-04, force <  1.0E-03)

     End of BFGS Geometry Optimization

     Final energy   =    -329.4919087062 Ry
Begin final coordinates

ATOMIC_POSITIONS (bohr)
Au      -1.712500518   2.272267660  -1.071288907
Au      -0.980139826   3.605166293   3.870098726
Au       3.021299067   1.902633030   0.651506881
Au       3.723003390   3.078913564   5.932240478
Au       7.560158887   1.586019453   2.839014822
End final coordinates



     Writing output data file pwscf.save
 
     init_run     :      0.17s CPU      0.22s WALL (       1 calls)
     electrons    :     60.96s CPU     67.06s WALL (      26 calls)
     update_pot   :      1.82s CPU      2.33s WALL (      25 calls)
     forces       :      1.16s CPU      1.21s WALL (      26 calls)

     Called by init_run:
     wfcinit      :      0.07s CPU      0.11s WALL (       1 calls)
     potinit      :      0.03s CPU      0.04s WALL (       1 calls)

     Called by electrons:
     c_bands      :     46.49s CPU     48.56s WALL (     262 calls)
     sum_band     :      6.76s CPU      7.12s WALL (     262 calls)
     v_of_rho     :      5.27s CPU      5.50s WALL (     273 calls)
     mix_rho      :      2.10s CPU      4.44s WALL (     262 calls)

     Called by c_bands:
     init_us_2    :      0.89s CPU      0.96s WALL (     525 calls)
     cegterg      :     41.23s CPU     42.90s WALL (     262 calls)

     Called by sum_band:

     Called by *egterg:
     h_psi        :     32.45s CPU     33.65s WALL (     867 calls)
     g_psi        :      0.32s CPU      0.34s WALL (     604 calls)
     cdiaghg      :      2.07s CPU      2.15s WALL (     826 calls)

     Called by h_psi:
     h_psi:pot    :     31.98s CPU     33.17s WALL (     867 calls)
     h_psi:calbec :      1.76s CPU      1.81s WALL (     867 calls)
     vloc_psi     :     28.21s CPU     29.26s WALL (     867 calls)
     add_vuspsi   :      2.01s CPU      2.09s WALL (     867 calls)

     General routines
     calbec       :      2.08s CPU      2.16s WALL (     971 calls)
     fft          :      2.91s CPU      3.06s WALL (    3084 calls)
     fftw         :     30.09s CPU     31.08s WALL (   57508 calls)
     davcio       :      0.31s CPU      2.20s WALL (    2527 calls)
 
     Parallel routines
     fft_scatter  :      7.42s CPU      7.46s WALL (   60592 calls)
 
     PWSCF        :  1m 4.89s CPU     1m12.89s WALL

 
   This run was terminated on:  12:34:58   3Aug2017            

=------------------------------------------------------------------------------=
   JOB DONE.
=------------------------------------------------------------------------------=
