
     Program PWSCF v.6.0 (svn rev. 13079) starts on  3Aug2017 at 19:27:13 

     This program is part of the open-source Quantum ESPRESSO suite
     for quantum simulation of materials; please cite
         "P. Giannozzi et al., J. Phys.:Condens. Matter 21 395502 (2009);
          URL http://www.quantum-espresso.org", 
     in publications or presentations arising from this work. More details at
     http://www.quantum-espresso.org/quote

     Parallel version (MPI), running on    10 processors
     R & G space division:  proc/nbgrp/npool/nimage =      10
     Reading input from input/multi/minchecks-Gold5-393.in

     Current dimensions of program PWSCF are:
     Max number of different atomic species (ntypx) = 10
     Max number of k-points (npk) =  40000
     Max angular momentum in pseudopotentials (lmaxx) =  3
     Message from routine iosys:
     pot_extrapolation='second-order' not available, using 'atomic'
     Message from routine iosys:
     wfc_extrapolation='second-order' not available, using 'atomic'

     Subspace diagonalization in iterative solution of the eigenvalue problem:
     a serial algorithm will be used

 
     Parallelization info
     --------------------
     sticks:   dense  smooth     PW     G-vecs:    dense   smooth      PW
     Min         380     380     94                17748    17748    2208
     Max         381     381     95                17753    17753    2213
     Sum        3809    3809    949               177509   177509   22119
 


     bravais-lattice index     =            1
     lattice parameter (alat)  =      20.0000  a.u.
     unit-cell volume          =    8000.0000 (a.u.)^3
     number of atoms/cell      =            5
     number of atomic types    =            1
     number of electrons       =        55.00
     number of Kohn-Sham states=           34
     kinetic-energy cutoff     =      30.0000  Ry
     charge density cutoff     =     120.0000  Ry
     convergence threshold     =      1.0E-08
     mixing beta               =       0.7000
     number of iterations used =            8  plain     mixing
     Exchange-correlation      = BLYP ( 1  3  1  3 0 0)
     nstep                     =           50


     celldm(1)=  20.000000  celldm(2)=   0.000000  celldm(3)=   0.000000
     celldm(4)=   0.000000  celldm(5)=   0.000000  celldm(6)=   0.000000

     crystal axes: (cart. coord. in units of alat)
               a(1) = (   1.000000   0.000000   0.000000 )  
               a(2) = (   0.000000   1.000000   0.000000 )  
               a(3) = (   0.000000   0.000000   1.000000 )  

     reciprocal axes: (cart. coord. in units 2 pi/alat)
               b(1) = (  1.000000  0.000000  0.000000 )  
               b(2) = (  0.000000  1.000000  0.000000 )  
               b(3) = (  0.000000  0.000000  1.000000 )  


     PseudoPot. # 1 for Au read from file:
     ./Au.blyp-d-hgh.UPF
     MD5 check sum: c10d8bae01f806c36a1643a1c69a8479
     Pseudo is Norm-conserving, Zval = 11.0
     Generated in analytical, separable form
     Using radial grid of 1279 points,  6 beta functions with: 
                l(1) =   0
                l(2) =   0
                l(3) =   1
                l(4) =   1
                l(5) =   2
                l(6) =   2

     atomic species   valence    mass     pseudopotential
        Au            11.00    28.08600     Au( 1.00)

     No symmetry found



   Cartesian axes

     site n.     atom                  positions (alat units)
         1           Au  tau(   1) = (  -0.0942278   0.1053815  -0.0522265  )
         2           Au  tau(   2) = (  -0.0396023   0.1886950   0.1800662  )
         3           Au  tau(   3) = (   0.1491340   0.0503919   0.0256390  )
         4           Au  tau(   4) = (   0.1938776   0.1759204   0.2869966  )
         5           Au  tau(   5) = (   0.3847412   0.0562568   0.1659500  )

     number of k points=     1  Marzari-Vanderbilt smearing, width (Ry)=  0.0250
                       cart. coord. in units 2pi/alat
        k(    1) = (   0.0000000   0.0000000   0.0000000), wk =   2.0000000

     Dense  grid:   177509 G-vectors     FFT dimensions: (  72,  72,  72)

     Estimated max dynamical RAM per process >      15.04Mb

     Estimated total allocated dynamical RAM >     150.39Mb

     Initial potential from superposition of free atoms
     Check: negative starting charge=   -0.006246

     starting charge   54.99940, renormalised to   55.00000

     negative rho (up, down):  6.246E-03 0.000E+00
     Starting wfc are   45 randomized atomic wfcs

     total cpu time spent up to now is        0.3 secs

     per-process dynamical memory:    41.0 Mb

     Self-consistent Calculation

     iteration #  1     ecut=    30.00 Ry     beta=0.70
     Davidson diagonalization with overlap
     ethr =  1.00E-02,  avg # of iterations =  3.0

     Threshold (ethr) on eigenvalues was too large:
     Diagonalizing with lowered threshold

     Davidson diagonalization with overlap
     ethr =  3.78E-04,  avg # of iterations =  6.0

     negative rho (up, down):  8.441E-04 0.000E+00

     total cpu time spent up to now is        0.7 secs

     total energy              =    -329.37443787 Ry
     Harris-Foulkes estimate   =    -329.53072455 Ry
     estimated scf accuracy    <       0.26251280 Ry

     iteration #  2     ecut=    30.00 Ry     beta=0.70
     Davidson diagonalization with overlap
     ethr =  4.77E-04,  avg # of iterations =  3.0

     negative rho (up, down):  3.704E-04 0.000E+00

     total cpu time spent up to now is        1.0 secs

     total energy              =    -329.40984417 Ry
     Harris-Foulkes estimate   =    -329.54378941 Ry
     estimated scf accuracy    <       0.27418967 Ry

     iteration #  3     ecut=    30.00 Ry     beta=0.70
     Davidson diagonalization with overlap
     ethr =  4.77E-04,  avg # of iterations =  2.0

     negative rho (up, down):  1.386E-04 0.000E+00

     total cpu time spent up to now is        1.2 secs

     total energy              =    -329.46661372 Ry
     Harris-Foulkes estimate   =    -329.48891110 Ry
     estimated scf accuracy    <       0.05722990 Ry

     iteration #  4     ecut=    30.00 Ry     beta=0.70
     Davidson diagonalization with overlap
     ethr =  1.04E-04,  avg # of iterations =  2.0

     negative rho (up, down):  3.135E-06 0.000E+00

     total cpu time spent up to now is        1.4 secs

     total energy              =    -329.47712325 Ry
     Harris-Foulkes estimate   =    -329.47803745 Ry
     estimated scf accuracy    <       0.00234251 Ry

     iteration #  5     ecut=    30.00 Ry     beta=0.70
     Davidson diagonalization with overlap
     ethr =  4.26E-06,  avg # of iterations =  9.0

     total cpu time spent up to now is        1.7 secs

     total energy              =    -329.47775423 Ry
     Harris-Foulkes estimate   =    -329.47843081 Ry
     estimated scf accuracy    <       0.00172021 Ry

     iteration #  6     ecut=    30.00 Ry     beta=0.70
     Davidson diagonalization with overlap
     ethr =  3.13E-06,  avg # of iterations =  2.0

     total cpu time spent up to now is        1.9 secs

     total energy              =    -329.47802907 Ry
     Harris-Foulkes estimate   =    -329.47810365 Ry
     estimated scf accuracy    <       0.00017712 Ry

     iteration #  7     ecut=    30.00 Ry     beta=0.70
     Davidson diagonalization with overlap
     ethr =  3.22E-07,  avg # of iterations =  2.0

     total cpu time spent up to now is        2.2 secs

     total energy              =    -329.47806459 Ry
     Harris-Foulkes estimate   =    -329.47807788 Ry
     estimated scf accuracy    <       0.00003169 Ry

     iteration #  8     ecut=    30.00 Ry     beta=0.70
     Davidson diagonalization with overlap
     ethr =  5.76E-08,  avg # of iterations =  2.0

     total cpu time spent up to now is        2.4 secs

     total energy              =    -329.47806947 Ry
     Harris-Foulkes estimate   =    -329.47807496 Ry
     estimated scf accuracy    <       0.00001346 Ry

     iteration #  9     ecut=    30.00 Ry     beta=0.70
     Davidson diagonalization with overlap
     ethr =  2.45E-08,  avg # of iterations =  2.0

     total cpu time spent up to now is        2.6 secs

     total energy              =    -329.47807184 Ry
     Harris-Foulkes estimate   =    -329.47807262 Ry
     estimated scf accuracy    <       0.00000148 Ry

     iteration # 10     ecut=    30.00 Ry     beta=0.70
     Davidson diagonalization with overlap
     ethr =  2.69E-09,  avg # of iterations =  2.0

     total cpu time spent up to now is        2.8 secs

     total energy              =    -329.47807214 Ry
     Harris-Foulkes estimate   =    -329.47807228 Ry
     estimated scf accuracy    <       0.00000026 Ry

     iteration # 11     ecut=    30.00 Ry     beta=0.70
     Davidson diagonalization with overlap
     ethr =  4.75E-10,  avg # of iterations =  2.0

     total cpu time spent up to now is        3.0 secs

     total energy              =    -329.47807209 Ry
     Harris-Foulkes estimate   =    -329.47807221 Ry
     estimated scf accuracy    <       0.00000004 Ry

     iteration # 12     ecut=    30.00 Ry     beta=0.70
     Davidson diagonalization with overlap
     ethr =  7.48E-11,  avg # of iterations =  2.0

     total cpu time spent up to now is        3.3 secs

     total energy              =    -329.47807211 Ry
     Harris-Foulkes estimate   =    -329.47807210 Ry
     estimated scf accuracy    <       0.00000001 Ry

     iteration # 13     ecut=    30.00 Ry     beta=0.70
     Davidson diagonalization with overlap
     ethr =  1.98E-11,  avg # of iterations =  2.0

     total cpu time spent up to now is        3.5 secs

     End of self-consistent calculation

          k = 0.0000 0.0000 0.0000 ( 22119 PWs)   bands (ev):

    -8.0492  -7.5037  -7.4703  -7.1069  -6.8061  -6.6456  -6.5376  -6.3685
    -6.2292  -5.9950  -5.8087  -5.6686  -5.6254  -5.5781  -5.4538  -5.4082
    -5.3375  -5.2146  -5.1910  -5.1830  -5.1453  -5.1361  -5.0983  -4.9037
    -4.8481  -4.7818  -4.4368  -3.7912  -2.7517  -2.1410  -0.4898  -0.1837
     0.3584   0.7541

     the Fermi energy is    -3.7653 ev

!    total energy              =    -329.47807210 Ry
     Harris-Foulkes estimate   =    -329.47807211 Ry
     estimated scf accuracy    <          4.3E-09 Ry

     The total energy is the sum of the following terms:

     one-electron contribution =    -591.09233717 Ry
     hartree contribution      =     317.08712490 Ry
     xc contribution           =     -51.35415511 Ry
     ewald contribution        =      -4.11574049 Ry
     smearing contrib. (-TS)   =      -0.00296423 Ry

     convergence has been achieved in  13 iterations

     Forces acting on atoms (Ry/au):

     atom    1 type  1   force =     0.01288903   -0.00808229   -0.00560855
     atom    2 type  1   force =     0.00666469   -0.00062376    0.00092280
     atom    3 type  1   force =     0.00607131    0.01629971    0.02700344
     atom    4 type  1   force =     0.00225073   -0.00533027   -0.00798652
     atom    5 type  1   force =    -0.02787576   -0.00226340   -0.01433117

     Total force =     0.049245     Total SCF correction =     0.000297

     BFGS Geometry Optimization

     number of scf cycles    =   1
     number of bfgs steps    =   0

     energy   new            =    -329.4780720990 Ry

     new trust radius        =       0.0321205121 bohr
     new conv_thr            =       0.0000000100 Ry


ATOMIC_POSITIONS (bohr)
Au      -1.871666973   2.099546714  -1.050137550
Au      -0.785382315   3.773275243   3.602246805
Au       2.988750314   1.024138714   0.539783440
Au       3.879801731   3.513077728   5.731945478
Au       7.666949243   1.122872601   3.304668827



     Writing output data file pwscf.save
     Check: negative starting charge=   -0.006246
     NEW-OLD atomic charge density approx. for the potential
     Check: negative starting charge=   -0.006257

     negative rho (up, down):  1.924E-04 0.000E+00

     total cpu time spent up to now is        3.7 secs

     per-process dynamical memory:    42.9 Mb

     Self-consistent Calculation

     iteration #  1     ecut=    30.00 Ry     beta=0.70
     Davidson diagonalization with overlap
     ethr =  1.00E-06,  avg # of iterations =  4.0

     negative rho (up, down):  3.330E-06 0.000E+00

     total cpu time spent up to now is        4.1 secs

     total energy              =    -329.48030217 Ry
     Harris-Foulkes estimate   =    -329.48029079 Ry
     estimated scf accuracy    <       0.00014345 Ry

     iteration #  2     ecut=    30.00 Ry     beta=0.70
     Davidson diagonalization with overlap
     ethr =  2.61E-07,  avg # of iterations =  3.0

     negative rho (up, down):  7.984E-07 0.000E+00

     total cpu time spent up to now is        4.3 secs

     total energy              =    -329.48027690 Ry
     Harris-Foulkes estimate   =    -329.48043203 Ry
     estimated scf accuracy    <       0.00040458 Ry

     iteration #  3     ecut=    30.00 Ry     beta=0.70
     Davidson diagonalization with overlap
     ethr =  2.61E-07,  avg # of iterations =  2.0

     total cpu time spent up to now is        4.5 secs

     total energy              =    -329.48035589 Ry
     Harris-Foulkes estimate   =    -329.48036748 Ry
     estimated scf accuracy    <       0.00003894 Ry

     iteration #  4     ecut=    30.00 Ry     beta=0.70
     Davidson diagonalization with overlap
     ethr =  7.08E-08,  avg # of iterations =  2.0

     total cpu time spent up to now is        4.7 secs

     total energy              =    -329.48036319 Ry
     Harris-Foulkes estimate   =    -329.48036563 Ry
     estimated scf accuracy    <       0.00000670 Ry

     iteration #  5     ecut=    30.00 Ry     beta=0.70
     Davidson diagonalization with overlap
     ethr =  1.22E-08,  avg # of iterations =  2.0

     total cpu time spent up to now is        4.9 secs

     total energy              =    -329.48036458 Ry
     Harris-Foulkes estimate   =    -329.48036506 Ry
     estimated scf accuracy    <       0.00000125 Ry

     iteration #  6     ecut=    30.00 Ry     beta=0.70
     Davidson diagonalization with overlap
     ethr =  2.27E-09,  avg # of iterations =  2.0

     total cpu time spent up to now is        5.1 secs

     total energy              =    -329.48036473 Ry
     Harris-Foulkes estimate   =    -329.48036490 Ry
     estimated scf accuracy    <       0.00000015 Ry

     iteration #  7     ecut=    30.00 Ry     beta=0.70
     Davidson diagonalization with overlap
     ethr =  2.76E-10,  avg # of iterations =  2.0

     total cpu time spent up to now is        5.4 secs

     total energy              =    -329.48036476 Ry
     Harris-Foulkes estimate   =    -329.48036478 Ry
     estimated scf accuracy    <       0.00000003 Ry

     iteration #  8     ecut=    30.00 Ry     beta=0.70
     Davidson diagonalization with overlap
     ethr =  6.04E-11,  avg # of iterations =  2.0

     total cpu time spent up to now is        5.5 secs

     End of self-consistent calculation

          k = 0.0000 0.0000 0.0000 ( 22119 PWs)   bands (ev):

    -8.0794  -7.5316  -7.5017  -7.1375  -6.8247  -6.6618  -6.5473  -6.3908
    -6.2514  -6.0010  -5.8250  -5.6794  -5.6378  -5.5882  -5.4560  -5.4071
    -5.3373  -5.2176  -5.1916  -5.1797  -5.1506  -5.1316  -5.1026  -4.8965
    -4.8478  -4.7775  -4.4359  -3.7853  -2.7284  -2.1352  -0.4961  -0.1818
     0.3629   0.7591

     the Fermi energy is    -3.7587 ev

!    total energy              =    -329.48036476 Ry
     Harris-Foulkes estimate   =    -329.48036477 Ry
     estimated scf accuracy    <          2.7E-09 Ry

     The total energy is the sum of the following terms:

     one-electron contribution =    -593.20989377 Ry
     hartree contribution      =     318.13155339 Ry
     xc contribution           =     -51.35979575 Ry
     ewald contribution        =      -3.03910370 Ry
     smearing contrib. (-TS)   =      -0.00312492 Ry

     convergence has been achieved in   8 iterations

     Forces acting on atoms (Ry/au):

     atom    1 type  1   force =     0.01275471   -0.00790889   -0.00484525
     atom    2 type  1   force =     0.00493574   -0.00022059    0.00054175
     atom    3 type  1   force =     0.00510066    0.01541264    0.02420721
     atom    4 type  1   force =     0.00097766   -0.00378103   -0.00573096
     atom    5 type  1   force =    -0.02376878   -0.00350213   -0.01417274

     Total force =     0.044149     Total SCF correction =     0.000215

     number of scf cycles    =   2
     number of bfgs steps    =   1

     energy   old            =    -329.4780720990 Ry
     energy   new            =    -329.4803647558 Ry

     CASE: energy  _new < energy  _old


     WARNING: bfgs curvature condition failed, Theta= 0.895
     new trust radius        =       0.0353325633 bohr
     new conv_thr            =       0.0000000023 Ry


ATOMIC_POSITIONS (bohr)
Au      -1.856454489   2.090094528  -1.056068995
Au      -0.779136352   3.772926304   3.602973330
Au       2.995030210   1.042676499   0.569199481
Au       3.881238204   3.508244864   5.724640083
Au       7.637774426   1.118968806   3.287763102



     Writing output data file pwscf.save
     Check: negative starting charge=   -0.006257
     NEW-OLD atomic charge density approx. for the potential
     Check: negative starting charge=   -0.006263

     negative rho (up, down):  2.366E-04 0.000E+00

     total cpu time spent up to now is        5.8 secs

     per-process dynamical memory:    50.7 Mb

     Self-consistent Calculation

     iteration #  1     ecut=    30.00 Ry     beta=0.70
     Davidson diagonalization with overlap
     ethr =  1.00E-06,  avg # of iterations =  4.0

     negative rho (up, down):  5.072E-06 0.000E+00

     total cpu time spent up to now is        6.1 secs

     total energy              =    -329.48251736 Ry
     Harris-Foulkes estimate   =    -329.48248773 Ry
     estimated scf accuracy    <       0.00016550 Ry

     iteration #  2     ecut=    30.00 Ry     beta=0.70
     Davidson diagonalization with overlap
     ethr =  3.01E-07,  avg # of iterations =  3.0

     negative rho (up, down):  1.194E-06 0.000E+00

     total cpu time spent up to now is        6.4 secs

     total energy              =    -329.48249276 Ry
     Harris-Foulkes estimate   =    -329.48265651 Ry
     estimated scf accuracy    <       0.00041323 Ry

     iteration #  3     ecut=    30.00 Ry     beta=0.70
     Davidson diagonalization with overlap
     ethr =  3.01E-07,  avg # of iterations =  2.0

     total cpu time spent up to now is        6.6 secs

     total energy              =    -329.48257572 Ry
     Harris-Foulkes estimate   =    -329.48259120 Ry
     estimated scf accuracy    <       0.00005060 Ry

     iteration #  4     ecut=    30.00 Ry     beta=0.70
     Davidson diagonalization with overlap
     ethr =  9.20E-08,  avg # of iterations =  2.0

     total cpu time spent up to now is        6.8 secs

     total energy              =    -329.48258528 Ry
     Harris-Foulkes estimate   =    -329.48258792 Ry
     estimated scf accuracy    <       0.00000765 Ry

     iteration #  5     ecut=    30.00 Ry     beta=0.70
     Davidson diagonalization with overlap
     ethr =  1.39E-08,  avg # of iterations =  2.0

     total cpu time spent up to now is        7.0 secs

     total energy              =    -329.48258653 Ry
     Harris-Foulkes estimate   =    -329.48258751 Ry
     estimated scf accuracy    <       0.00000159 Ry

     iteration #  6     ecut=    30.00 Ry     beta=0.70
     Davidson diagonalization with overlap
     ethr =  2.89E-09,  avg # of iterations =  2.0

     total cpu time spent up to now is        7.2 secs

     total energy              =    -329.48258672 Ry
     Harris-Foulkes estimate   =    -329.48258692 Ry
     estimated scf accuracy    <       0.00000017 Ry

     iteration #  7     ecut=    30.00 Ry     beta=0.70
     Davidson diagonalization with overlap
     ethr =  3.11E-10,  avg # of iterations =  2.0

     total cpu time spent up to now is        7.4 secs

     total energy              =    -329.48258674 Ry
     Harris-Foulkes estimate   =    -329.48258677 Ry
     estimated scf accuracy    <       0.00000004 Ry

     iteration #  8     ecut=    30.00 Ry     beta=0.70
     Davidson diagonalization with overlap
     ethr =  6.90E-11,  avg # of iterations =  2.0

     total cpu time spent up to now is        7.6 secs

     total energy              =    -329.48258676 Ry
     Harris-Foulkes estimate   =    -329.48258675 Ry
     estimated scf accuracy    <          3.9E-09 Ry

     iteration #  9     ecut=    30.00 Ry     beta=0.70
     Davidson diagonalization with overlap
     ethr =  7.07E-12,  avg # of iterations =  3.0

     total cpu time spent up to now is        7.9 secs

     End of self-consistent calculation

          k = 0.0000 0.0000 0.0000 ( 22119 PWs)   bands (ev):

    -8.1165  -7.5663  -7.5308  -7.1697  -6.8446  -6.6762  -6.5629  -6.4129
    -6.2742  -6.0066  -5.8444  -5.6896  -5.6503  -5.5995  -5.4580  -5.4057
    -5.3371  -5.2200  -5.1924  -5.1764  -5.1563  -5.1272  -5.1049  -4.8892
    -4.8477  -4.7720  -4.4351  -3.7795  -2.7024  -2.1299  -0.5028  -0.1801
     0.3688   0.7647

     the Fermi energy is    -3.7522 ev

!    total energy              =    -329.48258673 Ry
     Harris-Foulkes estimate   =    -329.48258676 Ry
     estimated scf accuracy    <          1.5E-09 Ry

     The total energy is the sum of the following terms:

     one-electron contribution =    -595.46838582 Ry
     hartree contribution      =     319.24545200 Ry
     xc contribution           =     -51.36598637 Ry
     ewald contribution        =      -1.89038990 Ry
     smearing contrib. (-TS)   =      -0.00327664 Ry

     convergence has been achieved in   9 iterations

     Forces acting on atoms (Ry/au):

     atom    1 type  1   force =     0.01283896   -0.00768329   -0.00408912
     atom    2 type  1   force =     0.00343223    0.00030096    0.00025732
     atom    3 type  1   force =     0.00379065    0.01391716    0.02095916
     atom    4 type  1   force =     0.00006967   -0.00212930   -0.00331655
     atom    5 type  1   force =    -0.02013151   -0.00440553   -0.01381081

     Total force =     0.039126     Total SCF correction =     0.000175

     number of scf cycles    =   3
     number of bfgs steps    =   2

     energy   old            =    -329.4803647558 Ry
     energy   new            =    -329.4825867300 Ry

     CASE: energy  _new < energy  _old

     new trust radius        =       0.0529988449 bohr
     new conv_thr            =       0.0000000021 Ry


ATOMIC_POSITIONS (bohr)
Au      -1.830924850   2.074682193  -1.064756264
Au      -0.771116887   3.773183089   3.603732292
Au       3.003402299   1.071202418   0.613074960
Au       3.882189099   3.502829697   5.716322536
Au       7.594902339   1.111013604   3.260133477



     Writing output data file pwscf.save
     Check: negative starting charge=   -0.006263
     NEW-OLD atomic charge density approx. for the potential
     Check: negative starting charge=   -0.006265

     negative rho (up, down):  5.642E-04 0.000E+00

     total cpu time spent up to now is        8.1 secs

     per-process dynamical memory:    50.7 Mb

     Self-consistent Calculation

     iteration #  1     ecut=    30.00 Ry     beta=0.70
     Davidson diagonalization with overlap
     ethr =  1.00E-06,  avg # of iterations =  5.0

     negative rho (up, down):  2.461E-05 0.000E+00

     total cpu time spent up to now is        8.5 secs

     total energy              =    -329.48530539 Ry
     Harris-Foulkes estimate   =    -329.48506273 Ry
     estimated scf accuracy    <       0.00036936 Ry

     iteration #  2     ecut=    30.00 Ry     beta=0.70
     Davidson diagonalization with overlap
     ethr =  6.72E-07,  avg # of iterations =  4.0

     negative rho (up, down):  7.554E-06 0.000E+00

     total cpu time spent up to now is        8.8 secs

     total energy              =    -329.48526637 Ry
     Harris-Foulkes estimate   =    -329.48559252 Ry
     estimated scf accuracy    <       0.00079799 Ry

     iteration #  3     ecut=    30.00 Ry     beta=0.70
     Davidson diagonalization with overlap
     ethr =  6.72E-07,  avg # of iterations =  2.0

     negative rho (up, down):  1.353E-07 0.000E+00

     total cpu time spent up to now is        9.0 secs

     total energy              =    -329.48543086 Ry
     Harris-Foulkes estimate   =    -329.48547059 Ry
     estimated scf accuracy    <       0.00012668 Ry

     iteration #  4     ecut=    30.00 Ry     beta=0.70
     Davidson diagonalization with overlap
     ethr =  2.30E-07,  avg # of iterations =  2.0

     total cpu time spent up to now is        9.2 secs

     total energy              =    -329.48545548 Ry
     Harris-Foulkes estimate   =    -329.48546054 Ry
     estimated scf accuracy    <       0.00001650 Ry

     iteration #  5     ecut=    30.00 Ry     beta=0.70
     Davidson diagonalization with overlap
     ethr =  3.00E-08,  avg # of iterations =  2.0

     total cpu time spent up to now is        9.4 secs

     total energy              =    -329.48545885 Ry
     Harris-Foulkes estimate   =    -329.48546024 Ry
     estimated scf accuracy    <       0.00000355 Ry

     iteration #  6     ecut=    30.00 Ry     beta=0.70
     Davidson diagonalization with overlap
     ethr =  6.46E-09,  avg # of iterations =  2.0

     total cpu time spent up to now is        9.6 secs

     total energy              =    -329.48545953 Ry
     Harris-Foulkes estimate   =    -329.48545972 Ry
     estimated scf accuracy    <       0.00000038 Ry

     iteration #  7     ecut=    30.00 Ry     beta=0.70
     Davidson diagonalization with overlap
     ethr =  6.87E-10,  avg # of iterations =  2.0

     total cpu time spent up to now is        9.8 secs

     total energy              =    -329.48545953 Ry
     Harris-Foulkes estimate   =    -329.48545964 Ry
     estimated scf accuracy    <       0.00000009 Ry

     iteration #  8     ecut=    30.00 Ry     beta=0.70
     Davidson diagonalization with overlap
     ethr =  1.62E-10,  avg # of iterations =  2.0

     total cpu time spent up to now is       10.0 secs

     total energy              =    -329.48545957 Ry
     Harris-Foulkes estimate   =    -329.48545955 Ry
     estimated scf accuracy    <          6.2E-09 Ry

     iteration #  9     ecut=    30.00 Ry     beta=0.70
     Davidson diagonalization with overlap
     ethr =  1.13E-11,  avg # of iterations =  3.0

     total cpu time spent up to now is       10.3 secs

     total energy              =    -329.48545958 Ry
     Harris-Foulkes estimate   =    -329.48545957 Ry
     estimated scf accuracy    <          2.5E-09 Ry

     iteration # 10     ecut=    30.00 Ry     beta=0.70
     Davidson diagonalization with overlap
     ethr =  4.52E-12,  avg # of iterations =  2.0

     total cpu time spent up to now is       10.5 secs

     End of self-consistent calculation

          k = 0.0000 0.0000 0.0000 ( 22119 PWs)   bands (ev):

    -8.1803  -7.6217  -7.5704  -7.2152  -6.8738  -6.6932  -6.5971  -6.4407
    -6.3056  -6.0145  -5.8767  -5.7032  -5.6674  -5.6170  -5.4597  -5.4030
    -5.3361  -5.2223  -5.1941  -5.1723  -5.1645  -5.1243  -5.1005  -4.8800
    -4.8476  -4.7622  -4.4340  -3.7720  -2.6617  -2.1237  -0.5127  -0.1780
     0.3795   0.7732

     the Fermi energy is    -3.7437 ev

!    total energy              =    -329.48545959 Ry
     Harris-Foulkes estimate   =    -329.48545958 Ry
     estimated scf accuracy    <          2.1E-10 Ry

     The total energy is the sum of the following terms:

     one-electron contribution =    -598.79807111 Ry
     hartree contribution      =     320.88744897 Ry
     xc contribution           =     -51.37564752 Ry
     ewald contribution        =      -0.19572662 Ry
     smearing contrib. (-TS)   =      -0.00346331 Ry

     convergence has been achieved in  10 iterations

     Forces acting on atoms (Ry/au):

     atom    1 type  1   force =     0.01287317   -0.00745298   -0.00317078
     atom    2 type  1   force =     0.00110791    0.00104719   -0.00006189
     atom    3 type  1   force =     0.00170110    0.01176651    0.01610304
     atom    4 type  1   force =    -0.00107558    0.00014980    0.00023210
     atom    5 type  1   force =    -0.01460660   -0.00551052   -0.01310247

     Total force =     0.032418     Total SCF correction =     0.000053

     number of scf cycles    =   4
     number of bfgs steps    =   3

     energy   old            =    -329.4825867300 Ry
     energy   new            =    -329.4854595946 Ry

     CASE: energy  _new < energy  _old

     new trust radius        =       0.0794982674 bohr
     new conv_thr            =       0.0000000016 Ry


ATOMIC_POSITIONS (bohr)
Au      -1.788065747   2.049231098  -1.077771659
Au      -0.761622687   3.774884782   3.604471795
Au       3.013863700   1.115350779   0.678354787
Au       3.881861549   3.497619344   5.708415769
Au       7.532415186   1.095824997   3.215036308



     Writing output data file pwscf.save
     Check: negative starting charge=   -0.006265
     NEW-OLD atomic charge density approx. for the potential
     Check: negative starting charge=   -0.006265

     negative rho (up, down):  1.206E-03 0.000E+00

     total cpu time spent up to now is       10.7 secs

     per-process dynamical memory:    50.7 Mb

     Self-consistent Calculation

     iteration #  1     ecut=    30.00 Ry     beta=0.70
     Davidson diagonalization with overlap
     ethr =  1.00E-06,  avg # of iterations =  8.0

     negative rho (up, down):  8.769E-05 0.000E+00

     total cpu time spent up to now is       11.1 secs

     total energy              =    -329.48833989 Ry
     Harris-Foulkes estimate   =    -329.48746657 Ry
     estimated scf accuracy    <       0.00081290 Ry

     iteration #  2     ecut=    30.00 Ry     beta=0.70
     Davidson diagonalization with overlap
     ethr =  1.48E-06,  avg # of iterations =  5.0

     negative rho (up, down):  3.165E-05 0.000E+00

     total cpu time spent up to now is       11.4 secs

     total energy              =    -329.48829117 Ry
     Harris-Foulkes estimate   =    -329.48889245 Ry
     estimated scf accuracy    <       0.00142404 Ry

     iteration #  3     ecut=    30.00 Ry     beta=0.70
     Davidson diagonalization with overlap
     ethr =  1.48E-06,  avg # of iterations =  3.0

     negative rho (up, down):  1.466E-06 0.000E+00

     total cpu time spent up to now is       11.6 secs

     total energy              =    -329.48859771 Ry
     Harris-Foulkes estimate   =    -329.48869625 Ry
     estimated scf accuracy    <       0.00031107 Ry

     iteration #  4     ecut=    30.00 Ry     beta=0.70
     Davidson diagonalization with overlap
     ethr =  5.66E-07,  avg # of iterations =  2.0

     total cpu time spent up to now is       11.8 secs

     total energy              =    -329.48865808 Ry
     Harris-Foulkes estimate   =    -329.48866786 Ry
     estimated scf accuracy    <       0.00003387 Ry

     iteration #  5     ecut=    30.00 Ry     beta=0.70
     Davidson diagonalization with overlap
     ethr =  6.16E-08,  avg # of iterations =  2.0

     total cpu time spent up to now is       12.0 secs

     total energy              =    -329.48866465 Ry
     Harris-Foulkes estimate   =    -329.48866821 Ry
     estimated scf accuracy    <       0.00000792 Ry

     iteration #  6     ecut=    30.00 Ry     beta=0.70
     Davidson diagonalization with overlap
     ethr =  1.44E-08,  avg # of iterations =  2.0

     total cpu time spent up to now is       12.2 secs

     total energy              =    -329.48866619 Ry
     Harris-Foulkes estimate   =    -329.48866651 Ry
     estimated scf accuracy    <       0.00000077 Ry

     iteration #  7     ecut=    30.00 Ry     beta=0.70
     Davidson diagonalization with overlap
     ethr =  1.41E-09,  avg # of iterations =  2.0

     total cpu time spent up to now is       12.4 secs

     total energy              =    -329.48866639 Ry
     Harris-Foulkes estimate   =    -329.48866643 Ry
     estimated scf accuracy    <       0.00000020 Ry

     iteration #  8     ecut=    30.00 Ry     beta=0.70
     Davidson diagonalization with overlap
     ethr =  3.56E-10,  avg # of iterations =  2.0

     total cpu time spent up to now is       12.6 secs

     total energy              =    -329.48866635 Ry
     Harris-Foulkes estimate   =    -329.48866644 Ry
     estimated scf accuracy    <       0.00000002 Ry

     iteration #  9     ecut=    30.00 Ry     beta=0.70
     Davidson diagonalization with overlap
     ethr =  2.99E-11,  avg # of iterations =  3.0

     total cpu time spent up to now is       12.9 secs

     total energy              =    -329.48866634 Ry
     Harris-Foulkes estimate   =    -329.48866636 Ry
     estimated scf accuracy    <          5.9E-09 Ry

     iteration # 10     ecut=    30.00 Ry     beta=0.70
     Davidson diagonalization with overlap
     ethr =  1.08E-11,  avg # of iterations =  3.0

     total cpu time spent up to now is       13.1 secs

     End of self-consistent calculation

          k = 0.0000 0.0000 0.0000 ( 22119 PWs)   bands (ev):

    -8.2920  -7.7057  -7.6280  -7.2781  -6.9143  -6.7112  -6.6678  -6.4733
    -6.3469  -6.0253  -5.9297  -5.7225  -5.6885  -5.6438  -5.4607  -5.3975
    -5.3336  -5.2235  -5.1994  -5.1760  -5.1670  -5.1240  -5.0793  -4.8719
    -4.8462  -4.7454  -4.4331  -3.7625  -2.5979  -2.1176  -0.5272  -0.1757
     0.3992   0.7869

     the Fermi energy is    -3.7332 ev

!    total energy              =    -329.48866631 Ry
     Harris-Foulkes estimate   =    -329.48866635 Ry
     estimated scf accuracy    <          6.0E-10 Ry

     The total energy is the sum of the following terms:

     one-electron contribution =    -603.67288492 Ry
     hartree contribution      =     323.29188428 Ry
     xc contribution           =     -51.39102439 Ry
     ewald contribution        =       2.28704652 Ry
     smearing contrib. (-TS)   =      -0.00368779 Ry

     convergence has been achieved in  10 iterations

     Forces acting on atoms (Ry/au):

     atom    1 type  1   force =     0.01241362   -0.00703804   -0.00204873
     atom    2 type  1   force =    -0.00277590    0.00225737   -0.00023840
     atom    3 type  1   force =    -0.00261899    0.00807986    0.00814133
     atom    4 type  1   force =    -0.00268612    0.00334896    0.00554088
     atom    5 type  1   force =    -0.00433261   -0.00664815   -0.01139508

     Total force =     0.024517     Total SCF correction =     0.000099

     number of scf cycles    =   5
     number of bfgs steps    =   4

     energy   old            =    -329.4854595946 Ry
     energy   new            =    -329.4886663057 Ry

     CASE: energy  _new < energy  _old

     new trust radius        =       0.1192474010 bohr
     new conv_thr            =       0.0000000012 Ry


ATOMIC_POSITIONS (bohr)
Au      -1.713376506   2.005224993  -1.098130250
Au      -0.753943470   3.780732609   3.605354350
Au       3.022255426   1.184697426   0.775001381
Au       3.877529383   3.495940902   5.706933964
Au       7.445987166   1.066315070   3.139347555



     Writing output data file pwscf.save
     Check: negative starting charge=   -0.006265
     NEW-OLD atomic charge density approx. for the potential
     Check: negative starting charge=   -0.006300

     negative rho (up, down):  2.420E-03 0.000E+00

     total cpu time spent up to now is       13.4 secs

     per-process dynamical memory:    50.7 Mb

     Self-consistent Calculation

     iteration #  1     ecut=    30.00 Ry     beta=0.70
     Davidson diagonalization with overlap
     ethr =  1.00E-06,  avg # of iterations = 13.0

     negative rho (up, down):  2.469E-04 0.000E+00

     total cpu time spent up to now is       13.9 secs

     total energy              =    -329.49002828 Ry
     Harris-Foulkes estimate   =    -329.48920632 Ry
     estimated scf accuracy    <       0.00178554 Ry

     iteration #  2     ecut=    30.00 Ry     beta=0.70
     Davidson diagonalization with overlap
     ethr =  3.25E-06,  avg # of iterations = 12.0

     negative rho (up, down):  9.009E-05 0.000E+00

     total cpu time spent up to now is       14.3 secs

     total energy              =    -329.49011834 Ry
     Harris-Foulkes estimate   =    -329.49100954 Ry
     estimated scf accuracy    <       0.00201529 Ry

     iteration #  3     ecut=    30.00 Ry     beta=0.70
     Davidson diagonalization with overlap
     ethr =  3.25E-06,  avg # of iterations =  3.0

     negative rho (up, down):  9.215E-06 0.000E+00

     total cpu time spent up to now is       14.5 secs

     total energy              =    -329.49056463 Ry
     Harris-Foulkes estimate   =    -329.49081514 Ry
     estimated scf accuracy    <       0.00075857 Ry

     iteration #  4     ecut=    30.00 Ry     beta=0.70
     Davidson diagonalization with overlap
     ethr =  1.38E-06,  avg # of iterations =  2.0

     total cpu time spent up to now is       14.7 secs

     total energy              =    -329.49071693 Ry
     Harris-Foulkes estimate   =    -329.49073595 Ry
     estimated scf accuracy    <       0.00007412 Ry

     iteration #  5     ecut=    30.00 Ry     beta=0.70
     Davidson diagonalization with overlap
     ethr =  1.35E-07,  avg # of iterations =  2.0

     total cpu time spent up to now is       14.9 secs

     total energy              =    -329.49073050 Ry
     Harris-Foulkes estimate   =    -329.49073774 Ry
     estimated scf accuracy    <       0.00001644 Ry

     iteration #  6     ecut=    30.00 Ry     beta=0.70
     Davidson diagonalization with overlap
     ethr =  2.99E-08,  avg # of iterations =  2.0

     total cpu time spent up to now is       15.1 secs

     total energy              =    -329.49073338 Ry
     Harris-Foulkes estimate   =    -329.49073429 Ry
     estimated scf accuracy    <       0.00000161 Ry

     iteration #  7     ecut=    30.00 Ry     beta=0.70
     Davidson diagonalization with overlap
     ethr =  2.92E-09,  avg # of iterations =  2.0

     total cpu time spent up to now is       15.3 secs

     total energy              =    -329.49073365 Ry
     Harris-Foulkes estimate   =    -329.49073389 Ry
     estimated scf accuracy    <       0.00000041 Ry

     iteration #  8     ecut=    30.00 Ry     beta=0.70
     Davidson diagonalization with overlap
     ethr =  7.50E-10,  avg # of iterations =  2.0

     total cpu time spent up to now is       15.5 secs

     total energy              =    -329.49073364 Ry
     Harris-Foulkes estimate   =    -329.49073375 Ry
     estimated scf accuracy    <       0.00000004 Ry

     iteration #  9     ecut=    30.00 Ry     beta=0.70
     Davidson diagonalization with overlap
     ethr =  6.71E-11,  avg # of iterations =  2.0

     total cpu time spent up to now is       15.7 secs

     total energy              =    -329.49073366 Ry
     Harris-Foulkes estimate   =    -329.49073365 Ry
     estimated scf accuracy    <          8.6E-09 Ry

     iteration # 10     ecut=    30.00 Ry     beta=0.70
     Davidson diagonalization with overlap
     ethr =  1.57E-11,  avg # of iterations =  2.0

     total cpu time spent up to now is       16.0 secs

     total energy              =    -329.49073362 Ry
     Harris-Foulkes estimate   =    -329.49073366 Ry
     estimated scf accuracy    <          1.7E-09 Ry

     iteration # 11     ecut=    30.00 Ry     beta=0.70
     Davidson diagonalization with overlap
     ethr =  3.11E-12,  avg # of iterations =  2.0

     total cpu time spent up to now is       16.2 secs

     End of self-consistent calculation

          k = 0.0000 0.0000 0.0000 ( 22119 PWs)   bands (ev):

    -8.4837  -7.8296  -7.7154  -7.3492  -6.9590  -6.8059  -6.7120  -6.5190
    -6.3894  -6.0433  -6.0044  -5.7565  -5.7143  -5.6828  -5.4626  -5.3853
    -5.3278  -5.2269  -5.2117  -5.1878  -5.1593  -5.1168  -5.0334  -4.8742
    -4.8358  -4.7199  -4.4346  -3.7535  -2.4970  -2.1174  -0.5473  -0.1740
     0.4360   0.8095

     the Fermi energy is    -3.7230 ev

!    total energy              =    -329.49073361 Ry
     Harris-Foulkes estimate   =    -329.49073362 Ry
     estimated scf accuracy    <          1.5E-10 Ry

     The total energy is the sum of the following terms:

     one-electron contribution =    -610.50738832 Ry
     hartree contribution      =     326.66447523 Ry
     xc contribution           =     -51.41530624 Ry
     ewald contribution        =       5.77140741 Ry
     smearing contrib. (-TS)   =      -0.00392169 Ry

     convergence has been achieved in  11 iterations

     Forces acting on atoms (Ry/au):

     atom    1 type  1   force =     0.00832514   -0.00454118   -0.00072673
     atom    2 type  1   force =    -0.00778282    0.00377556   -0.00040475
     atom    3 type  1   force =    -0.01296601    0.00208701   -0.00491085
     atom    4 type  1   force =    -0.00265181    0.00655606    0.01207411
     atom    5 type  1   force =     0.01507551   -0.00787744   -0.00603179

     Total force =     0.029724     Total SCF correction =     0.000062

     number of scf cycles    =   6
     number of bfgs steps    =   5

     energy   old            =    -329.4886663057 Ry
     energy   new            =    -329.4907336061 Ry

     CASE: energy  _new < energy  _old

     new trust radius        =       0.0142440093 bohr
     new conv_thr            =       0.0000000015 Ry


ATOMIC_POSITIONS (bohr)
Au      -1.703339490   1.999531803  -1.099900274
Au      -0.759888252   3.784107112   3.605191506
Au       3.011261493   1.189631881   0.775464592
Au       3.875583676   3.500942905   5.716563569
Au       7.454834573   1.058697299   3.131187607



     Writing output data file pwscf.save
     Check: negative starting charge=   -0.006300
     NEW-OLD atomic charge density approx. for the potential
     Check: negative starting charge=   -0.006296

     negative rho (up, down):  3.636E-05 0.000E+00

     total cpu time spent up to now is       16.4 secs

     per-process dynamical memory:    50.7 Mb

     Self-consistent Calculation

     iteration #  1     ecut=    30.00 Ry     beta=0.70
     Davidson diagonalization with overlap
     ethr =  1.00E-06,  avg # of iterations =  4.0

     Threshold (ethr) on eigenvalues was too large:
     Diagonalizing with lowered threshold

     Davidson diagonalization with overlap
     ethr =  8.77E-08,  avg # of iterations =  1.0

     negative rho (up, down):  1.159E-07 0.000E+00

     total cpu time spent up to now is       17.1 secs

     total energy              =    -329.49134916 Ry
     Harris-Foulkes estimate   =    -329.49135743 Ry
     estimated scf accuracy    <       0.00004855 Ry

     iteration #  2     ecut=    30.00 Ry     beta=0.70
     Davidson diagonalization with overlap
     ethr =  8.83E-08,  avg # of iterations =  3.0

     negative rho (up, down):  1.863E-08 0.000E+00

     total cpu time spent up to now is       17.4 secs

     total energy              =    -329.49133849 Ry
     Harris-Foulkes estimate   =    -329.49140162 Ry
     estimated scf accuracy    <       0.00017131 Ry

     iteration #  3     ecut=    30.00 Ry     beta=0.70
     Davidson diagonalization with overlap
     ethr =  8.83E-08,  avg # of iterations =  2.0

     total cpu time spent up to now is       17.6 secs

     total energy              =    -329.49137051 Ry
     Harris-Foulkes estimate   =    -329.49137265 Ry
     estimated scf accuracy    <       0.00000807 Ry

     iteration #  4     ecut=    30.00 Ry     beta=0.70
     Davidson diagonalization with overlap
     ethr =  1.47E-08,  avg # of iterations =  2.0

     total cpu time spent up to now is       17.8 secs

     total energy              =    -329.49137198 Ry
     Harris-Foulkes estimate   =    -329.49137236 Ry
     estimated scf accuracy    <       0.00000080 Ry

     iteration #  5     ecut=    30.00 Ry     beta=0.70
     Davidson diagonalization with overlap
     ethr =  1.46E-09,  avg # of iterations =  3.0

     total cpu time spent up to now is       18.0 secs

     total energy              =    -329.49137198 Ry
     Harris-Foulkes estimate   =    -329.49137225 Ry
     estimated scf accuracy    <       0.00000025 Ry

     iteration #  6     ecut=    30.00 Ry     beta=0.70
     Davidson diagonalization with overlap
     ethr =  4.46E-10,  avg # of iterations =  2.0

     total cpu time spent up to now is       18.2 secs

     total energy              =    -329.49137204 Ry
     Harris-Foulkes estimate   =    -329.49137204 Ry
     estimated scf accuracy    <       0.00000002 Ry

     iteration #  7     ecut=    30.00 Ry     beta=0.70
     Davidson diagonalization with overlap
     ethr =  3.71E-11,  avg # of iterations =  2.0

     total cpu time spent up to now is       18.4 secs

     total energy              =    -329.49137208 Ry
     Harris-Foulkes estimate   =    -329.49137204 Ry
     estimated scf accuracy    <          7.4E-09 Ry

     iteration #  8     ecut=    30.00 Ry     beta=0.70
     Davidson diagonalization with overlap
     ethr =  1.34E-11,  avg # of iterations =  2.0

     total cpu time spent up to now is       18.6 secs

     End of self-consistent calculation

          k = 0.0000 0.0000 0.0000 ( 22119 PWs)   bands (ev):

    -8.4783  -7.8172  -7.7047  -7.3324  -6.9496  -6.7992  -6.6974  -6.5117
    -6.3793  -6.0401  -6.0014  -5.7585  -5.7177  -5.6821  -5.4596  -5.3839
    -5.3265  -5.2265  -5.2083  -5.1896  -5.1604  -5.1198  -5.0300  -4.8797
    -4.8404  -4.7182  -4.4395  -3.7572  -2.4919  -2.1283  -0.5453  -0.1752
     0.4389   0.8102

     the Fermi energy is    -3.7266 ev

!    total energy              =    -329.49137205 Ry
     Harris-Foulkes estimate   =    -329.49137208 Ry
     estimated scf accuracy    <          5.8E-10 Ry

     The total energy is the sum of the following terms:

     one-electron contribution =    -609.91202063 Ry
     hartree contribution      =     326.37123675 Ry
     xc contribution           =     -51.41247667 Ry
     ewald contribution        =       5.46582168 Ry
     smearing contrib. (-TS)   =      -0.00393318 Ry

     convergence has been achieved in   8 iterations

     Forces acting on atoms (Ry/au):

     atom    1 type  1   force =     0.00632193   -0.00384950   -0.00132582
     atom    2 type  1   force =    -0.00695339    0.00373015   -0.00009225
     atom    3 type  1   force =    -0.00906285    0.00159489   -0.00301417
     atom    4 type  1   force =    -0.00125169    0.00495809    0.00983362
     atom    5 type  1   force =     0.01094600   -0.00643363   -0.00540138

     Total force =     0.022931     Total SCF correction =     0.000082

     number of scf cycles    =   7
     number of bfgs steps    =   6

     energy   old            =    -329.4907336061 Ry
     energy   new            =    -329.4913720457 Ry

     CASE: energy  _new < energy  _old

     new trust radius        =       0.0156684102 bohr
     new conv_thr            =       0.0000000006 Ry


ATOMIC_POSITIONS (bohr)
Au      -1.690280251   1.991617470  -1.103410073
Au      -0.766087381   3.788433949   3.605319636
Au       3.002164413   1.197757485   0.781548071
Au       3.874416921   3.505436406   5.726089102
Au       7.458238298   1.049665690   3.118960264



     Writing output data file pwscf.save
     Check: negative starting charge=   -0.006296
     NEW-OLD atomic charge density approx. for the potential
     Check: negative starting charge=   -0.006299

     negative rho (up, down):  5.710E-05 0.000E+00

     total cpu time spent up to now is       18.8 secs

     per-process dynamical memory:    50.7 Mb

     Self-consistent Calculation

     iteration #  1     ecut=    30.00 Ry     beta=0.70
     Davidson diagonalization with overlap
     ethr =  1.00E-06,  avg # of iterations =  4.0

     Threshold (ethr) on eigenvalues was too large:
     Diagonalizing with lowered threshold

     Davidson diagonalization with overlap
     ethr =  9.30E-08,  avg # of iterations =  1.0

     negative rho (up, down):  3.097E-07 0.000E+00

     total cpu time spent up to now is       19.3 secs

     total energy              =    -329.49182910 Ry
     Harris-Foulkes estimate   =    -329.49183014 Ry
     estimated scf accuracy    <       0.00005121 Ry

     iteration #  2     ecut=    30.00 Ry     beta=0.70
     Davidson diagonalization with overlap
     ethr =  9.31E-08,  avg # of iterations =  3.0

     negative rho (up, down):  3.721E-08 0.000E+00

     total cpu time spent up to now is       19.6 secs

     total energy              =    -329.49182429 Ry
     Harris-Foulkes estimate   =    -329.49186608 Ry
     estimated scf accuracy    <       0.00009744 Ry

     iteration #  3     ecut=    30.00 Ry     beta=0.70
     Davidson diagonalization with overlap
     ethr =  9.31E-08,  avg # of iterations =  2.0

     total cpu time spent up to now is       19.8 secs

     total energy              =    -329.49184561 Ry
     Harris-Foulkes estimate   =    -329.49185128 Ry
     estimated scf accuracy    <       0.00001907 Ry

     iteration #  4     ecut=    30.00 Ry     beta=0.70
     Davidson diagonalization with overlap
     ethr =  3.47E-08,  avg # of iterations =  2.0

     total cpu time spent up to now is       20.0 secs

     total energy              =    -329.49184836 Ry
     Harris-Foulkes estimate   =    -329.49184934 Ry
     estimated scf accuracy    <       0.00000087 Ry

     iteration #  5     ecut=    30.00 Ry     beta=0.70
     Davidson diagonalization with overlap
     ethr =  1.59E-09,  avg # of iterations =  3.0

     total cpu time spent up to now is       20.2 secs

     total energy              =    -329.49184844 Ry
     Harris-Foulkes estimate   =    -329.49184865 Ry
     estimated scf accuracy    <       0.00000015 Ry

     iteration #  6     ecut=    30.00 Ry     beta=0.70
     Davidson diagonalization with overlap
     ethr =  2.72E-10,  avg # of iterations =  2.0

     total cpu time spent up to now is       20.5 secs

     total energy              =    -329.49184848 Ry
     Harris-Foulkes estimate   =    -329.49184848 Ry
     estimated scf accuracy    <       0.00000002 Ry

     iteration #  7     ecut=    30.00 Ry     beta=0.70
     Davidson diagonalization with overlap
     ethr =  3.38E-11,  avg # of iterations =  2.0

     total cpu time spent up to now is       20.7 secs

     total energy              =    -329.49184847 Ry
     Harris-Foulkes estimate   =    -329.49184849 Ry
     estimated scf accuracy    <          5.1E-09 Ry

     iteration #  8     ecut=    30.00 Ry     beta=0.70
     Davidson diagonalization with overlap
     ethr =  9.33E-12,  avg # of iterations =  2.0

     total cpu time spent up to now is       20.9 secs

     total energy              =    -329.49184850 Ry
     Harris-Foulkes estimate   =    -329.49184847 Ry
     estimated scf accuracy    <          1.8E-09 Ry

     iteration #  9     ecut=    30.00 Ry     beta=0.70
     Davidson diagonalization with overlap
     ethr =  3.20E-12,  avg # of iterations =  2.0

     total cpu time spent up to now is       21.1 secs

     End of self-consistent calculation

          k = 0.0000 0.0000 0.0000 ( 22119 PWs)   bands (ev):

    -8.4844  -7.8116  -7.6983  -7.3180  -6.9412  -6.8019  -6.6832  -6.5069
    -6.3697  -6.0425  -5.9980  -5.7618  -5.7215  -5.6829  -5.4569  -5.3813
    -5.3249  -5.2279  -5.2046  -5.1916  -5.1612  -5.1214  -5.0239  -4.8857
    -4.8437  -4.7158  -4.4447  -3.7604  -2.4818  -2.1397  -0.5442  -0.1763
     0.4435   0.8119

     the Fermi energy is    -3.7296 ev

!    total energy              =    -329.49184856 Ry
     Harris-Foulkes estimate   =    -329.49184850 Ry
     estimated scf accuracy    <          3.0E-10 Ry

     The total energy is the sum of the following terms:

     one-electron contribution =    -609.63221798 Ry
     hartree contribution      =     326.23345850 Ry
     xc contribution           =     -51.41096699 Ry
     ewald contribution        =       5.32184357 Ry
     smearing contrib. (-TS)   =      -0.00396566 Ry

     convergence has been achieved in   9 iterations

     Forces acting on atoms (Ry/au):

     atom    1 type  1   force =     0.00441752   -0.00313011   -0.00170860
     atom    2 type  1   force =    -0.00625174    0.00367383    0.00013039
     atom    3 type  1   force =    -0.00642251    0.00104224   -0.00220808
     atom    4 type  1   force =    -0.00028662    0.00373539    0.00809793
     atom    5 type  1   force =     0.00854335   -0.00532135   -0.00431164

     Total force =     0.018208     Total SCF correction =     0.000062

     number of scf cycles    =   8
     number of bfgs steps    =   7

     energy   old            =    -329.4913720457 Ry
     energy   new            =    -329.4918485558 Ry

     CASE: energy  _new < energy  _old

     new trust radius        =       0.0235026153 bohr
     new conv_thr            =       0.0000000005 Ry


ATOMIC_POSITIONS (bohr)
Au      -1.671971804   1.979726425  -1.109794044
Au      -0.776841888   3.796243539   3.605872186
Au       2.989724336   1.209293961   0.790558292
Au       3.873927225   3.511904053   5.741066090
Au       7.463614131   1.035743021   3.100804475



     Writing output data file pwscf.save
     Check: negative starting charge=   -0.006299
     NEW-OLD atomic charge density approx. for the potential
     Check: negative starting charge=   -0.006307

     negative rho (up, down):  1.664E-04 0.000E+00

     total cpu time spent up to now is       21.4 secs

     per-process dynamical memory:    50.7 Mb

     Self-consistent Calculation

     iteration #  1     ecut=    30.00 Ry     beta=0.70
     Davidson diagonalization with overlap
     ethr =  1.00E-06,  avg # of iterations =  4.0

     negative rho (up, down):  2.638E-06 0.000E+00

     total cpu time spent up to now is       21.8 secs

     total energy              =    -329.49233338 Ry
     Harris-Foulkes estimate   =    -329.49232316 Ry
     estimated scf accuracy    <       0.00011150 Ry

     iteration #  2     ecut=    30.00 Ry     beta=0.70
     Davidson diagonalization with overlap
     ethr =  2.03E-07,  avg # of iterations =  3.0

     negative rho (up, down):  4.254E-07 0.000E+00

     total cpu time spent up to now is       22.0 secs

     total energy              =    -329.49232874 Ry
     Harris-Foulkes estimate   =    -329.49240995 Ry
     estimated scf accuracy    <       0.00018636 Ry

     iteration #  3     ecut=    30.00 Ry     beta=0.70
     Davidson diagonalization with overlap
     ethr =  2.03E-07,  avg # of iterations =  2.0

     total cpu time spent up to now is       22.2 secs

     total energy              =    -329.49236940 Ry
     Harris-Foulkes estimate   =    -329.49238343 Ry
     estimated scf accuracy    <       0.00004424 Ry

     iteration #  4     ecut=    30.00 Ry     beta=0.70
     Davidson diagonalization with overlap
     ethr =  8.04E-08,  avg # of iterations =  2.0

     total cpu time spent up to now is       22.4 secs

     total energy              =    -329.49237737 Ry
     Harris-Foulkes estimate   =    -329.49237819 Ry
     estimated scf accuracy    <       0.00000213 Ry

     iteration #  5     ecut=    30.00 Ry     beta=0.70
     Davidson diagonalization with overlap
     ethr =  3.88E-09,  avg # of iterations =  3.0

     total cpu time spent up to now is       22.6 secs

     total energy              =    -329.49237759 Ry
     Harris-Foulkes estimate   =    -329.49237804 Ry
     estimated scf accuracy    <       0.00000038 Ry

     iteration #  6     ecut=    30.00 Ry     beta=0.70
     Davidson diagonalization with overlap
     ethr =  6.94E-10,  avg # of iterations =  2.0

     total cpu time spent up to now is       22.9 secs

     total energy              =    -329.49237763 Ry
     Harris-Foulkes estimate   =    -329.49237768 Ry
     estimated scf accuracy    <       0.00000005 Ry

     iteration #  7     ecut=    30.00 Ry     beta=0.70
     Davidson diagonalization with overlap
     ethr =  8.37E-11,  avg # of iterations =  2.0

     total cpu time spent up to now is       23.1 secs

     total energy              =    -329.49237759 Ry
     Harris-Foulkes estimate   =    -329.49237764 Ry
     estimated scf accuracy    <       0.00000002 Ry

     iteration #  8     ecut=    30.00 Ry     beta=0.70
     Davidson diagonalization with overlap
     ethr =  3.36E-11,  avg # of iterations =  2.0

     total cpu time spent up to now is       23.3 secs

     total energy              =    -329.49237752 Ry
     Harris-Foulkes estimate   =    -329.49237759 Ry
     estimated scf accuracy    <          3.6E-09 Ry

     iteration #  9     ecut=    30.00 Ry     beta=0.70
     Davidson diagonalization with overlap
     ethr =  6.49E-12,  avg # of iterations =  2.0

     total cpu time spent up to now is       23.5 secs

     End of self-consistent calculation

          k = 0.0000 0.0000 0.0000 ( 22119 PWs)   bands (ev):

    -8.4924  -7.8012  -7.6860  -7.2935  -6.9257  -6.8062  -6.6607  -6.4979
    -6.3528  -6.0496  -5.9880  -5.7658  -5.7262  -5.6830  -5.4526  -5.3771
    -5.3226  -5.2314  -5.1985  -5.1941  -5.1628  -5.1231  -5.0150  -4.8955
    -4.8490  -4.7131  -4.4533  -3.7654  -2.4677  -2.1585  -0.5422  -0.1778
     0.4497   0.8140

     the Fermi energy is    -3.7343 ev

!    total energy              =    -329.49237753 Ry
     Harris-Foulkes estimate   =    -329.49237752 Ry
     estimated scf accuracy    <          4.4E-10 Ry

     The total energy is the sum of the following terms:

     one-electron contribution =    -609.02513172 Ry
     hartree contribution      =     325.93433939 Ry
     xc contribution           =     -51.40814965 Ry
     ewald contribution        =       5.01059216 Ry
     smearing contrib. (-TS)   =      -0.00402771 Ry

     convergence has been achieved in   9 iterations

     Forces acting on atoms (Ry/au):

     atom    1 type  1   force =     0.00205165   -0.00240898   -0.00210776
     atom    2 type  1   force =    -0.00489157    0.00341689    0.00033997
     atom    3 type  1   force =    -0.00291781    0.00058540   -0.00096223
     atom    4 type  1   force =     0.00056666    0.00210220    0.00543900
     atom    5 type  1   force =     0.00519108   -0.00369551   -0.00270899

     Total force =     0.011926     Total SCF correction =     0.000081

     number of scf cycles    =   9
     number of bfgs steps    =   8

     energy   old            =    -329.4918485558 Ry
     energy   new            =    -329.4923775309 Ry

     CASE: energy  _new < energy  _old

     new trust radius        =       0.0352539230 bohr
     new conv_thr            =       0.0000000005 Ry


ATOMIC_POSITIONS (bohr)
Au      -1.645733560   1.960904134  -1.121417148
Au      -0.794132557   3.809831880   3.607188873
Au       2.974020092   1.227013166   0.805978565
Au       3.874577840   3.520736908   5.763358317
Au       7.469720185   1.014424911   3.073398393



     Writing output data file pwscf.save
     Check: negative starting charge=   -0.006307
     NEW-OLD atomic charge density approx. for the potential
     Check: negative starting charge=   -0.006326

     negative rho (up, down):  4.094E-04 0.000E+00

     total cpu time spent up to now is       23.7 secs

     per-process dynamical memory:    50.7 Mb

     Self-consistent Calculation

     iteration #  1     ecut=    30.00 Ry     beta=0.70
     Davidson diagonalization with overlap
     ethr =  1.00E-06,  avg # of iterations =  5.0

     negative rho (up, down):  1.439E-05 0.000E+00

     total cpu time spent up to now is       24.1 secs

     total energy              =    -329.49268630 Ry
     Harris-Foulkes estimate   =    -329.49256762 Ry
     estimated scf accuracy    <       0.00024444 Ry

     iteration #  2     ecut=    30.00 Ry     beta=0.70
     Davidson diagonalization with overlap
     ethr =  4.44E-07,  avg # of iterations =  3.0

     negative rho (up, down):  2.789E-06 0.000E+00

     total cpu time spent up to now is       24.3 secs

     total energy              =    -329.49269168 Ry
     Harris-Foulkes estimate   =    -329.49283483 Ry
     estimated scf accuracy    <       0.00031424 Ry

     iteration #  3     ecut=    30.00 Ry     beta=0.70
     Davidson diagonalization with overlap
     ethr =  4.44E-07,  avg # of iterations =  2.0

     negative rho (up, down):  8.202E-08 0.000E+00

     total cpu time spent up to now is       24.5 secs

     total energy              =    -329.49275993 Ry
     Harris-Foulkes estimate   =    -329.49279463 Ry
     estimated scf accuracy    <       0.00010480 Ry

     iteration #  4     ecut=    30.00 Ry     beta=0.70
     Davidson diagonalization with overlap
     ethr =  1.91E-07,  avg # of iterations =  2.0

     total cpu time spent up to now is       24.7 secs

     total energy              =    -329.49278070 Ry
     Harris-Foulkes estimate   =    -329.49278142 Ry
     estimated scf accuracy    <       0.00000578 Ry

     iteration #  5     ecut=    30.00 Ry     beta=0.70
     Davidson diagonalization with overlap
     ethr =  1.05E-08,  avg # of iterations =  2.0

     total cpu time spent up to now is       24.9 secs

     total energy              =    -329.49278172 Ry
     Harris-Foulkes estimate   =    -329.49278234 Ry
     estimated scf accuracy    <       0.00000089 Ry

     iteration #  6     ecut=    30.00 Ry     beta=0.70
     Davidson diagonalization with overlap
     ethr =  1.62E-09,  avg # of iterations =  2.0

     total cpu time spent up to now is       25.2 secs

     total energy              =    -329.49278185 Ry
     Harris-Foulkes estimate   =    -329.49278191 Ry
     estimated scf accuracy    <       0.00000008 Ry

     iteration #  7     ecut=    30.00 Ry     beta=0.70
     Davidson diagonalization with overlap
     ethr =  1.45E-10,  avg # of iterations =  3.0

     total cpu time spent up to now is       25.4 secs

     total energy              =    -329.49278195 Ry
     Harris-Foulkes estimate   =    -329.49278188 Ry
     estimated scf accuracy    <       0.00000004 Ry

     iteration #  8     ecut=    30.00 Ry     beta=0.70
     Davidson diagonalization with overlap
     ethr =  8.15E-11,  avg # of iterations =  2.0

     total cpu time spent up to now is       25.6 secs

     total energy              =    -329.49278195 Ry
     Harris-Foulkes estimate   =    -329.49278196 Ry
     estimated scf accuracy    <          8.2E-09 Ry

     iteration #  9     ecut=    30.00 Ry     beta=0.70
     Davidson diagonalization with overlap
     ethr =  1.49E-11,  avg # of iterations =  2.0

     total cpu time spent up to now is       25.8 secs

     total energy              =    -329.49278195 Ry
     Harris-Foulkes estimate   =    -329.49278195 Ry
     estimated scf accuracy    <          6.6E-10 Ry

     iteration # 10     ecut=    30.00 Ry     beta=0.70
     Davidson diagonalization with overlap
     ethr =  1.20E-12,  avg # of iterations =  2.0

     total cpu time spent up to now is       26.1 secs

     End of self-consistent calculation

          k = 0.0000 0.0000 0.0000 ( 22119 PWs)   bands (ev):

    -8.5063  -7.7864  -7.6670  -7.2552  -6.8997  -6.8156  -6.6259  -6.4846
    -6.3261  -6.0644  -5.9693  -5.7704  -5.7316  -5.6826  -5.4467  -5.3700
    -5.3193  -5.2377  -5.1989  -5.1878  -5.1652  -5.1239  -5.0012  -4.9107
    -4.8555  -4.7103  -4.4668  -3.7729  -2.4468  -2.1875  -0.5389  -0.1800
     0.4586   0.8171

     the Fermi energy is    -3.7413 ev

!    total energy              =    -329.49278195 Ry
     Harris-Foulkes estimate   =    -329.49278195 Ry
     estimated scf accuracy    <          1.6E-10 Ry

     The total energy is the sum of the following terms:

     one-electron contribution =    -608.04234435 Ry
     hartree contribution      =     325.44989224 Ry
     xc contribution           =     -51.40399430 Ry
     ewald contribution        =       4.50779496 Ry
     smearing contrib. (-TS)   =      -0.00413050 Ry

     convergence has been achieved in  10 iterations

     Forces acting on atoms (Ry/au):

     atom    1 type  1   force =    -0.00105733   -0.00144935   -0.00228676
     atom    2 type  1   force =    -0.00258151    0.00246246    0.00035972
     atom    3 type  1   force =     0.00114359    0.00040289    0.00051418
     atom    4 type  1   force =     0.00103904   -0.00004251    0.00159033
     atom    5 type  1   force =     0.00145622   -0.00137349   -0.00017748

     Total force =     0.005540     Total SCF correction =     0.000059

     number of scf cycles    =  10
     number of bfgs steps    =   9

     energy   old            =    -329.4923775309 Ry
     energy   new            =    -329.4927819508 Ry

     CASE: energy  _new < energy  _old

     new trust radius        =       0.0150959185 bohr
     new conv_thr            =       0.0000000003 Ry


ATOMIC_POSITIONS (bohr)
Au      -1.636501597   1.951662909  -1.128690450
Au      -0.803369313   3.817771860   3.608080877
Au       2.969553112   1.234990800   0.813444478
Au       3.875912015   3.523859446   5.773320116
Au       7.472857782   1.004625984   3.062351978



     Writing output data file pwscf.save
     Check: negative starting charge=   -0.006326
     NEW-OLD atomic charge density approx. for the potential
     Check: negative starting charge=   -0.006333

     negative rho (up, down):  5.815E-05 0.000E+00

     total cpu time spent up to now is       26.3 secs

     per-process dynamical memory:    50.7 Mb

     Self-consistent Calculation

     iteration #  1     ecut=    30.00 Ry     beta=0.70
     Davidson diagonalization with overlap
     ethr =  1.00E-06,  avg # of iterations =  4.0

     Threshold (ethr) on eigenvalues was too large:
     Diagonalizing with lowered threshold

     Davidson diagonalization with overlap
     ethr =  8.65E-08,  avg # of iterations =  1.0

     negative rho (up, down):  3.075E-07 0.000E+00

     total cpu time spent up to now is       26.8 secs

     total energy              =    -329.49282955 Ry
     Harris-Foulkes estimate   =    -329.49282852 Ry
     estimated scf accuracy    <       0.00004751 Ry

     iteration #  2     ecut=    30.00 Ry     beta=0.70
     Davidson diagonalization with overlap
     ethr =  8.64E-08,  avg # of iterations =  3.0

     negative rho (up, down):  1.757E-08 0.000E+00

     total cpu time spent up to now is       27.0 secs

     total energy              =    -329.49283409 Ry
     Harris-Foulkes estimate   =    -329.49285343 Ry
     estimated scf accuracy    <       0.00004088 Ry

     iteration #  3     ecut=    30.00 Ry     beta=0.70
     Davidson diagonalization with overlap
     ethr =  7.43E-08,  avg # of iterations =  2.0

     total cpu time spent up to now is       27.2 secs

     total energy              =    -329.49284215 Ry
     Harris-Foulkes estimate   =    -329.49284867 Ry
     estimated scf accuracy    <       0.00001748 Ry

     iteration #  4     ecut=    30.00 Ry     beta=0.70
     Davidson diagonalization with overlap
     ethr =  3.18E-08,  avg # of iterations =  2.0

     total cpu time spent up to now is       27.4 secs

     total energy              =    -329.49284555 Ry
     Harris-Foulkes estimate   =    -329.49284632 Ry
     estimated scf accuracy    <       0.00000190 Ry

     iteration #  5     ecut=    30.00 Ry     beta=0.70
     Davidson diagonalization with overlap
     ethr =  3.46E-09,  avg # of iterations =  2.0

     total cpu time spent up to now is       27.6 secs

     total energy              =    -329.49284597 Ry
     Harris-Foulkes estimate   =    -329.49284600 Ry
     estimated scf accuracy    <       0.00000020 Ry

     iteration #  6     ecut=    30.00 Ry     beta=0.70
     Davidson diagonalization with overlap
     ethr =  3.67E-10,  avg # of iterations =  2.0

     total cpu time spent up to now is       27.8 secs

     total energy              =    -329.49284602 Ry
     Harris-Foulkes estimate   =    -329.49284602 Ry
     estimated scf accuracy    <          9.7E-09 Ry

     iteration #  7     ecut=    30.00 Ry     beta=0.70
     Davidson diagonalization with overlap
     ethr =  1.76E-11,  avg # of iterations =  3.0

     total cpu time spent up to now is       28.1 secs

     total energy              =    -329.49284600 Ry
     Harris-Foulkes estimate   =    -329.49284602 Ry
     estimated scf accuracy    <          5.8E-09 Ry

     iteration #  8     ecut=    30.00 Ry     beta=0.70
     Davidson diagonalization with overlap
     ethr =  1.06E-11,  avg # of iterations =  2.0

     total cpu time spent up to now is       28.3 secs

     total energy              =    -329.49284596 Ry
     Harris-Foulkes estimate   =    -329.49284600 Ry
     estimated scf accuracy    <          8.0E-10 Ry

     iteration #  9     ecut=    30.00 Ry     beta=0.70
     Davidson diagonalization with overlap
     ethr =  1.45E-12,  avg # of iterations =  2.0

     total cpu time spent up to now is       28.5 secs

     End of self-consistent calculation

          k = 0.0000 0.0000 0.0000 ( 22119 PWs)   bands (ev):

    -8.5089  -7.7773  -7.6555  -7.2356  -6.8849  -6.8176  -6.6093  -6.4773
    -6.3125  -6.0705  -5.9598  -5.7710  -5.7325  -5.6813  -5.4447  -5.3663
    -5.3179  -5.2408  -5.2007  -5.1840  -5.1658  -5.1240  -4.9960  -4.9182
    -4.8580  -4.7107  -4.4736  -3.7765  -2.4391  -2.2020  -0.5369  -0.1806
     0.4614   0.8180

     the Fermi energy is    -3.7446 ev

!    total energy              =    -329.49284593 Ry
     Harris-Foulkes estimate   =    -329.49284596 Ry
     estimated scf accuracy    <          2.0E-10 Ry

     The total energy is the sum of the following terms:

     one-electron contribution =    -607.38888904 Ry
     hartree contribution      =     325.12737219 Ry
     xc contribution           =     -51.40137389 Ry
     ewald contribution        =       4.17424217 Ry
     smearing contrib. (-TS)   =      -0.00419736 Ry

     convergence has been achieved in   9 iterations

     Forces acting on atoms (Ry/au):

     atom    1 type  1   force =    -0.00182517   -0.00092623   -0.00181281
     atom    2 type  1   force =    -0.00125567    0.00162961    0.00002937
     atom    3 type  1   force =     0.00206703    0.00064331    0.00097889
     atom    4 type  1   force =     0.00084439   -0.00092149   -0.00019782
     atom    5 type  1   force =     0.00016942   -0.00042519    0.00100236

     Total force =     0.004491     Total SCF correction =     0.000054

     number of scf cycles    =  11
     number of bfgs steps    =  10

     energy   old            =    -329.4927819508 Ry
     energy   new            =    -329.4928459328 Ry

     CASE: energy  _new < energy  _old

     new trust radius        =       0.0058210828 bohr
     new conv_thr            =            1.0E-10 Ry


ATOMIC_POSITIONS (bohr)
Au      -1.636018278   1.947996840  -1.132743165
Au      -0.807488249   3.821879463   3.608297590
Au       2.970416959   1.237943372   0.816373396
Au       3.877121465   3.523773695   5.776028037
Au       7.474420104   1.001317630   3.060551142



     Writing output data file pwscf.save
     Check: negative starting charge=   -0.006333
     NEW-OLD atomic charge density approx. for the potential
     Check: negative starting charge=   -0.006333

     negative rho (up, down):  8.186E-07 0.000E+00

     total cpu time spent up to now is       28.7 secs

     per-process dynamical memory:    50.7 Mb

     Self-consistent Calculation

     iteration #  1     ecut=    30.00 Ry     beta=0.70
     Davidson diagonalization with overlap
     ethr =  1.00E-06,  avg # of iterations =  3.0

     Threshold (ethr) on eigenvalues was too large:
     Diagonalizing with lowered threshold

     Davidson diagonalization with overlap
     ethr =  1.04E-08,  avg # of iterations =  2.0

     total cpu time spent up to now is       29.2 secs

     total energy              =    -329.49286741 Ry
     Harris-Foulkes estimate   =    -329.49286739 Ry
     estimated scf accuracy    <       0.00000629 Ry

     iteration #  2     ecut=    30.00 Ry     beta=0.70
     Davidson diagonalization with overlap
     ethr =  1.14E-08,  avg # of iterations =  3.0

     total cpu time spent up to now is       29.4 secs

     total energy              =    -329.49286839 Ry
     Harris-Foulkes estimate   =    -329.49287040 Ry
     estimated scf accuracy    <       0.00000384 Ry

     iteration #  3     ecut=    30.00 Ry     beta=0.70
     Davidson diagonalization with overlap
     ethr =  6.99E-09,  avg # of iterations =  2.0

     total cpu time spent up to now is       29.6 secs

     total energy              =    -329.49286955 Ry
     Harris-Foulkes estimate   =    -329.49286945 Ry
     estimated scf accuracy    <       0.00000059 Ry

     iteration #  4     ecut=    30.00 Ry     beta=0.70
     Davidson diagonalization with overlap
     ethr =  1.08E-09,  avg # of iterations =  3.0

     total cpu time spent up to now is       29.9 secs

     total energy              =    -329.49286949 Ry
     Harris-Foulkes estimate   =    -329.49286985 Ry
     estimated scf accuracy    <       0.00000052 Ry

     iteration #  5     ecut=    30.00 Ry     beta=0.70
     Davidson diagonalization with overlap
     ethr =  9.44E-10,  avg # of iterations =  2.0

     total cpu time spent up to now is       30.1 secs

     total energy              =    -329.49286955 Ry
     Harris-Foulkes estimate   =    -329.49286960 Ry
     estimated scf accuracy    <       0.00000004 Ry

     iteration #  6     ecut=    30.00 Ry     beta=0.70
     Davidson diagonalization with overlap
     ethr =  7.51E-11,  avg # of iterations =  3.0

     total cpu time spent up to now is       30.3 secs

     total energy              =    -329.49286955 Ry
     Harris-Foulkes estimate   =    -329.49286956 Ry
     estimated scf accuracy    <          3.1E-09 Ry

     iteration #  7     ecut=    30.00 Ry     beta=0.70
     Davidson diagonalization with overlap
     ethr =  5.63E-12,  avg # of iterations =  3.0

     total cpu time spent up to now is       30.5 secs

     total energy              =    -329.49286960 Ry
     Harris-Foulkes estimate   =    -329.49286955 Ry
     estimated scf accuracy    <          9.7E-10 Ry

     iteration #  8     ecut=    30.00 Ry     beta=0.70
     Davidson diagonalization with overlap
     ethr =  1.77E-12,  avg # of iterations =  3.0

     total cpu time spent up to now is       30.8 secs

     total energy              =    -329.49286958 Ry
     Harris-Foulkes estimate   =    -329.49286960 Ry
     estimated scf accuracy    <          1.2E-10 Ry

     iteration #  9     ecut=    30.00 Ry     beta=0.70
     Davidson diagonalization with overlap
     ethr =  2.16E-13,  avg # of iterations =  3.0

     total cpu time spent up to now is       31.0 secs

     End of self-consistent calculation

          k = 0.0000 0.0000 0.0000 ( 22119 PWs)   bands (ev):

    -8.5061  -7.7724  -7.6496  -7.2281  -6.8779  -6.8158  -6.6041  -6.4741
    -6.3072  -6.0715  -5.9565  -5.7699  -5.7316  -5.6802  -5.4449  -5.3648
    -5.3173  -5.2420  -5.2014  -5.1833  -5.1652  -5.1242  -4.9955  -4.9210
    -4.8584  -4.7123  -4.4766  -3.7776  -2.4384  -2.2076  -0.5360  -0.1805
     0.4612   0.8176

     the Fermi energy is    -3.7454 ev

!    total energy              =    -329.49286958 Ry
     Harris-Foulkes estimate   =    -329.49286958 Ry
     estimated scf accuracy    <          3.3E-11 Ry

     The total energy is the sum of the following terms:

     one-electron contribution =    -607.02217251 Ry
     hartree contribution      =     324.94612390 Ry
     xc contribution           =     -51.39985933 Ry
     ewald contribution        =       3.98728659 Ry
     smearing contrib. (-TS)   =      -0.00424822 Ry

     convergence has been achieved in   9 iterations

     Forces acting on atoms (Ry/au):

     atom    1 type  1   force =    -0.00144473   -0.00072728   -0.00115986
     atom    2 type  1   force =    -0.00063022    0.00113728   -0.00031902
     atom    3 type  1   force =     0.00157582    0.00088720    0.00087169
     atom    4 type  1   force =     0.00051214   -0.00108240   -0.00070750
     atom    5 type  1   force =    -0.00001300   -0.00021481    0.00131469

     Total force =     0.003673     Total SCF correction =     0.000023

     number of scf cycles    =  12
     number of bfgs steps    =  11

     energy   old            =    -329.4928459328 Ry
     energy   new            =    -329.4928695767 Ry

     CASE: energy  _new < energy  _old

     new trust radius        =       0.0064031910 bohr
     new conv_thr            =            1.0E-10 Ry


ATOMIC_POSITIONS (bohr)
Au      -1.637863229   1.944163722  -1.137431798
Au      -0.811659503   3.826722620   3.607916382
Au       2.973188686   1.241380382   0.819483665
Au       3.878682334   3.522206721   5.777194882
Au       7.476103712   0.998437554   3.061343869



     Writing output data file pwscf.save
     Check: negative starting charge=   -0.006333
     NEW-OLD atomic charge density approx. for the potential
     Check: negative starting charge=   -0.006332

     negative rho (up, down):  1.378E-06 0.000E+00

     total cpu time spent up to now is       31.2 secs

     per-process dynamical memory:    50.7 Mb

     Self-consistent Calculation

     iteration #  1     ecut=    30.00 Ry     beta=0.70
     Davidson diagonalization with overlap
     ethr =  1.00E-06,  avg # of iterations =  3.0

     Threshold (ethr) on eigenvalues was too large:
     Diagonalizing with lowered threshold

     Davidson diagonalization with overlap
     ethr =  1.42E-08,  avg # of iterations =  2.0

     total cpu time spent up to now is       31.7 secs

     total energy              =    -329.49289117 Ry
     Harris-Foulkes estimate   =    -329.49289077 Ry
     estimated scf accuracy    <       0.00000840 Ry

     iteration #  2     ecut=    30.00 Ry     beta=0.70
     Davidson diagonalization with overlap
     ethr =  1.53E-08,  avg # of iterations =  3.0

     total cpu time spent up to now is       32.0 secs

     total energy              =    -329.49289218 Ry
     Harris-Foulkes estimate   =    -329.49289621 Ry
     estimated scf accuracy    <       0.00000952 Ry

     iteration #  3     ecut=    30.00 Ry     beta=0.70
     Davidson diagonalization with overlap
     ethr =  1.53E-08,  avg # of iterations =  2.0

     total cpu time spent up to now is       32.2 secs

     total energy              =    -329.49289399 Ry
     Harris-Foulkes estimate   =    -329.49289511 Ry
     estimated scf accuracy    <       0.00000262 Ry

     iteration #  4     ecut=    30.00 Ry     beta=0.70
     Davidson diagonalization with overlap
     ethr =  4.76E-09,  avg # of iterations =  2.0

     total cpu time spent up to now is       32.4 secs

     total energy              =    -329.49289488 Ry
     Harris-Foulkes estimate   =    -329.49289467 Ry
     estimated scf accuracy    <       0.00000036 Ry

     iteration #  5     ecut=    30.00 Ry     beta=0.70
     Davidson diagonalization with overlap
     ethr =  6.49E-10,  avg # of iterations =  2.0

     total cpu time spent up to now is       32.6 secs

     total energy              =    -329.49289493 Ry
     Harris-Foulkes estimate   =    -329.49289497 Ry
     estimated scf accuracy    <       0.00000006 Ry

     iteration #  6     ecut=    30.00 Ry     beta=0.70
     Davidson diagonalization with overlap
     ethr =  1.02E-10,  avg # of iterations =  2.0

     total cpu time spent up to now is       32.8 secs

     total energy              =    -329.49289495 Ry
     Harris-Foulkes estimate   =    -329.49289495 Ry
     estimated scf accuracy    <          6.0E-09 Ry

     iteration #  7     ecut=    30.00 Ry     beta=0.70
     Davidson diagonalization with overlap
     ethr =  1.10E-11,  avg # of iterations =  3.0

     total cpu time spent up to now is       33.0 secs

     total energy              =    -329.49289495 Ry
     Harris-Foulkes estimate   =    -329.49289495 Ry
     estimated scf accuracy    <          1.1E-09 Ry

[...]
     Davidson diagonalization with overlap
     ethr =  4.52E-13,  avg # of iterations =  3.0

     total cpu time spent up to now is      115.1 secs

     total energy              =    -329.49361956 Ry
     Harris-Foulkes estimate   =    -329.49361955 Ry
     estimated scf accuracy    <          1.0E-10 Ry

     iteration #  8     ecut=    30.00 Ry     beta=0.70
     Davidson diagonalization with overlap
     ethr =  1.91E-13,  avg # of iterations =  2.0

     total cpu time spent up to now is      115.3 secs

     End of self-consistent calculation

          k = 0.0000 0.0000 0.0000 ( 22119 PWs)   bands (ev):

    -8.4996  -7.7721  -7.6446  -7.2227  -6.8312  -6.8042  -6.6058  -6.4747
    -6.2982  -6.0774  -5.9420  -5.7645  -5.7231  -5.6808  -5.4666  -5.3511
    -5.3077  -5.2533  -5.2019  -5.1758  -5.1723  -5.1205  -5.0052  -4.9338
    -4.8317  -4.7373  -4.4894  -3.7704  -2.4404  -2.2094  -0.5271  -0.1713
     0.4685   0.7676

     the Fermi energy is    -3.7356 ev

!    total energy              =    -329.49361956 Ry
     Harris-Foulkes estimate   =    -329.49361956 Ry
     estimated scf accuracy    <          1.3E-11 Ry

     The total energy is the sum of the following terms:

     one-electron contribution =    -605.74932951 Ry
     hartree contribution      =     324.31145763 Ry
     xc contribution           =     -51.39492258 Ry
     ewald contribution        =       3.34403912 Ry
     smearing contrib. (-TS)   =      -0.00486423 Ry

     convergence has been achieved in   8 iterations

     Forces acting on atoms (Ry/au):

     atom    1 type  1   force =     0.00100175    0.00083301    0.00062519
     atom    2 type  1   force =     0.00037306   -0.00086016    0.00007899
     atom    3 type  1   force =    -0.00092825    0.00030335   -0.00062402
     atom    4 type  1   force =    -0.00059756    0.00067471   -0.00023895
     atom    5 type  1   force =     0.00015100   -0.00095091    0.00015879

     Total force =     0.002478     Total SCF correction =     0.000015

     number of scf cycles    =  45
     number of bfgs steps    =  44

     energy   old            =    -329.4936194401 Ry
     energy   new            =    -329.4936195641 Ry

     CASE: energy  _new < energy  _old


     WARNING: info= 14 for Hessian
     new trust radius        =       0.0021194485 bohr
     new conv_thr            =            1.0E-10 Ry


ATOMIC_POSITIONS (bohr)
Au      -1.654452282   2.110493414  -1.100683051
Au      -0.753869081   4.144256706   3.570848899
Au       2.971667474   1.317082131   0.811085700
Au       3.869276316   3.269187822   5.774345935
Au       7.445829573   0.691890928   3.072909518



     Writing output data file pwscf.save
     Check: negative starting charge=   -0.006331
     NEW-OLD atomic charge density approx. for the potential
     Check: negative starting charge=   -0.006331

     total cpu time spent up to now is      115.5 secs

     per-process dynamical memory:    50.7 Mb

     Self-consistent Calculation

     iteration #  1     ecut=    30.00 Ry     beta=0.70
     Davidson diagonalization with overlap
     ethr =  1.00E-06,  avg # of iterations =  3.0

     Threshold (ethr) on eigenvalues was too large:
     Diagonalizing with lowered threshold

     Davidson diagonalization with overlap
     ethr =  1.83E-09,  avg # of iterations =  2.0

     total cpu time spent up to now is      115.9 secs

     total energy              =    -329.49361868 Ry
     Harris-Foulkes estimate   =    -329.49361926 Ry
     estimated scf accuracy    <       0.00000094 Ry

     iteration #  2     ecut=    30.00 Ry     beta=0.70
     Davidson diagonalization with overlap
     ethr =  1.71E-09,  avg # of iterations =  3.0

     total cpu time spent up to now is      116.2 secs

     total energy              =    -329.49361885 Ry
     Harris-Foulkes estimate   =    -329.49361928 Ry
     estimated scf accuracy    <       0.00000099 Ry

     iteration #  3     ecut=    30.00 Ry     beta=0.70
     Davidson diagonalization with overlap
     ethr =  1.71E-09,  avg # of iterations =  2.0

     total cpu time spent up to now is      116.4 secs

     total energy              =    -329.49361952 Ry
     Harris-Foulkes estimate   =    -329.49361906 Ry
     estimated scf accuracy    <       0.00000003 Ry

     iteration #  4     ecut=    30.00 Ry     beta=0.70
     Davidson diagonalization with overlap
     ethr =  5.91E-11,  avg # of iterations =  3.0

     total cpu time spent up to now is      116.6 secs

     total energy              =    -329.49361962 Ry
     Harris-Foulkes estimate   =    -329.49361954 Ry
     estimated scf accuracy    <       0.00000003 Ry

     iteration #  5     ecut=    30.00 Ry     beta=0.70
     Davidson diagonalization with overlap
     ethr =  5.65E-11,  avg # of iterations =  2.0

     total cpu time spent up to now is      116.8 secs

     total energy              =    -329.49361965 Ry
     Harris-Foulkes estimate   =    -329.49361963 Ry
     estimated scf accuracy    <          5.3E-09 Ry

     iteration #  6     ecut=    30.00 Ry     beta=0.70
     Davidson diagonalization with overlap
     ethr =  9.62E-12,  avg # of iterations =  2.0

     total cpu time spent up to now is      117.0 secs

     total energy              =    -329.49361961 Ry
     Harris-Foulkes estimate   =    -329.49361965 Ry
     estimated scf accuracy    <          2.0E-10 Ry

     iteration #  7     ecut=    30.00 Ry     beta=0.70
     Davidson diagonalization with overlap
     ethr =  3.70E-13,  avg # of iterations =  3.0

     total cpu time spent up to now is      117.3 secs

     total energy              =    -329.49361961 Ry
     Harris-Foulkes estimate   =    -329.49361961 Ry
     estimated scf accuracy    <          1.8E-10 Ry

     iteration #  8     ecut=    30.00 Ry     beta=0.70
     Davidson diagonalization with overlap
     ethr =  3.36E-13,  avg # of iterations =  2.0

     total cpu time spent up to now is      117.5 secs

     End of self-consistent calculation

          k = 0.0000 0.0000 0.0000 ( 22119 PWs)   bands (ev):

    -8.4994  -7.7719  -7.6449  -7.2229  -6.8313  -6.8041  -6.6056  -6.4748
    -6.2985  -6.0772  -5.9419  -5.7645  -5.7230  -5.6808  -5.4666  -5.3511
    -5.3078  -5.2532  -5.2019  -5.1757  -5.1724  -5.1205  -5.0053  -4.9337
    -4.8316  -4.7375  -4.4893  -3.7705  -2.4407  -2.2091  -0.5272  -0.1713
     0.4686   0.7681

     the Fermi energy is    -3.7357 ev

!    total energy              =    -329.49361960 Ry
     Harris-Foulkes estimate   =    -329.49361961 Ry
     estimated scf accuracy    <          1.8E-11 Ry

     The total energy is the sum of the following terms:

     one-electron contribution =    -605.75259783 Ry
     hartree contribution      =     324.31309432 Ry
     xc contribution           =     -51.39492523 Ry
     ewald contribution        =       3.34566924 Ry
     smearing contrib. (-TS)   =      -0.00486009 Ry

     convergence has been achieved in   8 iterations

     Forces acting on atoms (Ry/au):

     atom    1 type  1   force =     0.00102815    0.00081647    0.00066788
     atom    2 type  1   force =     0.00037533   -0.00084858    0.00002282
     atom    3 type  1   force =    -0.00096327    0.00029483   -0.00063022
     atom    4 type  1   force =    -0.00057616    0.00066022   -0.00020705
     atom    5 type  1   force =     0.00013595   -0.00092295    0.00014657

     Total force =     0.002479     Total SCF correction =     0.000015

     number of scf cycles    =  46
     number of bfgs steps    =  45

     energy   old            =    -329.4936195641 Ry
     energy   new            =    -329.4936196015 Ry

     CASE: energy  _new < energy  _old


     WARNING: info= 14 for Hessian
     new trust radius        =       0.0011287000 bohr
     new conv_thr            =            1.0E-10 Ry


ATOMIC_POSITIONS (bohr)
Au      -1.654486859   2.110873237  -1.100648720
Au      -0.753215572   4.145079866   3.570437443
Au       2.971402906   1.317103435   0.811030071
Au       3.869351555   3.268561586   5.774973625
Au       7.445399971   0.691292877   3.072714580



     Writing output data file pwscf.save
     Check: negative starting charge=   -0.006331
     NEW-OLD atomic charge density approx. for the potential
     Check: negative starting charge=   -0.006331

     total cpu time spent up to now is      117.8 secs

     per-process dynamical memory:    50.7 Mb

     Self-consistent Calculation

     iteration #  1     ecut=    30.00 Ry     beta=0.70
     Davidson diagonalization with overlap
     ethr =  1.00E-06,  avg # of iterations =  2.0

     Threshold (ethr) on eigenvalues was too large:
     Diagonalizing with lowered threshold

     Davidson diagonalization with overlap
     ethr =  8.84E-10,  avg # of iterations =  3.0

     total cpu time spent up to now is      118.2 secs

     total energy              =    -329.49361947 Ry
     Harris-Foulkes estimate   =    -329.49361930 Ry
     estimated scf accuracy    <       0.00000024 Ry

     iteration #  2     ecut=    30.00 Ry     beta=0.70
     Davidson diagonalization with overlap
     ethr =  4.33E-10,  avg # of iterations =  3.0

     total cpu time spent up to now is      118.5 secs

     total energy              =    -329.49361943 Ry
     Harris-Foulkes estimate   =    -329.49361961 Ry
     estimated scf accuracy    <       0.00000024 Ry

     iteration #  3     ecut=    30.00 Ry     beta=0.70
     Davidson diagonalization with overlap
     ethr =  4.33E-10,  avg # of iterations =  2.0

     total cpu time spent up to now is      118.7 secs

     total energy              =    -329.49361954 Ry
     Harris-Foulkes estimate   =    -329.49361949 Ry
     estimated scf accuracy    <       0.00000001 Ry

     iteration #  4     ecut=    30.00 Ry     beta=0.70
     Davidson diagonalization with overlap
     ethr =  1.91E-11,  avg # of iterations =  3.0

     total cpu time spent up to now is      118.9 secs

     total energy              =    -329.49361957 Ry
     Harris-Foulkes estimate   =    -329.49361955 Ry
     estimated scf accuracy    <       0.00000001 Ry

     iteration #  5     ecut=    30.00 Ry     beta=0.70
     Davidson diagonalization with overlap
     ethr =  1.91E-11,  avg # of iterations =  2.0

     total cpu time spent up to now is      119.1 secs

     total energy              =    -329.49361955 Ry
     Harris-Foulkes estimate   =    -329.49361957 Ry
     estimated scf accuracy    <          1.2E-09 Ry

     iteration #  6     ecut=    30.00 Ry     beta=0.70
     Davidson diagonalization with overlap
     ethr =  2.20E-12,  avg # of iterations =  2.0

     total cpu time spent up to now is      119.3 secs

     End of self-consistent calculation

          k = 0.0000 0.0000 0.0000 ( 22119 PWs)   bands (ev):

    -8.4996  -7.7720  -7.6448  -7.2228  -6.8313  -6.8042  -6.6057  -6.4748
    -6.2984  -6.0773  -5.9420  -5.7646  -5.7230  -5.6808  -5.4665  -5.3511
    -5.3078  -5.2533  -5.2019  -5.1758  -5.1723  -5.1205  -5.0052  -4.9337
    -4.8316  -4.7374  -4.4893  -3.7705  -2.4405  -2.2093  -0.5272  -0.1713
     0.4686   0.7679

     the Fermi energy is    -3.7357 ev

!    total energy              =    -329.49361956 Ry
     Harris-Foulkes estimate   =    -329.49361955 Ry
     estimated scf accuracy    <          7.1E-11 Ry

     The total energy is the sum of the following terms:

     one-electron contribution =    -605.75359351 Ry
     hartree contribution      =     324.31358171 Ry
     xc contribution           =     -51.39493660 Ry
     ewald contribution        =       3.34619005 Ry
     smearing contrib. (-TS)   =      -0.00486120 Ry

     convergence has been achieved in   6 iterations

     Forces acting on atoms (Ry/au):

     atom    1 type  1   force =     0.00100798    0.00082400    0.00064175
     atom    2 type  1   force =     0.00036599   -0.00085392    0.00005461
     atom    3 type  1   force =    -0.00094254    0.00029963   -0.00062456
     atom    4 type  1   force =    -0.00058265    0.00066340   -0.00022922
     atom    5 type  1   force =     0.00015122   -0.00093311    0.00015742

     Total force =     0.002468     Total SCF correction =     0.000028

     number of scf cycles    =  47
     number of bfgs steps    =  46

     energy   old            =    -329.4936196015 Ry
     energy   new            =    -329.4936195563 Ry

     CASE: energy  _new > energy  _old

     new trust radius        =       0.0000961455 bohr

     trust_radius < trust_radius_min

     resetting bfgs history

     new conv_thr            =            1.0E-10 Ry


ATOMIC_POSITIONS (bohr)
Au      -1.653424135   2.111309888  -1.100015169
Au      -0.753493752   4.143408130   3.570871714
Au       2.970704206   1.317376961   0.810455477
Au       3.868700157   3.269848041   5.774138887
Au       7.445965525   0.690967981   3.073056091



     Writing output data file pwscf.save
     Check: negative starting charge=   -0.006331
     NEW-OLD atomic charge density approx. for the potential
     Check: negative starting charge=   -0.006331

     total cpu time spent up to now is      119.5 secs

     per-process dynamical memory:    50.7 Mb

     Self-consistent Calculation

     iteration #  1     ecut=    30.00 Ry     beta=0.70
     Davidson diagonalization with overlap
     ethr =  1.00E-06,  avg # of iterations =  3.0

     Threshold (ethr) on eigenvalues was too large:
     Diagonalizing with lowered threshold

     Davidson diagonalization with overlap
     ethr =  1.86E-09,  avg # of iterations =  3.0

     total cpu time spent up to now is      120.0 secs

     total energy              =    -329.49362433 Ry
     Harris-Foulkes estimate   =    -329.49362433 Ry
     estimated scf accuracy    <       0.00000085 Ry

     iteration #  2     ecut=    30.00 Ry     beta=0.70
     Davidson diagonalization with overlap
     ethr =  1.55E-09,  avg # of iterations =  3.0

     total cpu time spent up to now is      120.3 secs

     total energy              =    -329.49362427 Ry
     Harris-Foulkes estimate   =    -329.49362514 Ry
     estimated scf accuracy    <       0.00000217 Ry

     iteration #  3     ecut=    30.00 Ry     beta=0.70
     Davidson diagonalization with overlap
     ethr =  1.55E-09,  avg # of iterations =  2.0

     total cpu time spent up to now is      120.5 secs

     total energy              =    -329.49362479 Ry
     Harris-Foulkes estimate   =    -329.49362477 Ry
     estimated scf accuracy    <       0.00000023 Ry

     iteration #  4     ecut=    30.00 Ry     beta=0.70
     Davidson diagonalization with overlap
     ethr =  4.14E-10,  avg # of iterations =  2.0

     total cpu time spent up to now is      120.7 secs

     total energy              =    -329.49362495 Ry
     Harris-Foulkes estimate   =    -329.49362484 Ry
     estimated scf accuracy    <       0.00000001 Ry

     iteration #  5     ecut=    30.00 Ry     beta=0.70
     Davidson diagonalization with overlap
     ethr =  2.42E-11,  avg # of iterations =  2.0

     total cpu time spent up to now is      120.9 secs

     total energy              =    -329.49362494 Ry
     Harris-Foulkes estimate   =    -329.49362495 Ry
     estimated scf accuracy    <          1.9E-09 Ry

     iteration #  6     ecut=    30.00 Ry     beta=0.70
     Davidson diagonalization with overlap
     ethr =  3.52E-12,  avg # of iterations =  2.0

     total cpu time spent up to now is      121.1 secs

     total energy              =    -329.49362495 Ry
     Harris-Foulkes estimate   =    -329.49362494 Ry
     estimated scf accuracy    <          3.4E-10 Ry

     iteration #  7     ecut=    30.00 Ry     beta=0.70
     Davidson diagonalization with overlap
     ethr =  6.13E-13,  avg # of iterations =  2.0

     total cpu time spent up to now is      121.3 secs

     End of self-consistent calculation

          k = 0.0000 0.0000 0.0000 ( 22119 PWs)   bands (ev):

    -8.5001  -7.7726  -7.6461  -7.2236  -6.8321  -6.8046  -6.6056  -6.4753
    -6.2992  -6.0774  -5.9419  -5.7647  -5.7232  -5.6811  -5.4665  -5.3512
    -5.3080  -5.2531  -5.2020  -5.1755  -5.1725  -5.1204  -5.0052  -4.9333
    -4.8312  -4.7376  -4.4889  -3.7706  -2.4405  -2.2084  -0.5274  -0.1714
     0.4689   0.7685

     the Fermi energy is    -3.7359 ev

!    total energy              =    -329.49362494 Ry
     Harris-Foulkes estimate   =    -329.49362495 Ry
     estimated scf accuracy    <          9.3E-11 Ry

     The total energy is the sum of the following terms:

     one-electron contribution =    -605.80652059 Ry
     hartree contribution      =     324.33982857 Ry
     xc contribution           =     -51.39514618 Ry
     ewald contribution        =       3.37306078 Ry
     smearing contrib. (-TS)   =      -0.00484753 Ry

     convergence has been achieved in   7 iterations

     Forces acting on atoms (Ry/au):

     atom    1 type  1   force =     0.00073056    0.00080902    0.00042009
     atom    2 type  1   force =     0.00026661   -0.00072396    0.00014151
     atom    3 type  1   force =    -0.00050295    0.00021472   -0.00043769
     atom    4 type  1   force =    -0.00040289    0.00057589   -0.00023772
     atom    5 type  1   force =    -0.00009133   -0.00087567    0.00011382

     Total force =     0.001952     Total SCF correction =     0.000038

     bfgs converged in  48 scf cycles and  46 bfgs steps
     (criteria: energy <  1.0E-04, force <  1.0E-03)

     End of BFGS Geometry Optimization

     Final energy   =    -329.4936249406 Ry
Begin final coordinates

ATOMIC_POSITIONS (bohr)
Au      -1.653424135   2.111309888  -1.100015169
Au      -0.753493752   4.143408130   3.570871714
Au       2.970704206   1.317376961   0.810455477
Au       3.868700157   3.269848041   5.774138887
Au       7.445965525   0.690967981   3.073056091
End final coordinates



     Writing output data file pwscf.save
 
     init_run     :      0.16s CPU      0.18s WALL (       1 calls)
     electrons    :    103.73s CPU    112.10s WALL (      48 calls)
     update_pot   :      3.11s CPU      3.91s WALL (      47 calls)
     forces       :      1.99s CPU      2.01s WALL (      48 calls)

     Called by init_run:
     wfcinit      :      0.07s CPU      0.08s WALL (       1 calls)
     potinit      :      0.03s CPU      0.03s WALL (       1 calls)

     Called by electrons:
     c_bands      :     79.12s CPU     80.53s WALL (     481 calls)
     sum_band     :     11.38s CPU     11.63s WALL (     481 calls)
     v_of_rho     :      8.89s CPU      9.01s WALL (     499 calls)
     mix_rho      :      3.13s CPU      7.12s WALL (     481 calls)

     Called by c_bands:
     init_us_2    :      1.40s CPU      1.47s WALL (     963 calls)
     cegterg      :     70.45s CPU     70.96s WALL (     481 calls)

     Called by sum_band:

     Called by *egterg:
     h_psi        :     55.08s CPU     55.48s WALL (    1677 calls)
     g_psi        :      0.56s CPU      0.56s WALL (    1195 calls)
     cdiaghg      :      3.81s CPU      3.82s WALL (    1599 calls)

     Called by h_psi:
     h_psi:pot    :     54.30s CPU     54.69s WALL (    1677 calls)
     h_psi:calbec :      3.00s CPU      3.00s WALL (    1677 calls)
     vloc_psi     :     48.01s CPU     48.39s WALL (    1677 calls)
     add_vuspsi   :      3.29s CPU      3.30s WALL (    1677 calls)

     General routines
     calbec       :      3.57s CPU      3.59s WALL (    1869 calls)
     fft          :      4.97s CPU      5.08s WALL (    5644 calls)
     fftw         :     50.59s CPU     51.38s WALL (  106154 calls)
     davcio       :      0.50s CPU      3.69s WALL (    4585 calls)
 
     Parallel routines
     fft_scatter  :     12.98s CPU     12.63s WALL (  111798 calls)
 
     PWSCF        :  1m50.23s CPU     2m 1.54s WALL

 
   This run was terminated on:  19:29:14   3Aug2017            

=------------------------------------------------------------------------------=
   JOB DONE.
=------------------------------------------------------------------------------=
