
     Program PWSCF v.6.0 (svn rev. 13079) starts on  4Aug2017 at  6:41:48 

     This program is part of the open-source Quantum ESPRESSO suite
     for quantum simulation of materials; please cite
         "P. Giannozzi et al., J. Phys.:Condens. Matter 21 395502 (2009);
          URL http://www.quantum-espresso.org", 
     in publications or presentations arising from this work. More details at
     http://www.quantum-espresso.org/quote

     Parallel version (MPI), running on    10 processors
     R & G space division:  proc/nbgrp/npool/nimage =      10
     Reading input from input/multi/minchecks-Gold5-793.in

     Current dimensions of program PWSCF are:
     Max number of different atomic species (ntypx) = 10
     Max number of k-points (npk) =  40000
     Max angular momentum in pseudopotentials (lmaxx) =  3
     Message from routine iosys:
     pot_extrapolation='second-order' not available, using 'atomic'
     Message from routine iosys:
     wfc_extrapolation='second-order' not available, using 'atomic'

     Subspace diagonalization in iterative solution of the eigenvalue problem:
     a serial algorithm will be used

 
     Parallelization info
     --------------------
     sticks:   dense  smooth     PW     G-vecs:    dense   smooth      PW
     Min         380     380     94                17748    17748    2208
     Max         381     381     95                17753    17753    2213
     Sum        3809    3809    949               177509   177509   22119
 


     bravais-lattice index     =            1
     lattice parameter (alat)  =      20.0000  a.u.
     unit-cell volume          =    8000.0000 (a.u.)^3
     number of atoms/cell      =            5
     number of atomic types    =            1
     number of electrons       =        55.00
     number of Kohn-Sham states=           34
     kinetic-energy cutoff     =      30.0000  Ry
     charge density cutoff     =     120.0000  Ry
     convergence threshold     =      1.0E-08
     mixing beta               =       0.7000
     number of iterations used =            8  plain     mixing
     Exchange-correlation      = BLYP ( 1  3  1  3 0 0)
     nstep                     =           50


     celldm(1)=  20.000000  celldm(2)=   0.000000  celldm(3)=   0.000000
     celldm(4)=   0.000000  celldm(5)=   0.000000  celldm(6)=   0.000000

     crystal axes: (cart. coord. in units of alat)
               a(1) = (   1.000000   0.000000   0.000000 )  
               a(2) = (   0.000000   1.000000   0.000000 )  
               a(3) = (   0.000000   0.000000   1.000000 )  

     reciprocal axes: (cart. coord. in units 2 pi/alat)
               b(1) = (  1.000000  0.000000  0.000000 )  
               b(2) = (  0.000000  1.000000  0.000000 )  
               b(3) = (  0.000000  0.000000  1.000000 )  


     PseudoPot. # 1 for Au read from file:
     ./Au.blyp-d-hgh.UPF
     MD5 check sum: c10d8bae01f806c36a1643a1c69a8479
     Pseudo is Norm-conserving, Zval = 11.0
     Generated in analytical, separable form
     Using radial grid of 1279 points,  6 beta functions with: 
                l(1) =   0
                l(2) =   0
                l(3) =   1
                l(4) =   1
                l(5) =   2
                l(6) =   2

     atomic species   valence    mass     pseudopotential
        Au            11.00    28.08600     Au( 1.00)

     No symmetry found



   Cartesian axes

     site n.     atom                  positions (alat units)
         1           Au  tau(   1) = (   0.0566819   0.0742497   0.0232170  )
         2           Au  tau(   2) = (  -0.0103634   0.1946404   0.2083175  )
         3           Au  tau(   3) = (   0.2325601   0.1472285  -0.0535362  )
         4           Au  tau(   4) = (   0.2332237   0.2331606   0.2210792  )
         5           Au  tau(   5) = (   0.2219311  -0.0081161   0.1877754  )

     number of k points=     1  Marzari-Vanderbilt smearing, width (Ry)=  0.0250
                       cart. coord. in units 2pi/alat
        k(    1) = (   0.0000000   0.0000000   0.0000000), wk =   2.0000000

     Dense  grid:   177509 G-vectors     FFT dimensions: (  72,  72,  72)

     Estimated max dynamical RAM per process >      15.04Mb

     Estimated total allocated dynamical RAM >     150.39Mb

     Initial potential from superposition of free atoms
     Check: negative starting charge=   -0.006475

     starting charge   54.99940, renormalised to   55.00000

     negative rho (up, down):  6.475E-03 0.000E+00
     Starting wfc are   45 randomized atomic wfcs

     total cpu time spent up to now is        0.3 secs

     per-process dynamical memory:    41.0 Mb

     Self-consistent Calculation

     iteration #  1     ecut=    30.00 Ry     beta=0.70
     Davidson diagonalization with overlap
     ethr =  1.00E-02,  avg # of iterations =  5.0

     Threshold (ethr) on eigenvalues was too large:
     Diagonalizing with lowered threshold

     Davidson diagonalization with overlap
     ethr =  7.33E-04,  avg # of iterations =  2.0

     negative rho (up, down):  7.175E-04 0.000E+00

     total cpu time spent up to now is        0.7 secs

     total energy              =    -328.99640581 Ry
     Harris-Foulkes estimate   =    -329.28802020 Ry
     estimated scf accuracy    <       0.44987352 Ry

     iteration #  2     ecut=    30.00 Ry     beta=0.70
     Davidson diagonalization with overlap
     ethr =  8.18E-04,  avg # of iterations =  3.0

     negative rho (up, down):  3.986E-04 0.000E+00

     total cpu time spent up to now is        1.0 secs

     total energy              =    -329.02092550 Ry
     Harris-Foulkes estimate   =    -329.43434374 Ry
     estimated scf accuracy    <       0.97458873 Ry

     iteration #  3     ecut=    30.00 Ry     beta=0.70
     Davidson diagonalization with overlap
     ethr =  8.18E-04,  avg # of iterations =  3.0

     negative rho (up, down):  1.667E-04 0.000E+00

     total cpu time spent up to now is        1.2 secs

     total energy              =    -329.15860095 Ry
     Harris-Foulkes estimate   =    -329.23864897 Ry
     estimated scf accuracy    <       0.22660208 Ry

     iteration #  4     ecut=    30.00 Ry     beta=0.70
     Davidson diagonalization with overlap
     ethr =  4.12E-04,  avg # of iterations =  2.0

     negative rho (up, down):  7.347E-05 0.000E+00

     total cpu time spent up to now is        1.4 secs

     total energy              =    -329.19747673 Ry
     Harris-Foulkes estimate   =    -329.20724947 Ry
     estimated scf accuracy    <       0.04997152 Ry

     iteration #  5     ecut=    30.00 Ry     beta=0.70
     Davidson diagonalization with overlap
     ethr =  9.09E-05,  avg # of iterations =  1.0

     negative rho (up, down):  8.510E-06 0.000E+00

     total cpu time spent up to now is        1.6 secs

     total energy              =    -329.19932209 Ry
     Harris-Foulkes estimate   =    -329.20238434 Ry
     estimated scf accuracy    <       0.01016439 Ry

     iteration #  6     ecut=    30.00 Ry     beta=0.70
     Davidson diagonalization with overlap
     ethr =  1.85E-05,  avg # of iterations =  2.0

     negative rho (up, down):  7.902E-08 0.000E+00

     total cpu time spent up to now is        1.8 secs

     total energy              =    -329.20062924 Ry
     Harris-Foulkes estimate   =    -329.20194310 Ry
     estimated scf accuracy    <       0.00401474 Ry

     iteration #  7     ecut=    30.00 Ry     beta=0.70
     Davidson diagonalization with overlap
     ethr =  7.30E-06,  avg # of iterations =  2.0

     total cpu time spent up to now is        2.0 secs

     total energy              =    -329.20128781 Ry
     Harris-Foulkes estimate   =    -329.20156698 Ry
     estimated scf accuracy    <       0.00085631 Ry

     iteration #  8     ecut=    30.00 Ry     beta=0.70
     Davidson diagonalization with overlap
     ethr =  1.56E-06,  avg # of iterations =  3.0

     total cpu time spent up to now is        2.2 secs

     total energy              =    -329.20138202 Ry
     Harris-Foulkes estimate   =    -329.20146994 Ry
     estimated scf accuracy    <       0.00026748 Ry

     iteration #  9     ecut=    30.00 Ry     beta=0.70
     Davidson diagonalization with overlap
     ethr =  4.86E-07,  avg # of iterations =  2.0

     total cpu time spent up to now is        2.4 secs

     total energy              =    -329.20142859 Ry
     Harris-Foulkes estimate   =    -329.20143579 Ry
     estimated scf accuracy    <       0.00002459 Ry

     iteration # 10     ecut=    30.00 Ry     beta=0.70
     Davidson diagonalization with overlap
     ethr =  4.47E-08,  avg # of iterations =  2.0

     total cpu time spent up to now is        2.6 secs

     total energy              =    -329.20143314 Ry
     Harris-Foulkes estimate   =    -329.20143471 Ry
     estimated scf accuracy    <       0.00000804 Ry

     iteration # 11     ecut=    30.00 Ry     beta=0.70
     Davidson diagonalization with overlap
     ethr =  1.46E-08,  avg # of iterations =  2.0

     total cpu time spent up to now is        2.8 secs

     total energy              =    -329.20143320 Ry
     Harris-Foulkes estimate   =    -329.20143410 Ry
     estimated scf accuracy    <       0.00000320 Ry

     iteration # 12     ecut=    30.00 Ry     beta=0.70
     Davidson diagonalization with overlap
     ethr =  5.81E-09,  avg # of iterations =  2.0

     total cpu time spent up to now is        3.0 secs

     total energy              =    -329.20143360 Ry
     Harris-Foulkes estimate   =    -329.20143362 Ry
     estimated scf accuracy    <       0.00000008 Ry

     iteration # 13     ecut=    30.00 Ry     beta=0.70
     Davidson diagonalization with overlap
     ethr =  1.49E-10,  avg # of iterations =  3.0

     total cpu time spent up to now is        3.3 secs

     total energy              =    -329.20143362 Ry
     Harris-Foulkes estimate   =    -329.20143364 Ry
     estimated scf accuracy    <       0.00000002 Ry

     iteration # 14     ecut=    30.00 Ry     beta=0.70
     Davidson diagonalization with overlap
     ethr =  3.60E-11,  avg # of iterations =  2.0

     total cpu time spent up to now is        3.5 secs

     End of self-consistent calculation

          k = 0.0000 0.0000 0.0000 ( 22119 PWs)   bands (ev):

    -9.7977  -9.1710  -8.7065  -8.4757  -7.8127  -7.6118  -7.4199  -7.2451
    -6.9445  -6.5320  -6.3531  -6.1846  -6.0546  -5.8543  -5.7842  -5.5830
    -5.4649  -5.2913  -5.1702  -5.1302  -5.0146  -4.9203  -4.7903  -4.7717
    -4.4106  -4.2937  -3.7564  -3.5638  -3.1951  -1.4867  -0.3260  -0.0058
     0.2635   0.3035

     the Fermi energy is    -3.5065 ev

!    total energy              =    -329.20143362 Ry
     Harris-Foulkes estimate   =    -329.20143363 Ry
     estimated scf accuracy    <          9.6E-09 Ry

     The total energy is the sum of the following terms:

     one-electron contribution =    -686.93965582 Ry
     hartree contribution      =     364.42916599 Ry
     xc contribution           =     -51.65575752 Ry
     ewald contribution        =      44.97132785 Ry
     smearing contrib. (-TS)   =      -0.00651411 Ry

     convergence has been achieved in  14 iterations

     Forces acting on atoms (Ry/au):

     atom    1 type  1   force =    -0.38316494   -0.21005422    0.02440931
     atom    2 type  1   force =    -0.08168406    0.06655613    0.10984555
     atom    3 type  1   force =     0.38883881    0.15213366   -0.18729546
     atom    4 type  1   force =     0.03768676    0.04472228    0.02280343
     atom    5 type  1   force =     0.03832343   -0.05335785    0.03023716

     Total force =     0.658249     Total SCF correction =     0.000448

     BFGS Geometry Optimization

     number of scf cycles    =   1
     number of bfgs steps    =   0

     energy   new            =    -329.2014336221 Ry

     new trust radius        =       0.4576241450 bohr
     new conv_thr            =       0.0000000100 Ry


ATOMIC_POSITIONS (bohr)
Au       0.750473060   1.274938779   0.488748313
Au      -0.288952057   3.959364134   4.276194553
Au       5.040039809   3.096703657  -1.258018459
Au       4.702160757   4.707935282   4.444387431
Au       4.476944431  -0.215679852   3.785745162



     Writing output data file pwscf.save
     Check: negative starting charge=   -0.006475
     NEW-OLD atomic charge density approx. for the potential
     Check: negative starting charge=   -0.006230

     negative rho (up, down):  1.200E-02 0.000E+00

     total cpu time spent up to now is        3.7 secs

     per-process dynamical memory:    42.9 Mb

     Self-consistent Calculation

     iteration #  1     ecut=    30.00 Ry     beta=0.70
     Davidson diagonalization with overlap
     ethr =  1.00E-06,  avg # of iterations = 12.0

     negative rho (up, down):  4.901E-04 0.000E+00

     total cpu time spent up to now is        4.3 secs

     total energy              =    -275.57731497 Ry
     Harris-Foulkes estimate   =    -640.97221894 Ry
     estimated scf accuracy    <       7.76409308 Ry

     iteration #  2     ecut=    30.00 Ry     beta=0.70
     Davidson diagonalization with overlap
     ethr =  1.00E-02,  avg # of iterations =  5.0

     negative rho (up, down):  1.112E-04 0.000E+00

     total cpu time spent up to now is        4.6 secs

     total energy              =    -325.44146247 Ry
     Harris-Foulkes estimate   =    -344.74457010 Ry
     estimated scf accuracy    <      69.59199920 Ry

     iteration #  3     ecut=    30.00 Ry     beta=0.70
     Davidson diagonalization with overlap
     ethr =  1.00E-02,  avg # of iterations =  5.0

     negative rho (up, down):  6.920E-05 0.000E+00

     total cpu time spent up to now is        4.9 secs

     total energy              =    -329.30459889 Ry
     Harris-Foulkes estimate   =    -331.01571100 Ry
     estimated scf accuracy    <       4.24524483 Ry

     iteration #  4     ecut=    30.00 Ry     beta=0.70
     Davidson diagonalization with overlap
     ethr =  7.72E-03,  avg # of iterations =  2.0

     negative rho (up, down):  5.263E-05 0.000E+00

     total cpu time spent up to now is        5.1 secs

     total energy              =    -329.52287443 Ry
     Harris-Foulkes estimate   =    -329.84436913 Ry
     estimated scf accuracy    <       1.89607947 Ry

     iteration #  5     ecut=    30.00 Ry     beta=0.70
     Davidson diagonalization with overlap
     ethr =  3.45E-03,  avg # of iterations =  1.0

     negative rho (up, down):  4.042E-05 0.000E+00

     total cpu time spent up to now is        5.3 secs

     total energy              =    -329.46304982 Ry
     Harris-Foulkes estimate   =    -329.59018554 Ry
     estimated scf accuracy    <       0.92423271 Ry

     iteration #  6     ecut=    30.00 Ry     beta=0.70
     Davidson diagonalization with overlap
     ethr =  1.68E-03,  avg # of iterations =  1.0

     negative rho (up, down):  3.311E-05 0.000E+00

     total cpu time spent up to now is        5.5 secs

     total energy              =    -329.41715972 Ry
     Harris-Foulkes estimate   =    -329.48260975 Ry
     estimated scf accuracy    <       0.65045779 Ry

     iteration #  7     ecut=    30.00 Ry     beta=0.70
     Davidson diagonalization with overlap
     ethr =  1.18E-03,  avg # of iterations =  1.0

     negative rho (up, down):  2.514E-05 0.000E+00

     total cpu time spent up to now is        5.6 secs

     total energy              =    -329.39953136 Ry
     Harris-Foulkes estimate   =    -329.42664433 Ry
     estimated scf accuracy    <       0.41118020 Ry

     iteration #  8     ecut=    30.00 Ry     beta=0.70
     Davidson diagonalization with overlap
     ethr =  7.48E-04,  avg # of iterations =  1.0

     negative rho (up, down):  1.365E-05 0.000E+00

     total cpu time spent up to now is        5.8 secs

     total energy              =    -329.38880515 Ry
     Harris-Foulkes estimate   =    -329.40548132 Ry
     estimated scf accuracy    <       0.29835635 Ry

     iteration #  9     ecut=    30.00 Ry     beta=0.70
     Davidson diagonalization with overlap
     ethr =  5.42E-04,  avg # of iterations =  1.0

     negative rho (up, down):  1.454E-06 0.000E+00

     total cpu time spent up to now is        6.0 secs

     total energy              =    -329.36865054 Ry
     Harris-Foulkes estimate   =    -329.39018015 Ry
     estimated scf accuracy    <       0.23782837 Ry

     iteration # 10     ecut=    30.00 Ry     beta=0.70
     Davidson diagonalization with overlap
     ethr =  4.32E-04,  avg # of iterations =  1.0

     negative rho (up, down):  4.523E-05 0.000E+00

     total cpu time spent up to now is        6.2 secs

     total energy              =    -329.36600210 Ry
     Harris-Foulkes estimate   =    -329.37076515 Ry
     estimated scf accuracy    <       0.13034655 Ry

     iteration # 11     ecut=    30.00 Ry     beta=0.70
     Davidson diagonalization with overlap
     ethr =  2.37E-04,  avg # of iterations =  2.0

     negative rho (up, down):  5.456E-07 0.000E+00

     total cpu time spent up to now is        6.4 secs

     total energy              =    -329.37584932 Ry
     Harris-Foulkes estimate   =    -329.37666536 Ry
     estimated scf accuracy    <       0.00421795 Ry

     iteration # 12     ecut=    30.00 Ry     beta=0.70
     Davidson diagonalization with overlap
     ethr =  7.67E-06,  avg # of iterations =  7.0

     negative rho (up, down):  1.584E-08 0.000E+00

     total cpu time spent up to now is        6.7 secs

     total energy              =    -329.37537834 Ry
     Harris-Foulkes estimate   =    -329.37633333 Ry
     estimated scf accuracy    <       0.00269468 Ry

     iteration # 13     ecut=    30.00 Ry     beta=0.70
     Davidson diagonalization with overlap
     ethr =  4.90E-06,  avg # of iterations =  2.0

     total cpu time spent up to now is        6.9 secs

     total energy              =    -329.37574070 Ry
     Harris-Foulkes estimate   =    -329.37603273 Ry
     estimated scf accuracy    <       0.00093957 Ry

     iteration # 14     ecut=    30.00 Ry     beta=0.70
     Davidson diagonalization with overlap
     ethr =  1.71E-06,  avg # of iterations =  2.0

     total cpu time spent up to now is        7.1 secs

     total energy              =    -329.37585732 Ry
     Harris-Foulkes estimate   =    -329.37591184 Ry
     estimated scf accuracy    <       0.00015911 Ry

     iteration # 15     ecut=    30.00 Ry     beta=0.70
     Davidson diagonalization with overlap
     ethr =  2.89E-07,  avg # of iterations =  2.0

     total cpu time spent up to now is        7.3 secs

     total energy              =    -329.37588644 Ry
     Harris-Foulkes estimate   =    -329.37589171 Ry
     estimated scf accuracy    <       0.00002946 Ry

     iteration # 16     ecut=    30.00 Ry     beta=0.70
     Davidson diagonalization with overlap
     ethr =  5.36E-08,  avg # of iterations =  2.0

     total cpu time spent up to now is        7.5 secs

     total energy              =    -329.37588841 Ry
     Harris-Foulkes estimate   =    -329.37589163 Ry
     estimated scf accuracy    <       0.00001090 Ry

     iteration # 17     ecut=    30.00 Ry     beta=0.70
     Davidson diagonalization with overlap
     ethr =  1.98E-08,  avg # of iterations =  2.0

     total cpu time spent up to now is        7.7 secs

     total energy              =    -329.37588508 Ry
     Harris-Foulkes estimate   =    -329.37589022 Ry
     estimated scf accuracy    <       0.00000107 Ry

     iteration # 18     ecut=    30.00 Ry     beta=0.70
     Davidson diagonalization with overlap
     ethr =  1.95E-09,  avg # of iterations =  3.0

     total cpu time spent up to now is        7.9 secs

     total energy              =    -329.37588499 Ry
     Harris-Foulkes estimate   =    -329.37588572 Ry
     estimated scf accuracy    <       0.00000205 Ry

     iteration # 19     ecut=    30.00 Ry     beta=0.70
     Davidson diagonalization with overlap
     ethr =  1.95E-09,  avg # of iterations =  2.0

     total cpu time spent up to now is        8.1 secs

     total energy              =    -329.37588533 Ry
     Harris-Foulkes estimate   =    -329.37588537 Ry
     estimated scf accuracy    <       0.00000028 Ry

     iteration # 20     ecut=    30.00 Ry     beta=0.70
     Davidson diagonalization with overlap
     ethr =  5.07E-10,  avg # of iterations =  2.0

     total cpu time spent up to now is        8.3 secs

     total energy              =    -329.37588531 Ry
     Harris-Foulkes estimate   =    -329.37588537 Ry
     estimated scf accuracy    <       0.00000001 Ry

     iteration # 21     ecut=    30.00 Ry     beta=0.70
     Davidson diagonalization with overlap
     ethr =  1.98E-11,  avg # of iterations =  3.0

     total cpu time spent up to now is        8.5 secs

     End of self-consistent calculation

          k = 0.0000 0.0000 0.0000 ( 22119 PWs)   bands (ev):

    -8.5454  -7.7488  -7.5923  -7.4775  -7.2486  -7.1350  -7.0107  -6.7654
    -6.6901  -6.3185  -6.0882  -5.9030  -5.8318  -5.7171  -5.6273  -5.5264
    -5.3539  -5.2553  -5.1978  -5.1431  -5.0726  -5.0104  -4.9521  -4.8966
    -4.6908  -4.5293  -3.8102  -3.6627  -3.3582  -1.8142  -0.3386  -0.0791
     0.1749   0.3540

     the Fermi energy is    -3.5914 ev

!    total energy              =    -329.37588533 Ry
     Harris-Foulkes estimate   =    -329.37588532 Ry
     estimated scf accuracy    <          5.0E-09 Ry

     The total energy is the sum of the following terms:

     one-electron contribution =    -642.02343716 Ry
     hartree contribution      =     342.34054790 Ry
     xc contribution           =     -51.40880316 Ry
     ewald contribution        =      21.72811585 Ry
     smearing contrib. (-TS)   =      -0.01230875 Ry

     convergence has been achieved in  21 iterations

     Forces acting on atoms (Ry/au):

     atom    1 type  1   force =    -0.00845376   -0.03736740   -0.05960074
     atom    2 type  1   force =    -0.03776421    0.03808279    0.06016795
     atom    3 type  1   force =     0.01634078   -0.00674270    0.00450919
     atom    4 type  1   force =     0.01528271    0.01765149    0.00124938
     atom    5 type  1   force =     0.01459448   -0.01162418   -0.00632578

     Total force =     0.113068     Total SCF correction =     0.000324

     number of scf cycles    =   2
     number of bfgs steps    =   1

     energy   old            =    -329.2014336221 Ry
     energy   new            =    -329.3758853285 Ry

     CASE: energy  _new < energy  _old

     new trust radius        =       0.0906954316 bohr
     new conv_thr            =       0.0000000060 Ry


ATOMIC_POSITIONS (bohr)
Au       0.730383180   1.228868018   0.425618396
Au      -0.331750517   4.002068091   4.343798733
Au       5.068740172   3.093863875  -1.258583508
Au       4.719614126   4.728128273   4.446382306
Au       4.493679039  -0.229666258   3.779841073



     Writing output data file pwscf.save
     Check: negative starting charge=   -0.006230
     NEW-OLD atomic charge density approx. for the potential
     Check: negative starting charge=   -0.006099

     negative rho (up, down):  1.230E-03 0.000E+00

     total cpu time spent up to now is        8.8 secs

     per-process dynamical memory:    50.7 Mb

     Self-consistent Calculation

     iteration #  1     ecut=    30.00 Ry     beta=0.70
     Davidson diagonalization with overlap
     ethr =  1.00E-06,  avg # of iterations =  6.0

     negative rho (up, down):  1.004E-04 0.000E+00

     total cpu time spent up to now is        9.2 secs

     total energy              =    -329.38567406 Ry
     Harris-Foulkes estimate   =    -329.38570954 Ry
     estimated scf accuracy    <       0.00201759 Ry

     iteration #  2     ecut=    30.00 Ry     beta=0.70
     Davidson diagonalization with overlap
     ethr =  3.67E-06,  avg # of iterations =  5.0

     negative rho (up, down):  6.189E-05 0.000E+00

     total cpu time spent up to now is        9.5 secs

     total energy              =    -329.38427070 Ry
     Harris-Foulkes estimate   =    -329.38877246 Ry
     estimated scf accuracy    <       0.01611784 Ry

     iteration #  3     ecut=    30.00 Ry     beta=0.70
     Davidson diagonalization with overlap
     ethr =  3.67E-06,  avg # of iterations =  4.0

     negative rho (up, down):  1.809E-05 0.000E+00

     total cpu time spent up to now is        9.7 secs

     total energy              =    -329.38648549 Ry
     Harris-Foulkes estimate   =    -329.38686843 Ry
     estimated scf accuracy    <       0.00137313 Ry

     iteration #  4     ecut=    30.00 Ry     beta=0.70
     Davidson diagonalization with overlap
     ethr =  2.50E-06,  avg # of iterations =  2.0

     negative rho (up, down):  2.917E-07 0.000E+00

     total cpu time spent up to now is        9.9 secs

     total energy              =    -329.38666659 Ry
     Harris-Foulkes estimate   =    -329.38673906 Ry
     estimated scf accuracy    <       0.00020311 Ry

     iteration #  5     ecut=    30.00 Ry     beta=0.70
     Davidson diagonalization with overlap
     ethr =  3.69E-07,  avg # of iterations =  2.0

     total cpu time spent up to now is       10.1 secs

     total energy              =    -329.38669109 Ry
     Harris-Foulkes estimate   =    -329.38672712 Ry
     estimated scf accuracy    <       0.00009320 Ry

     iteration #  6     ecut=    30.00 Ry     beta=0.70
     Davidson diagonalization with overlap
     ethr =  1.69E-07,  avg # of iterations =  2.0

     total cpu time spent up to now is       10.3 secs

     total energy              =    -329.38670251 Ry
     Harris-Foulkes estimate   =    -329.38671273 Ry
     estimated scf accuracy    <       0.00002233 Ry

     iteration #  7     ecut=    30.00 Ry     beta=0.70
     Davidson diagonalization with overlap
     ethr =  4.06E-08,  avg # of iterations =  2.0

     total cpu time spent up to now is       10.5 secs

     total energy              =    -329.38670431 Ry
     Harris-Foulkes estimate   =    -329.38670662 Ry
     estimated scf accuracy    <       0.00000174 Ry

     iteration #  8     ecut=    30.00 Ry     beta=0.70
     Davidson diagonalization with overlap
     ethr =  3.17E-09,  avg # of iterations =  3.0

     total cpu time spent up to now is       10.8 secs

     total energy              =    -329.38670435 Ry
     Harris-Foulkes estimate   =    -329.38670486 Ry
     estimated scf accuracy    <       0.00000032 Ry

     iteration #  9     ecut=    30.00 Ry     beta=0.70
     Davidson diagonalization with overlap
     ethr =  5.73E-10,  avg # of iterations =  3.0

     total cpu time spent up to now is       11.0 secs

     total energy              =    -329.38670416 Ry
     Harris-Foulkes estimate   =    -329.38670446 Ry
     estimated scf accuracy    <       0.00000018 Ry

     iteration # 10     ecut=    30.00 Ry     beta=0.70
     Davidson diagonalization with overlap
     ethr =  3.26E-10,  avg # of iterations =  2.0

     total cpu time spent up to now is       11.2 secs

     total energy              =    -329.38670417 Ry
     Harris-Foulkes estimate   =    -329.38670421 Ry
     estimated scf accuracy    <       0.00000003 Ry

     iteration # 11     ecut=    30.00 Ry     beta=0.70
     Davidson diagonalization with overlap
     ethr =  5.66E-11,  avg # of iterations =  2.0

     total cpu time spent up to now is       11.4 secs

     End of self-consistent calculation

          k = 0.0000 0.0000 0.0000 ( 22119 PWs)   bands (ev):

    -8.3760  -7.5386  -7.4394  -7.3660  -7.1490  -6.9919  -6.8849  -6.6854
    -6.6065  -6.2554  -6.0390  -5.8875  -5.8100  -5.6860  -5.6155  -5.5011
    -5.3554  -5.2529  -5.1894  -5.1340  -5.0745  -5.0343  -4.9623  -4.9133
    -4.7178  -4.5643  -3.8350  -3.6718  -3.3733  -1.8889  -0.3381  -0.0824
     0.1756   0.3513

     the Fermi energy is    -3.6072 ev

!    total energy              =    -329.38670413 Ry
     Harris-Foulkes estimate   =    -329.38670418 Ry
     estimated scf accuracy    <          1.0E-09 Ry

     The total energy is the sum of the following terms:

     one-electron contribution =    -633.37633969 Ry
     hartree contribution      =     338.08427240 Ry
     xc contribution           =     -51.37243103 Ry
     ewald contribution        =      17.28983232 Ry
     smearing contrib. (-TS)   =      -0.01203814 Ry

     convergence has been achieved in  11 iterations

     Forces acting on atoms (Ry/au):

     atom    1 type  1   force =    -0.00721342   -0.01705212   -0.03031451
     atom    2 type  1   force =    -0.01859895    0.01882173    0.03249796
     atom    3 type  1   force =     0.00967719   -0.00914538    0.00836859
     atom    4 type  1   force =     0.00603930    0.01079813   -0.00077234
     atom    5 type  1   force =     0.01009588   -0.00342236   -0.00977970

     Total force =     0.060236     Total SCF correction =     0.000146

     number of scf cycles    =   3
     number of bfgs steps    =   2

     energy   old            =    -329.3758853285 Ry
     energy   new            =    -329.3867041289 Ry

     CASE: energy  _new < energy  _old

     new trust radius        =       0.0997649747 bohr
     new conv_thr            =       0.0000000032 Ry


ATOMIC_POSITIONS (bohr)
Au       0.702349854   1.182963246   0.357605479
Au      -0.376727963   4.047050502   4.420653546
Au       5.102901333   3.079310100  -1.247006119
Au       4.734929143   4.753657385   4.445684997
Au       4.517213632  -0.239719233   3.760119097



     Writing output data file pwscf.save
     Check: negative starting charge=   -0.006099
     NEW-OLD atomic charge density approx. for the potential
     Check: negative starting charge=   -0.006055

     negative rho (up, down):  1.540E-03 0.000E+00

     total cpu time spent up to now is       11.6 secs

     per-process dynamical memory:    50.7 Mb

     Self-consistent Calculation

     iteration #  1     ecut=    30.00 Ry     beta=0.70
     Davidson diagonalization with overlap
     ethr =  1.00E-06,  avg # of iterations =  8.0

     negative rho (up, down):  1.355E-04 0.000E+00

     total cpu time spent up to now is       12.0 secs

     total energy              =    -329.39118034 Ry
     Harris-Foulkes estimate   =    -329.39110692 Ry
     estimated scf accuracy    <       0.00252296 Ry

     iteration #  2     ecut=    30.00 Ry     beta=0.70
     Davidson diagonalization with overlap
     ethr =  4.59E-06,  avg # of iterations =  6.0

     negative rho (up, down):  8.850E-05 0.000E+00

     total cpu time spent up to now is       12.3 secs

     total energy              =    -329.38910886 Ry
     Harris-Foulkes estimate   =    -329.39548162 Ry
     estimated scf accuracy    <       0.02417386 Ry

     iteration #  3     ecut=    30.00 Ry     beta=0.70
     Davidson diagonalization with overlap
     ethr =  4.59E-06,  avg # of iterations =  5.0

     negative rho (up, down):  2.362E-05 0.000E+00

     total cpu time spent up to now is       12.6 secs

     total energy              =    -329.39229872 Ry
     Harris-Foulkes estimate   =    -329.39267857 Ry
     estimated scf accuracy    <       0.00135152 Ry

     iteration #  4     ecut=    30.00 Ry     beta=0.70
     Davidson diagonalization with overlap
     ethr =  2.46E-06,  avg # of iterations =  2.0

     negative rho (up, down):  2.984E-07 0.000E+00

     total cpu time spent up to now is       12.8 secs

     total energy              =    -329.39248364 Ry
     Harris-Foulkes estimate   =    -329.39256298 Ry
     estimated scf accuracy    <       0.00022075 Ry

     iteration #  5     ecut=    30.00 Ry     beta=0.70
     Davidson diagonalization with overlap
     ethr =  4.01E-07,  avg # of iterations =  2.0

     total cpu time spent up to now is       13.0 secs

     total energy              =    -329.39251298 Ry
     Harris-Foulkes estimate   =    -329.39255030 Ry
     estimated scf accuracy    <       0.00009409 Ry

     iteration #  6     ecut=    30.00 Ry     beta=0.70
     Davidson diagonalization with overlap
     ethr =  1.71E-07,  avg # of iterations =  2.0

     total cpu time spent up to now is       13.2 secs

     total energy              =    -329.39252579 Ry
     Harris-Foulkes estimate   =    -329.39253579 Ry
     estimated scf accuracy    <       0.00002392 Ry

     iteration #  7     ecut=    30.00 Ry     beta=0.70
     Davidson diagonalization with overlap
     ethr =  4.35E-08,  avg # of iterations =  2.0

     total cpu time spent up to now is       13.4 secs

     total energy              =    -329.39252822 Ry
     Harris-Foulkes estimate   =    -329.39253021 Ry
     estimated scf accuracy    <       0.00000198 Ry

     iteration #  8     ecut=    30.00 Ry     beta=0.70
     Davidson diagonalization with overlap
     ethr =  3.60E-09,  avg # of iterations =  2.0

     total cpu time spent up to now is       13.6 secs

     total energy              =    -329.39252779 Ry
     Harris-Foulkes estimate   =    -329.39252886 Ry
     estimated scf accuracy    <       0.00000049 Ry

     iteration #  9     ecut=    30.00 Ry     beta=0.70
     Davidson diagonalization with overlap
     ethr =  8.98E-10,  avg # of iterations =  3.0

     total cpu time spent up to now is       13.8 secs

     total energy              =    -329.39252777 Ry
     Harris-Foulkes estimate   =    -329.39252796 Ry
     estimated scf accuracy    <       0.00000025 Ry

     iteration # 10     ecut=    30.00 Ry     beta=0.70
     Davidson diagonalization with overlap
     ethr =  4.55E-10,  avg # of iterations =  2.0

     total cpu time spent up to now is       14.0 secs

     total energy              =    -329.39252766 Ry
     Harris-Foulkes estimate   =    -329.39252783 Ry
     estimated scf accuracy    <       0.00000003 Ry

     iteration # 11     ecut=    30.00 Ry     beta=0.70
     Davidson diagonalization with overlap
     ethr =  5.47E-11,  avg # of iterations =  3.0

     total cpu time spent up to now is       14.2 secs

     End of self-consistent calculation

          k = 0.0000 0.0000 0.0000 ( 22119 PWs)   bands (ev):

    -8.2251  -7.4290  -7.3251  -7.1380  -7.0498  -6.8766  -6.7820  -6.5963
    -6.5133  -6.1976  -5.9809  -5.8841  -5.7954  -5.6572  -5.5997  -5.4758
    -5.3583  -5.2589  -5.1858  -5.1257  -5.0764  -5.0417  -4.9725  -4.9266
    -4.7478  -4.5935  -3.8601  -3.6812  -3.3854  -1.9650  -0.3373  -0.0873
     0.1767   0.3531

     the Fermi energy is    -3.6227 ev

!    total energy              =    -329.39252763 Ry
     Harris-Foulkes estimate   =    -329.39252767 Ry
     estimated scf accuracy    <          1.7E-09 Ry

     The total energy is the sum of the following terms:

     one-electron contribution =    -624.94651076 Ry
     hartree contribution      =     333.93350353 Ry
     xc contribution           =     -51.34037969 Ry
     ewald contribution        =      12.97246051 Ry
     smearing contrib. (-TS)   =      -0.01160122 Ry

     convergence has been achieved in  11 iterations

     Forces acting on atoms (Ry/au):

     atom    1 type  1   force =    -0.00390486   -0.00341993   -0.01062699
     atom    2 type  1   force =    -0.00415278    0.00686547    0.01270164
     atom    3 type  1   force =     0.00418741   -0.01173303    0.01315650
     atom    4 type  1   force =    -0.00238534    0.00426068   -0.00193725
     atom    5 type  1   force =     0.00625556    0.00402681   -0.01329391

     Total force =     0.030880     Total SCF correction =     0.000212

     number of scf cycles    =   4
     number of bfgs steps    =   3

     energy   old            =    -329.3867041289 Ry
     energy   new            =    -329.3925276303 Ry

     CASE: energy  _new < energy  _old

     new trust radius        =       0.0702993508 bohr
     new conv_thr            =       0.0000000013 Ry


ATOMIC_POSITIONS (bohr)
Au       0.680262585   1.154615495   0.309919565
Au      -0.404516161   4.079147987   4.476685378
Au       5.128450181   3.055662954  -1.222723203
Au       4.738442745   4.772258267   4.442583772
Au       4.538026650  -0.238422704   3.730591487



     Writing output data file pwscf.save
     Check: negative starting charge=   -0.006055
     NEW-OLD atomic charge density approx. for the potential
     Check: negative starting charge=   -0.006114

     negative rho (up, down):  9.344E-04 0.000E+00

     total cpu time spent up to now is       14.4 secs

     per-process dynamical memory:    50.7 Mb

     Self-consistent Calculation

     iteration #  1     ecut=    30.00 Ry     beta=0.70
     Davidson diagonalization with overlap
     ethr =  1.00E-06,  avg # of iterations =  6.0

     negative rho (up, down):  6.175E-05 0.000E+00

     total cpu time spent up to now is       14.8 secs

     total energy              =    -329.39393824 Ry
     Harris-Foulkes estimate   =    -329.39402824 Ry
     estimated scf accuracy    <       0.00161471 Ry

     iteration #  2     ecut=    30.00 Ry     beta=0.70
     Davidson diagonalization with overlap
     ethr =  2.94E-06,  avg # of iterations =  7.0

     negative rho (up, down):  3.791E-05 0.000E+00

     total cpu time spent up to now is       15.2 secs

     total energy              =    -329.39252753 Ry
     Harris-Foulkes estimate   =    -329.39688582 Ry
     estimated scf accuracy    <       0.01687745 Ry

     iteration #  3     ecut=    30.00 Ry     beta=0.70
     Davidson diagonalization with overlap
     ethr =  2.94E-06,  avg # of iterations =  5.0

     negative rho (up, down):  6.800E-06 0.000E+00

     total cpu time spent up to now is       15.4 secs

     total energy              =    -329.39469198 Ry
     Harris-Foulkes estimate   =    -329.39489678 Ry
     estimated scf accuracy    <       0.00068469 Ry

     iteration #  4     ecut=    30.00 Ry     beta=0.70
     Davidson diagonalization with overlap
     ethr =  1.24E-06,  avg # of iterations =  2.0

     negative rho (up, down):  2.788E-08 0.000E+00

     total cpu time spent up to now is       15.6 secs

     total energy              =    -329.39478546 Ry
     Harris-Foulkes estimate   =    -329.39483658 Ry
     estimated scf accuracy    <       0.00013154 Ry

     iteration #  5     ecut=    30.00 Ry     beta=0.70
     Davidson diagonalization with overlap
     ethr =  2.39E-07,  avg # of iterations =  2.0

     total cpu time spent up to now is       15.8 secs

     total energy              =    -329.39480308 Ry
     Harris-Foulkes estimate   =    -329.39482414 Ry
     estimated scf accuracy    <       0.00004750 Ry

     iteration #  6     ecut=    30.00 Ry     beta=0.70
     Davidson diagonalization with overlap
     ethr =  8.64E-08,  avg # of iterations =  2.0

     total cpu time spent up to now is       16.0 secs

     total energy              =    -329.39480982 Ry
     Harris-Foulkes estimate   =    -329.39481517 Ry
     estimated scf accuracy    <       0.00001266 Ry

     iteration #  7     ecut=    30.00 Ry     beta=0.70
     Davidson diagonalization with overlap
     ethr =  2.30E-08,  avg # of iterations =  1.0

     total cpu time spent up to now is       16.2 secs

     total energy              =    -329.39481130 Ry
     Harris-Foulkes estimate   =    -329.39481215 Ry
     estimated scf accuracy    <       0.00000096 Ry

     iteration #  8     ecut=    30.00 Ry     beta=0.70
     Davidson diagonalization with overlap
     ethr =  1.74E-09,  avg # of iterations =  3.0

     total cpu time spent up to now is       16.5 secs

     total energy              =    -329.39481094 Ry
     Harris-Foulkes estimate   =    -329.39481166 Ry
     estimated scf accuracy    <       0.00000033 Ry

     iteration #  9     ecut=    30.00 Ry     beta=0.70
     Davidson diagonalization with overlap
     ethr =  6.01E-10,  avg # of iterations =  3.0

     total cpu time spent up to now is       16.7 secs

     total energy              =    -329.39481082 Ry
     Harris-Foulkes estimate   =    -329.39481105 Ry
     estimated scf accuracy    <       0.00000016 Ry

     iteration # 10     ecut=    30.00 Ry     beta=0.70
     Davidson diagonalization with overlap
     ethr =  2.82E-10,  avg # of iterations =  2.0

     total cpu time spent up to now is       16.9 secs

     total energy              =    -329.39481088 Ry
     Harris-Foulkes estimate   =    -329.39481085 Ry
     estimated scf accuracy    <       0.00000002 Ry

     iteration # 11     ecut=    30.00 Ry     beta=0.70
     Davidson diagonalization with overlap
     ethr =  3.18E-11,  avg # of iterations =  3.0

     total cpu time spent up to now is       17.1 secs

     total energy              =    -329.39481089 Ry
     Harris-Foulkes estimate   =    -329.39481089 Ry
     estimated scf accuracy    <          1.4E-09 Ry

     iteration # 12     ecut=    30.00 Ry     beta=0.70
     Davidson diagonalization with overlap
     ethr =  2.58E-12,  avg # of iterations =  2.0

     total cpu time spent up to now is       17.3 secs

     End of self-consistent calculation

          k = 0.0000 0.0000 0.0000 ( 22119 PWs)   bands (ev):

    -8.1528  -7.3909  -7.2607  -7.0122  -6.9561  -6.8227  -6.7400  -6.5429
    -6.4516  -6.1686  -5.9457  -5.8931  -5.7907  -5.6453  -5.5856  -5.4597
    -5.3608  -5.2730  -5.1919  -5.1139  -5.0784  -5.0324  -4.9762  -4.9299
    -4.7673  -4.6087  -3.8757  -3.6836  -3.3861  -2.0100  -0.3364  -0.0923
     0.1794   0.3579

     the Fermi energy is    -3.6296 ev

!    total energy              =    -329.39481084 Ry
     Harris-Foulkes estimate   =    -329.39481089 Ry
     estimated scf accuracy    <          5.0E-10 Ry

     The total energy is the sum of the following terms:

     one-electron contribution =    -620.48414885 Ry
     hartree contribution      =     331.73813656 Ry
     xc contribution           =     -51.32481902 Ry
     ewald contribution        =      10.68709255 Ry
     smearing contrib. (-TS)   =      -0.01107208 Ry

     convergence has been achieved in  12 iterations

     Forces acting on atoms (Ry/au):

     atom    1 type  1   force =    -0.00230356    0.00230193   -0.00119051
     atom    2 type  1   force =     0.00237329    0.00204335    0.00309518
     atom    3 type  1   force =     0.00230581   -0.01301756    0.01627464
     atom    4 type  1   force =    -0.00702272    0.00124415   -0.00199301
     atom    5 type  1   force =     0.00464718    0.00742812   -0.01618629

     Total force =     0.029405     Total SCF correction =     0.000097

     number of scf cycles    =   5
     number of bfgs steps    =   4

     energy   old            =    -329.3925276303 Ry
     energy   new            =    -329.3948108411 Ry

     CASE: energy  _new < energy  _old

     new trust radius        =       0.0773292858 bohr
     new conv_thr            =       0.0000000016 Ry


ATOMIC_POSITIONS (bohr)
Au       0.653472574   1.127177270   0.258589660
Au      -0.430656875   4.116056482   4.539408935
Au       5.159362620   3.013966641  -1.175649155
Au       4.732427926   4.793343766   4.437018798
Au       4.566059755  -0.227282159   3.677688762



     Writing output data file pwscf.save
     Check: negative starting charge=   -0.006114
     NEW-OLD atomic charge density approx. for the potential
     Check: negative starting charge=   -0.006152

     negative rho (up, down):  1.323E-03 0.000E+00

     total cpu time spent up to now is       17.5 secs

     per-process dynamical memory:    50.7 Mb

     Self-consistent Calculation

     iteration #  1     ecut=    30.00 Ry     beta=0.70
     Davidson diagonalization with overlap
     ethr =  1.00E-06,  avg # of iterations = 12.0

     negative rho (up, down):  1.056E-04 0.000E+00

     total cpu time spent up to now is       18.0 secs

     total energy              =    -329.39560297 Ry
     Harris-Foulkes estimate   =    -329.39582829 Ry
     estimated scf accuracy    <       0.00266599 Ry

     iteration #  2     ecut=    30.00 Ry     beta=0.70
     Davidson diagonalization with overlap
     ethr =  4.85E-06,  avg # of iterations =  5.0

     negative rho (up, down):  6.876E-05 0.000E+00

     total cpu time spent up to now is       18.3 secs

     total energy              =    -329.39316125 Ry
     Harris-Foulkes estimate   =    -329.40062404 Ry
     estimated scf accuracy    <       0.02939986 Ry

     iteration #  3     ecut=    30.00 Ry     beta=0.70
     Davidson diagonalization with overlap
     ethr =  4.85E-06,  avg # of iterations =  5.0

     negative rho (up, down):  1.391E-05 0.000E+00

     total cpu time spent up to now is       18.6 secs

     total energy              =    -329.39689260 Ry
     Harris-Foulkes estimate   =    -329.39718446 Ry
     estimated scf accuracy    <       0.00097004 Ry

     iteration #  4     ecut=    30.00 Ry     beta=0.70
     Davidson diagonalization with overlap
     ethr =  1.76E-06,  avg # of iterations =  2.0

     negative rho (up, down):  1.200E-07 0.000E+00

     total cpu time spent up to now is       18.8 secs

     total energy              =    -329.39702993 Ry
     Harris-Foulkes estimate   =    -329.39711115 Ry
     estimated scf accuracy    <       0.00021261 Ry

     iteration #  5     ecut=    30.00 Ry     beta=0.70
     Davidson diagonalization with overlap
     ethr =  3.87E-07,  avg # of iterations =  2.0

     total cpu time spent up to now is       19.0 secs

     total energy              =    -329.39706355 Ry
     Harris-Foulkes estimate   =    -329.39708842 Ry
     estimated scf accuracy    <       0.00005967 Ry

     iteration #  6     ecut=    30.00 Ry     beta=0.70
     Davidson diagonalization with overlap
     ethr =  1.08E-07,  avg # of iterations =  2.0

     total cpu time spent up to now is       19.2 secs

     total energy              =    -329.39707280 Ry
     Harris-Foulkes estimate   =    -329.39707957 Ry
     estimated scf accuracy    <       0.00001609 Ry

     iteration #  7     ecut=    30.00 Ry     beta=0.70
     Davidson diagonalization with overlap
     ethr =  2.93E-08,  avg # of iterations =  2.0

     total cpu time spent up to now is       19.4 secs

     total energy              =    -329.39707421 Ry
     Harris-Foulkes estimate   =    -329.39707613 Ry
     estimated scf accuracy    <       0.00000162 Ry

     iteration #  8     ecut=    30.00 Ry     beta=0.70
     Davidson diagonalization with overlap
     ethr =  2.94E-09,  avg # of iterations =  2.0

     total cpu time spent up to now is       19.6 secs

     total energy              =    -329.39707398 Ry
     Harris-Foulkes estimate   =    -329.39707468 Ry
     estimated scf accuracy    <       0.00000035 Ry

     iteration #  9     ecut=    30.00 Ry     beta=0.70
     Davidson diagonalization with overlap
     ethr =  6.32E-10,  avg # of iterations =  3.0

     total cpu time spent up to now is       19.8 secs

     total energy              =    -329.39707386 Ry
     Harris-Foulkes estimate   =    -329.39707411 Ry
     estimated scf accuracy    <       0.00000021 Ry

     iteration # 10     ecut=    30.00 Ry     beta=0.70
     Davidson diagonalization with overlap
     ethr =  3.75E-10,  avg # of iterations =  2.0

     total cpu time spent up to now is       20.0 secs

     total energy              =    -329.39707383 Ry
     Harris-Foulkes estimate   =    -329.39707391 Ry
     estimated scf accuracy    <       0.00000002 Ry

     iteration # 11     ecut=    30.00 Ry     beta=0.70
     Davidson diagonalization with overlap
     ethr =  3.55E-11,  avg # of iterations =  3.0

     total cpu time spent up to now is       20.2 secs

     total energy              =    -329.39707380 Ry
     Harris-Foulkes estimate   =    -329.39707384 Ry
     estimated scf accuracy    <          1.8E-09 Ry

     iteration # 12     ecut=    30.00 Ry     beta=0.70
     Davidson diagonalization with overlap
     ethr =  3.36E-12,  avg # of iterations =  2.0

     total cpu time spent up to now is       20.4 secs

     End of self-consistent calculation

          k = 0.0000 0.0000 0.0000 ( 22119 PWs)   bands (ev):

    -8.1126  -7.3764  -7.2025  -6.9668  -6.8020  -6.7917  -6.7088  -6.5022
    -6.3887  -6.1468  -5.9684  -5.8695  -5.7865  -5.6397  -5.5680  -5.4447
    -5.3656  -5.3000  -5.2097  -5.0904  -5.0740  -5.0141  -4.9723  -4.9244
    -4.7859  -4.6204  -3.8908  -3.6808  -3.3762  -2.0496  -0.3354  -0.1002
     0.1851   0.3664

     the Fermi energy is    -3.6321 ev

!    total energy              =    -329.39707380 Ry
     Harris-Foulkes estimate   =    -329.39707380 Ry
     estimated scf accuracy    <          6.8E-10 Ry

     The total energy is the sum of the following terms:

     one-electron contribution =    -617.29311934 Ry
     hartree contribution      =     330.17221557 Ry
     xc contribution           =     -51.31487223 Ry
     ewald contribution        =       9.04888975 Ry
     smearing contrib. (-TS)   =      -0.01018755 Ry

     convergence has been achieved in  12 iterations

     Forces acting on atoms (Ry/au):

     atom    1 type  1   force =    -0.00101883    0.00663684    0.00621809
     atom    2 type  1   force =     0.00703488   -0.00194187   -0.00352791
     atom    3 type  1   force =     0.00161101   -0.01326190    0.01766418
     atom    4 type  1   force =    -0.01128595   -0.00057998   -0.00150044
     atom    5 type  1   force =     0.00365889    0.00914691   -0.01885391

     Total force =     0.034963     Total SCF correction =     0.000099

     number of scf cycles    =   6
     number of bfgs steps    =   5

     energy   old            =    -329.3948108411 Ry
     energy   new            =    -329.3970738010 Ry

     CASE: energy  _new < energy  _old

     new trust radius        =       0.1159939288 bohr
     new conv_thr            =       0.0000000019 Ry


ATOMIC_POSITIONS (bohr)
Au       0.616895394   1.097011241   0.195661345
Au      -0.458864618   4.163910592   4.620882429
Au       5.202901692   2.944125623  -1.093910713
Au       4.711869153   4.821451691   4.428386299
Au       4.607864379  -0.203237146   3.586037640



     Writing output data file pwscf.save
     Check: negative starting charge=   -0.006152
     NEW-OLD atomic charge density approx. for the potential
     Check: negative starting charge=   -0.006038

     negative rho (up, down):  2.454E-03 0.000E+00

     total cpu time spent up to now is       20.7 secs

     per-process dynamical memory:    50.7 Mb

     Self-consistent Calculation

     iteration #  1     ecut=    30.00 Ry     beta=0.70
     Davidson diagonalization with overlap
     ethr =  1.00E-06,  avg # of iterations = 10.0

     negative rho (up, down):  2.544E-04 0.000E+00

     total cpu time spent up to now is       21.2 secs

     total energy              =    -329.39703626 Ry
     Harris-Foulkes estimate   =    -329.39793154 Ry
     estimated scf accuracy    <       0.00540550 Ry

     iteration #  2     ecut=    30.00 Ry     beta=0.70
     Davidson diagonalization with overlap
     ethr =  9.83E-06,  avg # of iterations =  4.0

     negative rho (up, down):  1.769E-04 0.000E+00

     total cpu time spent up to now is       21.4 secs

     total energy              =    -329.39206297 Ry
     Harris-Foulkes estimate   =    -329.40711076 Ry
     estimated scf accuracy    <       0.05947523 Ry

     iteration #  3     ecut=    30.00 Ry     beta=0.70
     Davidson diagonalization with overlap
     ethr =  9.83E-06,  avg # of iterations =  5.0

     negative rho (up, down):  4.560E-05 0.000E+00

     total cpu time spent up to now is       21.7 secs

     total energy              =    -329.39968410 Ry
     Harris-Foulkes estimate   =    -329.40023335 Ry
     estimated scf accuracy    <       0.00187346 Ry

     iteration #  4     ecut=    30.00 Ry     beta=0.70
     Davidson diagonalization with overlap
     ethr =  3.41E-06,  avg # of iterations =  2.0

     negative rho (up, down):  8.149E-07 0.000E+00

     total cpu time spent up to now is       21.9 secs

     total energy              =    -329.39995856 Ry
     Harris-Foulkes estimate   =    -329.40012687 Ry
     estimated scf accuracy    <       0.00046096 Ry

     iteration #  5     ecut=    30.00 Ry     beta=0.70
     Davidson diagonalization with overlap
     ethr =  8.38E-07,  avg # of iterations =  2.0

     total cpu time spent up to now is       22.1 secs

     total energy              =    -329.40003440 Ry
     Harris-Foulkes estimate   =    -329.40007800 Ry
     estimated scf accuracy    <       0.00010298 Ry

     iteration #  6     ecut=    30.00 Ry     beta=0.70
     Davidson diagonalization with overlap
     ethr =  1.87E-07,  avg # of iterations =  2.0

     total cpu time spent up to now is       22.3 secs

     total energy              =    -329.40005094 Ry
     Harris-Foulkes estimate   =    -329.40006218 Ry
     estimated scf accuracy    <       0.00002418 Ry

     iteration #  7     ecut=    30.00 Ry     beta=0.70
     Davidson diagonalization with overlap
     ethr =  4.40E-08,  avg # of iterations =  2.0

     total cpu time spent up to now is       22.5 secs

     total energy              =    -329.40005416 Ry
     Harris-Foulkes estimate   =    -329.40005680 Ry
     estimated scf accuracy    <       0.00000356 Ry

     iteration #  8     ecut=    30.00 Ry     beta=0.70
     Davidson diagonalization with overlap
     ethr =  6.48E-09,  avg # of iterations =  2.0

     total cpu time spent up to now is       22.7 secs

     total energy              =    -329.40005444 Ry
     Harris-Foulkes estimate   =    -329.40005509 Ry
     estimated scf accuracy    <       0.00000046 Ry

     iteration #  9     ecut=    30.00 Ry     beta=0.70
     Davidson diagonalization with overlap
     ethr =  8.43E-10,  avg # of iterations =  2.0

     total cpu time spent up to now is       22.9 secs

     total energy              =    -329.40005445 Ry
     Harris-Foulkes estimate   =    -329.40005459 Ry
     estimated scf accuracy    <       0.00000016 Ry

     iteration # 10     ecut=    30.00 Ry     beta=0.70
     Davidson diagonalization with overlap
     ethr =  2.85E-10,  avg # of iterations =  2.0

     total cpu time spent up to now is       23.1 secs

     total energy              =    -329.40005436 Ry
     Harris-Foulkes estimate   =    -329.40005450 Ry
     estimated scf accuracy    <       0.00000005 Ry

     iteration # 11     ecut=    30.00 Ry     beta=0.70
     Davidson diagonalization with overlap
     ethr =  9.70E-11,  avg # of iterations =  2.0

     total cpu time spent up to now is       23.3 secs

     total energy              =    -329.40005437 Ry
     Harris-Foulkes estimate   =    -329.40005437 Ry
     estimated scf accuracy    <          5.5E-09 Ry

     iteration # 12     ecut=    30.00 Ry     beta=0.70
     Davidson diagonalization with overlap
     ethr =  1.00E-11,  avg # of iterations =  3.0

     total cpu time spent up to now is       23.6 secs

     End of self-consistent calculation

          k = 0.0000 0.0000 0.0000 ( 22119 PWs)   bands (ev):

    -8.1139  -7.3842  -7.1456  -6.9396  -6.7999  -6.7425  -6.5731  -6.4857
    -6.3121  -6.1255  -6.0673  -5.8091  -5.7698  -5.6367  -5.5500  -5.4310
    -5.3816  -5.3366  -5.2390  -5.0538  -5.0478  -4.9844  -4.9511  -4.9027
    -4.8054  -4.6271  -3.9083  -3.6719  -3.3491  -2.0899  -0.3342  -0.1134
     0.1967   0.3808

     the Fermi energy is    -3.6300 ev

!    total energy              =    -329.40005434 Ry
     Harris-Foulkes estimate   =    -329.40005437 Ry
     estimated scf accuracy    <          1.6E-09 Ry

     The total energy is the sum of the following terms:

     one-electron contribution =    -615.13554148 Ry
     hartree contribution      =     329.11953075 Ry
     xc contribution           =     -51.31090991 Ry
     ewald contribution        =       7.93551990 Ry
     smearing contrib. (-TS)   =      -0.00865361 Ry

     convergence has been achieved in  12 iterations

     Forces acting on atoms (Ry/au):

     atom    1 type  1   force =    -0.00085148    0.00988937    0.01120063
     atom    2 type  1   force =     0.01111740   -0.00487950   -0.00660598
     atom    3 type  1   force =     0.00143596   -0.01290723    0.01354765
     atom    4 type  1   force =    -0.01498085   -0.00116213   -0.00010011
     atom    5 type  1   force =     0.00327897    0.00905949   -0.01804220

     Total force =     0.037568     Total SCF correction =     0.000166

     number of scf cycles    =   7
     number of bfgs steps    =   6

     energy   old            =    -329.3970738010 Ry
     energy   new            =    -329.4000543447 Ry

     CASE: energy  _new < energy  _old

     new trust radius        =       0.1739908931 bohr
     new conv_thr            =       0.0000000018 Ry


ATOMIC_POSITIONS (bohr)
Au       0.566704051   1.066598660   0.120337788
Au      -0.485260206   4.224251658   4.727235478
Au       5.263048855   2.835235085  -0.972263681
Au       4.667438576   4.859373218   4.417468279
Au       4.668734724  -0.162196620   3.444279136



     Writing output data file pwscf.save
     Check: negative starting charge=   -0.006038
     NEW-OLD atomic charge density approx. for the potential
     Check: negative starting charge=   -0.006062

     negative rho (up, down):  4.346E-03 0.000E+00

     total cpu time spent up to now is       23.8 secs

     per-process dynamical memory:    50.7 Mb

     Self-consistent Calculation

     iteration #  1     ecut=    30.00 Ry     beta=0.70
     Davidson diagonalization with overlap
     ethr =  1.00E-06,  avg # of iterations = 13.0

     negative rho (up, down):  5.084E-04 0.000E+00

     total cpu time spent up to now is       24.3 secs

     total energy              =    -329.38700712 Ry
     Harris-Foulkes estimate   =    -329.40374476 Ry
     estimated scf accuracy    <       0.00967543 Ry

     iteration #  2     ecut=    30.00 Ry     beta=0.70
     Davidson diagonalization with overlap
     ethr =  1.76E-05,  avg # of iterations =  5.0

     negative rho (up, down):  3.611E-04 0.000E+00

     total cpu time spent up to now is       24.6 secs

     total energy              =    -329.38659531 Ry
     Harris-Foulkes estimate   =    -329.40816999 Ry
     estimated scf accuracy    <       0.09343126 Ry

     iteration #  3     ecut=    30.00 Ry     beta=0.70
     Davidson diagonalization with overlap
     ethr =  1.76E-05,  avg # of iterations =  4.0

     negative rho (up, down):  1.115E-04 0.000E+00

     total cpu time spent up to now is       24.9 secs

     total energy              =    -329.40223878 Ry
     Harris-Foulkes estimate   =    -329.40147103 Ry
     estimated scf accuracy    <       0.00350429 Ry

     iteration #  4     ecut=    30.00 Ry     beta=0.70
     Davidson diagonalization with overlap
     ethr =  6.37E-06,  avg # of iterations =  3.0

     negative rho (up, down):  4.474E-06 0.000E+00

     total cpu time spent up to now is       25.1 secs

     total energy              =    -329.40300028 Ry
     Harris-Foulkes estimate   =    -329.40344252 Ry
     estimated scf accuracy    <       0.00107123 Ry

     iteration #  5     ecut=    30.00 Ry     beta=0.70
     Davidson diagonalization with overlap
     ethr =  1.95E-06,  avg # of iterations =  2.0

     total cpu time spent up to now is       25.3 secs

     total energy              =    -329.40317651 Ry
     Harris-Foulkes estimate   =    -329.40325649 Ry
     estimated scf accuracy    <       0.00018206 Ry

     iteration #  6     ecut=    30.00 Ry     beta=0.70
     Davidson diagonalization with overlap
     ethr =  3.31E-07,  avg # of iterations =  2.0

     total cpu time spent up to now is       25.5 secs

     total energy              =    -329.40320595 Ry
     Harris-Foulkes estimate   =    -329.40322423 Ry
     estimated scf accuracy    <       0.00004055 Ry

     iteration #  7     ecut=    30.00 Ry     beta=0.70
     Davidson diagonalization with overlap
     ethr =  7.37E-08,  avg # of iterations =  2.0

     total cpu time spent up to now is       25.7 secs

     total energy              =    -329.40321176 Ry
     Harris-Foulkes estimate   =    -329.40321606 Ry
     estimated scf accuracy    <       0.00000646 Ry

     iteration #  8     ecut=    30.00 Ry     beta=0.70
     Davidson diagonalization with overlap
     ethr =  1.17E-08,  avg # of iterations =  2.0

     total cpu time spent up to now is       25.9 secs

     total energy              =    -329.40321236 Ry
     Harris-Foulkes estimate   =    -329.40321341 Ry
     estimated scf accuracy    <       0.00000087 Ry

     iteration #  9     ecut=    30.00 Ry     beta=0.70
     Davidson diagonalization with overlap
     ethr =  1.57E-09,  avg # of iterations =  2.0

     total cpu time spent up to now is       26.2 secs

     total energy              =    -329.40321230 Ry
     Harris-Foulkes estimate   =    -329.40321260 Ry
     estimated scf accuracy    <       0.00000017 Ry

     iteration # 10     ecut=    30.00 Ry     beta=0.70
     Davidson diagonalization with overlap
     ethr =  3.09E-10,  avg # of iterations =  2.0

     total cpu time spent up to now is       26.4 secs

     total energy              =    -329.40321213 Ry
     Harris-Foulkes estimate   =    -329.40321237 Ry
     estimated scf accuracy    <       0.00000009 Ry

     iteration # 11     ecut=    30.00 Ry     beta=0.70
     Davidson diagonalization with overlap
     ethr =  1.57E-10,  avg # of iterations =  2.0

     total cpu time spent up to now is       26.6 secs

     total energy              =    -329.40321211 Ry
     Harris-Foulkes estimate   =    -329.40321214 Ry
     estimated scf accuracy    <          9.7E-09 Ry

     iteration # 12     ecut=    30.00 Ry     beta=0.70
     Davidson diagonalization with overlap
     ethr =  1.77E-11,  avg # of iterations =  2.0

     total cpu time spent up to now is       26.8 secs

     End of self-consistent calculation

          k = 0.0000 0.0000 0.0000 ( 22119 PWs)   bands (ev):

    -8.1927  -7.4325  -7.1321  -6.9590  -6.8166  -6.7636  -6.5631  -6.4015
    -6.2243  -6.1931  -6.0951  -5.7563  -5.7091  -5.6273  -5.5604  -5.4247
    -5.4070  -5.3524  -5.2616  -5.0092  -4.9815  -4.9333  -4.9052  -4.8497
    -4.8198  -4.6180  -3.9297  -3.6583  -3.2905  -2.1313  -0.3333  -0.1350
     0.2187   0.4076

     the Fermi energy is    -3.6232 ev

!    total energy              =    -329.40321201 Ry
     Harris-Foulkes estimate   =    -329.40321212 Ry
     estimated scf accuracy    <          1.4E-09 Ry

     The total energy is the sum of the following terms:

     one-electron contribution =    -614.50667887 Ry
     hartree contribution      =     328.82475391 Ry
     xc contribution           =     -51.31876264 Ry
     ewald contribution        =       7.60371205 Ry
     smearing contrib. (-TS)   =      -0.00623646 Ry

     convergence has been achieved in  12 iterations

     Forces acting on atoms (Ry/au):

     atom    1 type  1   force =    -0.00065085    0.01247033    0.01527627
     atom    2 type  1   force =     0.01557732   -0.00757320   -0.01214960
     atom    3 type  1   force =     0.00074187   -0.01153333    0.00771908
     atom    4 type  1   force =    -0.01723681    0.00117836    0.00401684
     atom    5 type  1   force =     0.00156846    0.00545785   -0.01486258

     Total force =     0.039973     Total SCF correction =     0.000175

     number of scf cycles    =   8
     number of bfgs steps    =   7

     energy   old            =    -329.4000543447 Ry
     energy   new            =    -329.4032120053 Ry

     CASE: energy  _new < energy  _old

     new trust radius        =       0.1470147643 bohr
     new conv_thr            =       0.0000000017 Ry


ATOMIC_POSITIONS (bohr)
Au       0.531453592   1.061915866   0.083486941
Au      -0.483466911   4.258812542   4.788921613
Au       5.305186347   2.737735479  -0.870619205
Au       4.612162680   4.889668625   4.415083644
Au       4.715330292  -0.124870512   3.320184007



     Writing output data file pwscf.save
     Check: negative starting charge=   -0.006062
     NEW-OLD atomic charge density approx. for the potential
     Check: negative starting charge=   -0.006101

     negative rho (up, down):  2.866E-03 0.000E+00

     total cpu time spent up to now is       27.0 secs

     per-process dynamical memory:    50.7 Mb

     Self-consistent Calculation

     iteration #  1     ecut=    30.00 Ry     beta=0.70
     Davidson diagonalization with overlap
     ethr =  1.00E-06,  avg # of iterations =  9.0

     negative rho (up, down):  3.090E-04 0.000E+00

     total cpu time spent up to now is       27.5 secs

     total energy              =    -329.40212501 Ry
     Harris-Foulkes estimate   =    -329.40349563 Ry
     estimated scf accuracy    <       0.00518002 Ry

     iteration #  2     ecut=    30.00 Ry     beta=0.70
     Davidson diagonalization with overlap
     ethr =  9.42E-06,  avg # of iterations =  4.0

     negative rho (up, down):  2.021E-04 0.000E+00

     total cpu time spent up to now is       27.8 secs

     total energy              =    -329.39901854 Ry
     Harris-Foulkes estimate   =    -329.40967155 Ry
     estimated scf accuracy    <       0.03666918 Ry

     iteration #  3     ecut=    30.00 Ry     beta=0.70
     Davidson diagonalization with overlap
     ethr =  9.42E-06,  avg # of iterations =  4.0

     negative rho (up, down):  5.194E-05 0.000E+00

     total cpu time spent up to now is       28.1 secs

     total energy              =    -329.40436388 Ry
     Harris-Foulkes estimate   =    -329.40497613 Ry
     estimated scf accuracy    <       0.00201521 Ry

     iteration #  4     ecut=    30.00 Ry     beta=0.70
     Davidson diagonalization with overlap
     ethr =  3.66E-06,  avg # of iterations =  3.0

     negative rho (up, down):  7.467E-07 0.000E+00

     total cpu time spent up to now is       28.3 secs

     total energy              =    -329.40466563 Ry
     Harris-Foulkes estimate   =    -329.40492186 Ry
     estimated scf accuracy    <       0.00079035 Ry

     iteration #  5     ecut=    30.00 Ry     beta=0.70
     Davidson diagonalization with overlap
     ethr =  1.44E-06,  avg # of iterations =  2.0

     total cpu time spent up to now is       28.5 secs

     total energy              =    -329.40479281 Ry
     Harris-Foulkes estimate   =    -329.40481812 Ry
     estimated scf accuracy    <       0.00005533 Ry

     iteration #  6     ecut=    30.00 Ry     beta=0.70
     Davidson diagonalization with overlap
     ethr =  1.01E-07,  avg # of iterations =  2.0

     total cpu time spent up to now is       28.7 secs

     total energy              =    -329.40480352 Ry
     Harris-Foulkes estimate   =    -329.40481191 Ry
     estimated scf accuracy    <       0.00001717 Ry

     iteration #  7     ecut=    30.00 Ry     beta=0.70
     Davidson diagonalization with overlap
     ethr =  3.12E-08,  avg # of iterations =  2.0

     total cpu time spent up to now is       28.9 secs

     total energy              =    -329.40480610 Ry
     Harris-Foulkes estimate   =    -329.40480825 Ry
     estimated scf accuracy    <       0.00000389 Ry

     iteration #  8     ecut=    30.00 Ry     beta=0.70
     Davidson diagonalization with overlap
     ethr =  7.08E-09,  avg # of iterations =  2.0

     total cpu time spent up to now is       29.1 secs

     total energy              =    -329.40480644 Ry
     Harris-Foulkes estimate   =    -329.40480691 Ry
     estimated scf accuracy    <       0.00000029 Ry

     iteration #  9     ecut=    30.00 Ry     beta=0.70
     Davidson diagonalization with overlap
     ethr =  5.36E-10,  avg # of iterations =  3.0

     total cpu time spent up to now is       29.4 secs

     total energy              =    -329.40480633 Ry
     Harris-Foulkes estimate   =    -329.40480654 Ry
     estimated scf accuracy    <       0.00000006 Ry

     iteration # 10     ecut=    30.00 Ry     beta=0.70
     Davidson diagonalization with overlap
     ethr =  1.12E-10,  avg # of iterations =  2.0

     total cpu time spent up to now is       29.6 secs

     total energy              =    -329.40480628 Ry
     Harris-Foulkes estimate   =    -329.40480635 Ry
     estimated scf accuracy    <       0.00000002 Ry

     iteration # 11     ecut=    30.00 Ry     beta=0.70
     Davidson diagonalization with overlap
     ethr =  4.49E-11,  avg # of iterations =  2.0

     total cpu time spent up to now is       29.8 secs

     total energy              =    -329.40480624 Ry
     Harris-Foulkes estimate   =    -329.40480628 Ry
     estimated scf accuracy    <          3.3E-09 Ry

     iteration # 12     ecut=    30.00 Ry     beta=0.70
     Davidson diagonalization with overlap
     ethr =  6.07E-12,  avg # of iterations =  2.0

     total cpu time spent up to now is       30.0 secs

     End of self-consistent calculation

          k = 0.0000 0.0000 0.0000 ( 22119 PWs)   bands (ev):

    -8.3347  -7.5177  -7.2660  -6.9968  -6.8443  -6.8001  -6.6367  -6.3962
    -6.2820  -6.1722  -6.0697  -5.7437  -5.6842  -5.5996  -5.5804  -5.4340
    -5.3892  -5.3405  -5.2601  -4.9785  -4.9308  -4.8951  -4.8651  -4.8144
    -4.7937  -4.5915  -3.9427  -3.6422  -3.2195  -2.1401  -0.3321  -0.1575
     0.2449   0.4404

     the Fermi energy is    -3.6122 ev

!    total energy              =    -329.40480621 Ry
     Harris-Foulkes estimate   =    -329.40480624 Ry
     estimated scf accuracy    <          8.6E-10 Ry

     The total energy is the sum of the following terms:

     one-electron contribution =    -617.30448537 Ry
     hartree contribution      =     330.22153250 Ry
     xc contribution           =     -51.34159385 Ry
     ewald contribution        =       9.02394920 Ry
     smearing contrib. (-TS)   =      -0.00420870 Ry

     convergence has been achieved in  12 iterations

     Forces acting on atoms (Ry/au):

     atom    1 type  1   force =    -0.00204399    0.01173196    0.01683450
     atom    2 type  1   force =     0.01369176   -0.00901598   -0.01492490
     atom    3 type  1   force =     0.00425069   -0.00272392   -0.00668162
     atom    4 type  1   force =    -0.01612699    0.00442425    0.00656264
     atom    5 type  1   force =     0.00022853   -0.00441632   -0.00179062

     Total force =     0.036501     Total SCF correction =     0.000147

     number of scf cycles    =   9
     number of bfgs steps    =   8

     energy   old            =    -329.4032120053 Ry
     energy   new            =    -329.4048062068 Ry

     CASE: energy  _new < energy  _old

     new trust radius        =       0.0717998433 bohr
     new conv_thr            =       0.0000000016 Ry


ATOMIC_POSITIONS (bohr)
Au       0.548525431   1.094329284   0.132503589
Au      -0.450166072   4.226512900   4.734121935
Au       5.286644748   2.753005345  -0.896773481
Au       4.596402343   4.880317732   4.423996254
Au       4.699259550  -0.130903261   3.343208703



     Writing output data file pwscf.save
     Check: negative starting charge=   -0.006101
     NEW-OLD atomic charge density approx. for the potential
     Check: negative starting charge=   -0.006097

     negative rho (up, down):  8.859E-04 0.000E+00

     total cpu time spent up to now is       30.2 secs

     per-process dynamical memory:    50.7 Mb

     Self-consistent Calculation

     iteration #  1     ecut=    30.00 Ry     beta=0.70
     Davidson diagonalization with overlap
     ethr =  1.00E-06,  avg # of iterations =  6.0

     negative rho (up, down):  5.651E-05 0.000E+00

     total cpu time spent up to now is       30.6 secs

     total energy              =    -329.40659749 Ry
     Harris-Foulkes estimate   =    -329.40660737 Ry
     estimated scf accuracy    <       0.00134532 Ry

     iteration #  2     ecut=    30.00 Ry     beta=0.70
     Davidson diagonalization with overlap
     ethr =  2.45E-06,  avg # of iterations =  6.0

     negative rho (up, down):  3.220E-05 0.000E+00

     total cpu time spent up to now is       30.9 secs

     total energy              =    -329.40580685 Ry
     Harris-Foulkes estimate   =    -329.40886251 Ry
     estimated scf accuracy    <       0.01050730 Ry

     iteration #  3     ecut=    30.00 Ry     beta=0.70
     Davidson diagonalization with overlap
     ethr =  2.45E-06,  avg # of iterations =  4.0

     negative rho (up, down):  3.878E-06 0.000E+00

     total cpu time spent up to now is       31.1 secs

     total energy              =    -329.40724202 Ry
     Harris-Foulkes estimate   =    -329.40735845 Ry
     estimated scf accuracy    <       0.00031657 Ry

     iteration #  4     ecut=    30.00 Ry     beta=0.70
     Davidson diagonalization with overlap
     ethr =  5.76E-07,  avg # of iterations =  2.0

     negative rho (up, down):  1.107E-08 0.000E+00

     total cpu time spent up to now is       31.4 secs

     total energy              =    -329.40729511 Ry
     Harris-Foulkes estimate   =    -329.40734334 Ry
     estimated scf accuracy    <       0.00014834 Ry

     iteration #  5     ecut=    30.00 Ry     beta=0.70
     Davidson diagonalization with overlap
     ethr =  2.70E-07,  avg # of iterations =  2.0

     total cpu time spent up to now is       31.5 secs

     total energy              =    -329.40732204 Ry
     Harris-Foulkes estimate   =    -329.40733029 Ry
     estimated scf accuracy    <       0.00002959 Ry

     iteration #  6     ecut=    30.00 Ry     beta=0.70
     Davidson diagonalization with overlap
     ethr =  5.38E-08,  avg # of iterations =  2.0

     total cpu time spent up to now is       31.7 secs

     total energy              =    -329.40732804 Ry
     Harris-Foulkes estimate   =    -329.40732852 Ry
     estimated scf accuracy    <       0.00000253 Ry

     iteration #  7     ecut=    30.00 Ry     beta=0.70
     Davidson diagonalization with overlap
     ethr =  4.60E-09,  avg # of iterations =  2.0

     total cpu time spent up to now is       32.0 secs

     total energy              =    -329.40732909 Ry
     Harris-Foulkes estimate   =    -329.40732881 Ry
     estimated scf accuracy    <       0.00000049 Ry

     iteration #  8     ecut=    30.00 Ry     beta=0.70
     Davidson diagonalization with overlap
     ethr =  8.85E-10,  avg # of iterations =  2.0

     total cpu time spent up to now is       32.2 secs

     total energy              =    -329.40732932 Ry
     Harris-Foulkes estimate   =    -329.40732924 Ry
     estimated scf accuracy    <       0.00000013 Ry

     iteration #  9     ecut=    30.00 Ry     beta=0.70
     Davidson diagonalization with overlap
     ethr =  2.44E-10,  avg # of iterations =  2.0

     total cpu time spent up to now is       32.4 secs

     total energy              =    -329.40732929 Ry
     Harris-Foulkes estimate   =    -329.40732935 Ry
     estimated scf accuracy    <          6.8E-09 Ry

     iteration # 10     ecut=    30.00 Ry     beta=0.70
     Davidson diagonalization with overlap
     ethr =  1.23E-11,  avg # of iterations =  3.0

     total cpu time spent up to now is       32.6 secs

     total energy              =    -329.40732929 Ry
     Harris-Foulkes estimate   =    -329.40732929 Ry
     estimated scf accuracy    <          1.8E-09 Ry

     iteration # 11     ecut=    30.00 Ry     beta=0.70
     Davidson diagonalization with overlap
     ethr =  3.30E-12,  avg # of iterations =  2.0

     total cpu time spent up to now is       32.8 secs

     End of self-consistent calculation

          k = 0.0000 0.0000 0.0000 ( 22119 PWs)   bands (ev):

    -8.3334  -7.5025  -7.2674  -7.0320  -6.8833  -6.8085  -6.6376  -6.4469
    -6.2892  -6.2340  -6.0972  -5.7823  -5.7258  -5.6077  -5.5807  -5.4409
    -5.3935  -5.3472  -5.2597  -4.9939  -4.9453  -4.9038  -4.8841  -4.8085
    -4.7933  -4.5787  -3.9332  -3.6286  -3.2232  -2.0974  -0.3298  -0.1570
     0.2414   0.4364

     the Fermi energy is    -3.6009 ev

!    total energy              =    -329.40732927 Ry
     Harris-Foulkes estimate   =    -329.40732929 Ry
     estimated scf accuracy    <          6.2E-10 Ry

     The total energy is the sum of the following terms:

     one-electron contribution =    -621.09216024 Ry
     hartree contribution      =     332.09564619 Ry
     xc contribution           =     -51.34896378 Ry
     ewald contribution        =      10.94246959 Ry
     smearing contrib. (-TS)   =      -0.00432103 Ry

     convergence has been achieved in  11 iterations

     Forces acting on atoms (Ry/au):

     atom    1 type  1   force =    -0.00505717    0.00983358    0.01459095
     atom    2 type  1   force =     0.00702164   -0.00792010   -0.01089544
     atom    3 type  1   force =     0.00587625   -0.00411365   -0.00416076
     atom    4 type  1   force =    -0.01091085    0.00538944    0.00567740
     atom    5 type  1   force =     0.00307013   -0.00318927   -0.00521215

     Total force =     0.029356     Total SCF correction =     0.000087

     number of scf cycles    =  10
     number of bfgs steps    =   9

     energy   old            =    -329.4048062068 Ry
     energy   new            =    -329.4073292685 Ry

     CASE: energy  _new < energy  _old

     new trust radius        =       0.0789798276 bohr
     new conv_thr            =       0.0000000015 Ry


ATOMIC_POSITIONS (bohr)
Au       0.554834406   1.139775347   0.192096050
Au      -0.407660735   4.190935036   4.677860713
Au       5.280405986   2.740291708  -0.901978584
Au       4.556400964   4.882123318   4.437969516
Au       4.696685379  -0.129863410   3.331109305



     Writing output data file pwscf.save
     Check: negative starting charge=   -0.006097
     NEW-OLD atomic charge density approx. for the potential
     Check: negative starting charge=   -0.006094

     negative rho (up, down):  1.121E-03 0.000E+00

     total cpu time spent up to now is       33.0 secs

     per-process dynamical memory:    50.7 Mb

     Self-consistent Calculation

     iteration #  1     ecut=    30.00 Ry     beta=0.70
     Davidson diagonalization with overlap
     ethr =  1.00E-06,  avg # of iterations =  6.0

     negative rho (up, down):  8.355E-05 0.000E+00

     total cpu time spent up to now is       33.4 secs

     total energy              =    -329.40890214 Ry
     Harris-Foulkes estimate   =    -329.40862225 Ry
     estimated scf accuracy    <       0.00140535 Ry

     iteration #  2     ecut=    30.00 Ry     beta=0.70
     Davidson diagonalization with overlap
     ethr =  2.56E-06,  avg # of iterations =  6.0

     negative rho (up, down):  4.733E-05 0.000E+00

     total cpu time spent up to now is       33.7 secs

     total energy              =    -329.40822585 Ry
     Harris-Foulkes estimate   =    -329.41088900 Ry
     estimated scf accuracy    <       0.00857457 Ry

     iteration #  3     ecut=    30.00 Ry     beta=0.70
     Davidson diagonalization with overlap
     ethr =  2.56E-06,  avg # of iterations =  4.0

     negative rho (up, down):  6.795E-06 0.000E+00

     total cpu time spent up to now is       34.0 secs

     total energy              =    -329.40948260 Ry
     Harris-Foulkes estimate   =    -329.40965409 Ry
     estimated scf accuracy    <       0.00050908 Ry

     iteration #  4     ecut=    30.00 Ry     beta=0.70
     Davidson diagonalization with overlap
     ethr =  9.26E-07,  avg # of iterations =  2.0

     negative rho (up, down):  1.349E-08 0.000E+00

     total cpu time spent up to now is       34.2 secs

     total energy              =    -329.40955926 Ry
     Harris-Foulkes estimate   =    -329.40961492 Ry
     estimated scf accuracy    <       0.00015623 Ry

     iteration #  5     ecut=    30.00 Ry     beta=0.70
     Davidson diagonalization with overlap
     ethr =  2.84E-07,  avg # of iterations =  2.0

     total cpu time spent up to now is       34.4 secs

     total energy              =    -329.40958739 Ry
     Harris-Foulkes estimate   =    -329.40960018 Ry
     estimated scf accuracy    <       0.00004168 Ry

     iteration #  6     ecut=    30.00 Ry     beta=0.70
     Davidson diagonalization with overlap
     ethr =  7.58E-08,  avg # of iterations =  2.0

     total cpu time spent up to now is       34.6 secs

     total energy              =    -329.40959600 Ry
[...]

     negative rho (up, down):  1.808E-05 0.000E+00

     total cpu time spent up to now is      142.6 secs

     total energy              =    -329.49197668 Ry
     Harris-Foulkes estimate   =    -329.49249821 Ry
     estimated scf accuracy    <       0.00122700 Ry

     iteration #  3     ecut=    30.00 Ry     beta=0.70
     Davidson diagonalization with overlap
     ethr =  1.16E-06,  avg # of iterations =  3.0

     negative rho (up, down):  9.925E-07 0.000E+00

     total cpu time spent up to now is      142.9 secs

     total energy              =    -329.49223579 Ry
     Harris-Foulkes estimate   =    -329.49230406 Ry
     estimated scf accuracy    <       0.00020962 Ry

     iteration #  4     ecut=    30.00 Ry     beta=0.70
     Davidson diagonalization with overlap
     ethr =  3.81E-07,  avg # of iterations =  2.0

     total cpu time spent up to now is      143.1 secs

     total energy              =    -329.49227501 Ry
     Harris-Foulkes estimate   =    -329.49228297 Ry
     estimated scf accuracy    <       0.00002300 Ry

     iteration #  5     ecut=    30.00 Ry     beta=0.70
     Davidson diagonalization with overlap
     ethr =  4.18E-08,  avg # of iterations =  3.0

     total cpu time spent up to now is      143.3 secs

     total energy              =    -329.49227831 Ry
     Harris-Foulkes estimate   =    -329.49228447 Ry
     estimated scf accuracy    <       0.00001482 Ry

     iteration #  6     ecut=    30.00 Ry     beta=0.70
     Davidson diagonalization with overlap
     ethr =  2.69E-08,  avg # of iterations =  2.0

     total cpu time spent up to now is      143.5 secs

     total energy              =    -329.49228032 Ry
     Harris-Foulkes estimate   =    -329.49228086 Ry
     estimated scf accuracy    <       0.00000034 Ry

     iteration #  7     ecut=    30.00 Ry     beta=0.70
     Davidson diagonalization with overlap
     ethr =  6.20E-10,  avg # of iterations =  3.0

     total cpu time spent up to now is      143.7 secs

     total energy              =    -329.49228025 Ry
     Harris-Foulkes estimate   =    -329.49228050 Ry
     estimated scf accuracy    <       0.00000015 Ry

     iteration #  8     ecut=    30.00 Ry     beta=0.70
     Davidson diagonalization with overlap
     ethr =  2.73E-10,  avg # of iterations =  2.0

     total cpu time spent up to now is      143.9 secs

     total energy              =    -329.49228014 Ry
     Harris-Foulkes estimate   =    -329.49228029 Ry
     estimated scf accuracy    <       0.00000003 Ry

     iteration #  9     ecut=    30.00 Ry     beta=0.70
     Davidson diagonalization with overlap
     ethr =  4.57E-11,  avg # of iterations =  2.0

     total cpu time spent up to now is      144.2 secs

     total energy              =    -329.49228011 Ry
     Harris-Foulkes estimate   =    -329.49228015 Ry
     estimated scf accuracy    <          3.8E-09 Ry

     iteration # 10     ecut=    30.00 Ry     beta=0.70
     Davidson diagonalization with overlap
     ethr =  6.98E-12,  avg # of iterations =  2.0

     total cpu time spent up to now is      144.4 secs

     End of self-consistent calculation

          k = 0.0000 0.0000 0.0000 ( 22119 PWs)   bands (ev):

    -8.5155  -7.7734  -7.6554  -7.2367  -6.9383  -6.8252  -6.5955  -6.4735
    -6.3167  -6.0612  -5.9666  -5.7659  -5.7291  -5.6711  -5.4104  -5.3808
    -5.3180  -5.2274  -5.1951  -5.1890  -5.1681  -5.1262  -4.9774  -4.9240
    -4.8903  -4.6603  -4.4815  -3.7565  -2.3861  -2.2210  -0.5291  -0.2336
     0.3963   0.7691

     the Fermi energy is    -3.7221 ev

!    total energy              =    -329.49228009 Ry
     Harris-Foulkes estimate   =    -329.49228012 Ry
     estimated scf accuracy    <          5.0E-10 Ry

     The total energy is the sum of the following terms:

     one-electron contribution =    -605.15534872 Ry
     hartree contribution      =     324.01459045 Ry
     xc contribution           =     -51.40320991 Ry
     ewald contribution        =       3.05642156 Ry
     smearing contrib. (-TS)   =      -0.00473347 Ry

     convergence has been achieved in  10 iterations

     Forces acting on atoms (Ry/au):

     atom    1 type  1   force =     0.00078730   -0.00331064   -0.00204155
     atom    2 type  1   force =    -0.00389315    0.00379608    0.00215410
     atom    3 type  1   force =     0.00303195   -0.00038176   -0.00025558
     atom    4 type  1   force =     0.00237659   -0.00066133    0.00298614
     atom    5 type  1   force =    -0.00230269    0.00055765   -0.00284310

     Total force =     0.009384     Total SCF correction =     0.000094

     number of scf cycles    =  48
     number of bfgs steps    =  46

     energy   old            =    -329.4917869679 Ry
     energy   new            =    -329.4922800894 Ry

     CASE: energy  _new < energy  _old

     new trust radius        =       0.0134589456 bohr
     new conv_thr            =       0.0000000004 Ry


ATOMIC_POSITIONS (bohr)
Au       1.586507932   3.035123334   0.863484865
Au      -1.438549840   4.937536865   4.420358424
Au       4.883623142   0.759640097  -2.186333021
Au       3.202996103   3.260209417   5.910454029
Au       6.446088663   0.830752287   2.729092704



     Writing output data file pwscf.save
     Check: negative starting charge=   -0.006227
     NEW-OLD atomic charge density approx. for the potential
     Check: negative starting charge=   -0.006226

     negative rho (up, down):  3.900E-05 0.000E+00

     total cpu time spent up to now is      144.6 secs

     per-process dynamical memory:    50.7 Mb

     Self-consistent Calculation

     iteration #  1     ecut=    30.00 Ry     beta=0.70
     Davidson diagonalization with overlap
     ethr =  1.00E-06,  avg # of iterations =  4.0

     Threshold (ethr) on eigenvalues was too large:
     Diagonalizing with lowered threshold

     Davidson diagonalization with overlap
     ethr =  7.65E-08,  avg # of iterations =  1.0

     negative rho (up, down):  1.384E-07 0.000E+00

     total cpu time spent up to now is      145.1 secs

     total energy              =    -329.49238463 Ry
     Harris-Foulkes estimate   =    -329.49238383 Ry
     estimated scf accuracy    <       0.00004252 Ry

     iteration #  2     ecut=    30.00 Ry     beta=0.70
     Davidson diagonalization with overlap
     ethr =  7.73E-08,  avg # of iterations =  3.0

     total cpu time spent up to now is      145.3 secs

     total energy              =    -329.49238154 Ry
     Harris-Foulkes estimate   =    -329.49241259 Ry
     estimated scf accuracy    <       0.00007281 Ry

     iteration #  3     ecut=    30.00 Ry     beta=0.70
     Davidson diagonalization with overlap
     ethr =  7.73E-08,  avg # of iterations =  2.0

     total cpu time spent up to now is      145.5 secs

     total energy              =    -329.49239868 Ry
     Harris-Foulkes estimate   =    -329.49240274 Ry
     estimated scf accuracy    <       0.00001653 Ry

     iteration #  4     ecut=    30.00 Ry     beta=0.70
     Davidson diagonalization with overlap
     ethr =  3.01E-08,  avg # of iterations =  2.0

     total cpu time spent up to now is      145.7 secs

     total energy              =    -329.49240270 Ry
     Harris-Foulkes estimate   =    -329.49240238 Ry
     estimated scf accuracy    <       0.00000174 Ry

     iteration #  5     ecut=    30.00 Ry     beta=0.70
     Davidson diagonalization with overlap
     ethr =  3.16E-09,  avg # of iterations =  2.0

     total cpu time spent up to now is      145.9 secs

     total energy              =    -329.49240319 Ry
     Harris-Foulkes estimate   =    -329.49240324 Ry
     estimated scf accuracy    <       0.00000045 Ry

     iteration #  6     ecut=    30.00 Ry     beta=0.70
     Davidson diagonalization with overlap
     ethr =  8.10E-10,  avg # of iterations =  2.0

     total cpu time spent up to now is      146.1 secs

     total energy              =    -329.49240357 Ry
     Harris-Foulkes estimate   =    -329.49240330 Ry
     estimated scf accuracy    <       0.00000005 Ry

     iteration #  7     ecut=    30.00 Ry     beta=0.70
     Davidson diagonalization with overlap
     ethr =  8.58E-11,  avg # of iterations =  2.0

     total cpu time spent up to now is      146.4 secs

     total energy              =    -329.49240367 Ry
     Harris-Foulkes estimate   =    -329.49240358 Ry
     estimated scf accuracy    <          8.7E-09 Ry

     iteration #  8     ecut=    30.00 Ry     beta=0.70
     Davidson diagonalization with overlap
     ethr =  1.58E-11,  avg # of iterations =  2.0

     total cpu time spent up to now is      146.6 secs

     total energy              =    -329.49240372 Ry
     Harris-Foulkes estimate   =    -329.49240367 Ry
     estimated scf accuracy    <          1.0E-09 Ry

     iteration #  9     ecut=    30.00 Ry     beta=0.70
     Davidson diagonalization with overlap
     ethr =  1.81E-12,  avg # of iterations =  3.0

     total cpu time spent up to now is      146.8 secs

     total energy              =    -329.49240371 Ry
     Harris-Foulkes estimate   =    -329.49240372 Ry
     estimated scf accuracy    <          5.1E-10 Ry

     iteration # 10     ecut=    30.00 Ry     beta=0.70
     Davidson diagonalization with overlap
     ethr =  9.19E-13,  avg # of iterations =  2.0

     total cpu time spent up to now is      147.0 secs

     End of self-consistent calculation

          k = 0.0000 0.0000 0.0000 ( 22119 PWs)   bands (ev):

    -8.4975  -7.7632  -7.6500  -7.2329  -6.9378  -6.8129  -6.5956  -6.4704
    -6.3156  -6.0552  -5.9662  -5.7623  -5.7262  -5.6694  -5.4092  -5.3803
    -5.3187  -5.2275  -5.1963  -5.1898  -5.1664  -5.1279  -4.9810  -4.9242
    -4.8903  -4.6657  -4.4820  -3.7570  -2.3939  -2.2223  -0.5278  -0.2342
     0.3919   0.7667

     the Fermi energy is    -3.7225 ev

!    total energy              =    -329.49240372 Ry
     Harris-Foulkes estimate   =    -329.49240371 Ry
     estimated scf accuracy    <          2.6E-11 Ry

     The total energy is the sum of the following terms:

     one-electron contribution =    -604.58180780 Ry
     hartree contribution      =     323.73029966 Ry
     xc contribution           =     -51.40074831 Ry
     ewald contribution        =       2.76462061 Ry
     smearing contrib. (-TS)   =      -0.00476788 Ry

     convergence has been achieved in  10 iterations

     Forces acting on atoms (Ry/au):

     atom    1 type  1   force =     0.00186014   -0.00356973   -0.00207406
     atom    2 type  1   force =    -0.00185934    0.00302194    0.00231731
     atom    3 type  1   force =     0.00179718    0.00013750   -0.00052658
     atom    4 type  1   force =     0.00060492   -0.00011597    0.00194528
     atom    5 type  1   force =    -0.00240289    0.00052626   -0.00166196

     Total force =     0.007414     Total SCF correction =     0.000025

     number of scf cycles    =  49
     number of bfgs steps    =  47

     energy   old            =    -329.4922800894 Ry
     energy   new            =    -329.4924037231 Ry

     CASE: energy  _new < energy  _old

     new trust radius        =       0.0179906890 bohr
     new conv_thr            =       0.0000000001 Ry


ATOMIC_POSITIONS (bohr)
Au       1.578491914   3.024273694   0.859835404
Au      -1.443157880   4.942166390   4.422529104
Au       4.896432197   0.757966635  -2.180770410
Au       3.214460594   3.260664531   5.917886427
Au       6.434439174   0.838190751   2.717576475



     Writing output data file pwscf.save
     Check: negative starting charge=   -0.006226
     NEW-OLD atomic charge density approx. for the potential
     Check: negative starting charge=   -0.006218

     negative rho (up, down):  6.011E-05 0.000E+00

     total cpu time spent up to now is      147.2 secs

     per-process dynamical memory:    50.7 Mb

     Self-consistent Calculation

     iteration #  1     ecut=    30.00 Ry     beta=0.70
     Davidson diagonalization with overlap
     ethr =  1.00E-06,  avg # of iterations =  4.0

     negative rho (up, down):  3.026E-07 0.000E+00

     total cpu time spent up to now is      147.6 secs

     total energy              =    -329.49247741 Ry
     Harris-Foulkes estimate   =    -329.49248877 Ry
     estimated scf accuracy    <       0.00006530 Ry

     iteration #  2     ecut=    30.00 Ry     beta=0.70
     Davidson diagonalization with overlap
     ethr =  1.19E-07,  avg # of iterations =  3.0

     negative rho (up, down):  2.354E-08 0.000E+00

     total cpu time spent up to now is      147.8 secs

     total energy              =    -329.49247382 Ry
     Harris-Foulkes estimate   =    -329.49252343 Ry
     estimated scf accuracy    <       0.00011429 Ry

     iteration #  3     ecut=    30.00 Ry     beta=0.70
     Davidson diagonalization with overlap
     ethr =  1.19E-07,  avg # of iterations =  2.0

     total cpu time spent up to now is      148.0 secs

     total energy              =    -329.49249835 Ry
     Harris-Foulkes estimate   =    -329.49250636 Ry
     estimated scf accuracy    <       0.00002613 Ry

     iteration #  4     ecut=    30.00 Ry     beta=0.70
     Davidson diagonalization with overlap
     ethr =  4.75E-08,  avg # of iterations =  2.0

     total cpu time spent up to now is      148.2 secs

     total energy              =    -329.49250433 Ry
     Harris-Foulkes estimate   =    -329.49250399 Ry
     estimated scf accuracy    <       0.00000195 Ry

     iteration #  5     ecut=    30.00 Ry     beta=0.70
     Davidson diagonalization with overlap
     ethr =  3.55E-09,  avg # of iterations =  3.0

     total cpu time spent up to now is      148.5 secs

     total energy              =    -329.49250466 Ry
     Harris-Foulkes estimate   =    -329.49250493 Ry
     estimated scf accuracy    <       0.00000053 Ry

     iteration #  6     ecut=    30.00 Ry     beta=0.70
     Davidson diagonalization with overlap
     ethr =  9.56E-10,  avg # of iterations =  2.0

     total cpu time spent up to now is      148.7 secs

     total energy              =    -329.49250473 Ry
     Harris-Foulkes estimate   =    -329.49250478 Ry
     estimated scf accuracy    <       0.00000005 Ry

     iteration #  7     ecut=    30.00 Ry     beta=0.70
     Davidson diagonalization with overlap
     ethr =  9.83E-11,  avg # of iterations =  2.0

     total cpu time spent up to now is      148.9 secs

     total energy              =    -329.49250481 Ry
     Harris-Foulkes estimate   =    -329.49250475 Ry
     estimated scf accuracy    <       0.00000001 Ry

     iteration #  8     ecut=    30.00 Ry     beta=0.70
     Davidson diagonalization with overlap
     ethr =  1.82E-11,  avg # of iterations =  2.0

     total cpu time spent up to now is      149.1 secs

     total energy              =    -329.49250488 Ry
     Harris-Foulkes estimate   =    -329.49250481 Ry
     estimated scf accuracy    <          3.0E-09 Ry

     iteration #  9     ecut=    30.00 Ry     beta=0.70
     Davidson diagonalization with overlap
     ethr =  5.44E-12,  avg # of iterations =  2.0

     total cpu time spent up to now is      149.3 secs

     total energy              =    -329.49250489 Ry
     Harris-Foulkes estimate   =    -329.49250488 Ry
     estimated scf accuracy    <          6.8E-10 Ry

     iteration # 10     ecut=    30.00 Ry     beta=0.70
     Davidson diagonalization with overlap
     ethr =  1.23E-12,  avg # of iterations =  2.0

     total cpu time spent up to now is      149.5 secs

     End of self-consistent calculation

          k = 0.0000 0.0000 0.0000 ( 22119 PWs)   bands (ev):

    -8.4842  -7.7612  -7.6509  -7.2380  -6.9379  -6.8033  -6.6030  -6.4711
    -6.3204  -6.0500  -5.9687  -5.7589  -5.7231  -5.6700  -5.4106  -5.3791
    -5.3195  -5.2264  -5.1985  -5.1908  -5.1624  -5.1299  -4.9848  -4.9206
    -4.8859  -4.6750  -4.4780  -3.7568  -2.3998  -2.2192  -0.5279  -0.2342
     0.3889   0.7657

     the Fermi energy is    -3.7225 ev

!    total energy              =    -329.49250489 Ry
     Harris-Foulkes estimate   =    -329.49250489 Ry
     estimated scf accuracy    <          7.3E-11 Ry

     The total energy is the sum of the following terms:

     one-electron contribution =    -604.45716628 Ry
     hartree contribution      =     323.66845606 Ry
     xc contribution           =     -51.40019109 Ry
     ewald contribution        =       2.70113299 Ry
     smearing contrib. (-TS)   =      -0.00473658 Ry

     convergence has been achieved in  10 iterations

     Forces acting on atoms (Ry/au):

     atom    1 type  1   force =     0.00150656   -0.00264044   -0.00061330
     atom    2 type  1   force =    -0.00000232    0.00189063    0.00173507
     atom    3 type  1   force =     0.00114458    0.00006928   -0.00234324
     atom    4 type  1   force =    -0.00113961    0.00059911    0.00131992
     atom    5 type  1   force =    -0.00150921    0.00008142   -0.00009846

     Total force =     0.005357     Total SCF correction =     0.000045

     number of scf cycles    =  50
     number of bfgs steps    =  48

     energy   old            =    -329.4924037231 Ry
     energy   new            =    -329.4925048900 Ry

     CASE: energy  _new < energy  _old

     new trust radius        =       0.0156422154 bohr
     new conv_thr            =       0.0000000001 Ry


ATOMIC_POSITIONS (bohr)
Au       1.577924945   3.015400699   0.854701666
Au      -1.439955587   4.948086980   4.424053832
Au       4.901919700   0.753428903  -2.183850530
Au       3.216258598   3.257084780   5.929445225
Au       6.424518344   0.849260638   2.712706807



     Writing output data file pwscf.save
     Check: negative starting charge=   -0.006218
     NEW-OLD atomic charge density approx. for the potential
     Check: negative starting charge=   -0.006209

     negative rho (up, down):  3.010E-05 0.000E+00

     Writing output data file pwscf.save
 
     init_run     :      0.16s CPU      0.19s WALL (       1 calls)
     electrons    :    131.26s CPU    140.43s WALL (      50 calls)
     update_pot   :      3.31s CPU      3.98s WALL (      50 calls)
     forces       :      2.06s CPU      2.10s WALL (      50 calls)

     Called by init_run:
     wfcinit      :      0.07s CPU      0.08s WALL (       1 calls)
     potinit      :      0.03s CPU      0.03s WALL (       1 calls)

     Called by electrons:
     c_bands      :    101.14s CPU    102.26s WALL (     574 calls)
     sum_band     :     13.33s CPU     13.70s WALL (     574 calls)
     v_of_rho     :     11.21s CPU     11.39s WALL (     623 calls)
     mix_rho      :      4.92s CPU     10.42s WALL (     574 calls)

     Called by c_bands:
     init_us_2    :      1.79s CPU      1.87s WALL (    1149 calls)
     cegterg      :     90.75s CPU     91.41s WALL (     574 calls)

     Called by sum_band:

     Called by *egterg:
     h_psi        :     69.13s CPU     69.61s WALL (    2362 calls)
     g_psi        :      0.70s CPU      0.70s WALL (    1787 calls)
     cdiaghg      :      5.75s CPU      5.77s WALL (    2310 calls)

     Called by h_psi:
     h_psi:pot    :     68.03s CPU     68.51s WALL (    2362 calls)
     h_psi:calbec :      3.92s CPU      3.93s WALL (    2362 calls)
     vloc_psi     :     59.68s CPU     60.13s WALL (    2362 calls)
     add_vuspsi   :      4.42s CPU      4.43s WALL (    2362 calls)

     General routines
     calbec       :      4.52s CPU      4.56s WALL (    2562 calls)
     fft          :      6.08s CPU      6.24s WALL (    6957 calls)
     fftw         :     62.17s CPU     63.15s WALL (  132470 calls)
     davcio       :      0.77s CPU      5.12s WALL (    6792 calls)
 
     Parallel routines
     fft_scatter  :     15.80s CPU     15.26s WALL (  139427 calls)
 
     PWSCF        :  2m18.13s CPU     2m29.82s WALL

 
   This run was terminated on:   6:44:17   4Aug2017            

=------------------------------------------------------------------------------=
   JOB DONE.
=------------------------------------------------------------------------------=
