
     Program PWSCF v.6.0 (svn rev. 13079) starts on  3Aug2017 at 13:33:41 

     This program is part of the open-source Quantum ESPRESSO suite
     for quantum simulation of materials; please cite
         "P. Giannozzi et al., J. Phys.:Condens. Matter 21 395502 (2009);
          URL http://www.quantum-espresso.org", 
     in publications or presentations arising from this work. More details at
     http://www.quantum-espresso.org/quote

     Parallel version (MPI), running on    10 processors
     R & G space division:  proc/nbgrp/npool/nimage =      10
     Reading input from input/multi/minchecks-Gold5-138.in

     Current dimensions of program PWSCF are:
     Max number of different atomic species (ntypx) = 10
     Max number of k-points (npk) =  40000
     Max angular momentum in pseudopotentials (lmaxx) =  3
     Message from routine iosys:
     pot_extrapolation='second-order' not available, using 'atomic'
     Message from routine iosys:
     wfc_extrapolation='second-order' not available, using 'atomic'

     Subspace diagonalization in iterative solution of the eigenvalue problem:
     a serial algorithm will be used

 
     Parallelization info
     --------------------
     sticks:   dense  smooth     PW     G-vecs:    dense   smooth      PW
     Min         380     380     94                17748    17748    2208
     Max         381     381     95                17753    17753    2213
     Sum        3809    3809    949               177509   177509   22119
 


     bravais-lattice index     =            1
     lattice parameter (alat)  =      20.0000  a.u.
     unit-cell volume          =    8000.0000 (a.u.)^3
     number of atoms/cell      =            5
     number of atomic types    =            1
     number of electrons       =        55.00
     number of Kohn-Sham states=           34
     kinetic-energy cutoff     =      30.0000  Ry
     charge density cutoff     =     120.0000  Ry
     convergence threshold     =      1.0E-08
     mixing beta               =       0.7000
     number of iterations used =            8  plain     mixing
     Exchange-correlation      = BLYP ( 1  3  1  3 0 0)
     nstep                     =           50


     celldm(1)=  20.000000  celldm(2)=   0.000000  celldm(3)=   0.000000
     celldm(4)=   0.000000  celldm(5)=   0.000000  celldm(6)=   0.000000

     crystal axes: (cart. coord. in units of alat)
               a(1) = (   1.000000   0.000000   0.000000 )  
               a(2) = (   0.000000   1.000000   0.000000 )  
               a(3) = (   0.000000   0.000000   1.000000 )  

     reciprocal axes: (cart. coord. in units 2 pi/alat)
               b(1) = (  1.000000  0.000000  0.000000 )  
               b(2) = (  0.000000  1.000000  0.000000 )  
               b(3) = (  0.000000  0.000000  1.000000 )  


     PseudoPot. # 1 for Au read from file:
     ./Au.blyp-d-hgh.UPF
     MD5 check sum: c10d8bae01f806c36a1643a1c69a8479
     Pseudo is Norm-conserving, Zval = 11.0
     Generated in analytical, separable form
     Using radial grid of 1279 points,  6 beta functions with: 
                l(1) =   0
                l(2) =   0
                l(3) =   1
                l(4) =   1
                l(5) =   2
                l(6) =   2

     atomic species   valence    mass     pseudopotential
        Au            11.00    28.08600     Au( 1.00)

     No symmetry found



   Cartesian axes

     site n.     atom                  positions (alat units)
         1           Au  tau(   1) = (  -0.0845683   0.0626067  -0.0289706  )
         2           Au  tau(   2) = (  -0.0496617   0.1956524   0.1834415  )
         3           Au  tau(   3) = (   0.1586090   0.0547466   0.0408502  )
         4           Au  tau(   4) = (   0.1987105   0.2137448   0.2530642  )
         5           Au  tau(   5) = (   0.3823227   0.0693339   0.1538984  )

     number of k points=     1  Marzari-Vanderbilt smearing, width (Ry)=  0.0250
                       cart. coord. in units 2pi/alat
        k(    1) = (   0.0000000   0.0000000   0.0000000), wk =   2.0000000

     Dense  grid:   177509 G-vectors     FFT dimensions: (  72,  72,  72)

     Estimated max dynamical RAM per process >      15.04Mb

     Estimated total allocated dynamical RAM >     150.39Mb

     Initial potential from superposition of free atoms
     Check: negative starting charge=   -0.006444

     starting charge   54.99940, renormalised to   55.00000

     negative rho (up, down):  6.444E-03 0.000E+00
     Starting wfc are   45 randomized atomic wfcs

     total cpu time spent up to now is        0.4 secs

     per-process dynamical memory:    41.0 Mb

     Self-consistent Calculation

     iteration #  1     ecut=    30.00 Ry     beta=0.70
     Davidson diagonalization with overlap
     ethr =  1.00E-02,  avg # of iterations =  3.0

     Threshold (ethr) on eigenvalues was too large:
     Diagonalizing with lowered threshold

     Davidson diagonalization with overlap
     ethr =  4.07E-04,  avg # of iterations =  5.0

     negative rho (up, down):  8.672E-04 0.000E+00

     total cpu time spent up to now is        0.9 secs

     total energy              =    -329.37929853 Ry
     Harris-Foulkes estimate   =    -329.54746187 Ry
     estimated scf accuracy    <       0.27954686 Ry

     iteration #  2     ecut=    30.00 Ry     beta=0.70
     Davidson diagonalization with overlap
     ethr =  5.08E-04,  avg # of iterations =  4.0

     negative rho (up, down):  3.902E-04 0.000E+00

     total cpu time spent up to now is        1.3 secs

     total energy              =    -329.41190515 Ry
     Harris-Foulkes estimate   =    -329.56248074 Ry
     estimated scf accuracy    <       0.30893968 Ry

     iteration #  3     ecut=    30.00 Ry     beta=0.70
     Davidson diagonalization with overlap
     ethr =  5.08E-04,  avg # of iterations =  2.0

     negative rho (up, down):  1.490E-04 0.000E+00

     total cpu time spent up to now is        1.6 secs

     total energy              =    -329.47417645 Ry
     Harris-Foulkes estimate   =    -329.50300263 Ry
     estimated scf accuracy    <       0.07635928 Ry

     iteration #  4     ecut=    30.00 Ry     beta=0.70
     Davidson diagonalization with overlap
     ethr =  1.39E-04,  avg # of iterations =  2.0

     negative rho (up, down):  1.179E-05 0.000E+00

     total cpu time spent up to now is        1.8 secs

     total energy              =    -329.48775213 Ry
     Harris-Foulkes estimate   =    -329.48967275 Ry
     estimated scf accuracy    <       0.00465540 Ry

     iteration #  5     ecut=    30.00 Ry     beta=0.70
     Davidson diagonalization with overlap
     ethr =  8.46E-06,  avg # of iterations =  7.0

     total cpu time spent up to now is        2.2 secs

     total energy              =    -329.48883264 Ry
     Harris-Foulkes estimate   =    -329.48973985 Ry
     estimated scf accuracy    <       0.00244207 Ry

     iteration #  6     ecut=    30.00 Ry     beta=0.70
     Davidson diagonalization with overlap
     ethr =  4.44E-06,  avg # of iterations =  2.0

     total cpu time spent up to now is        2.5 secs

     total energy              =    -329.48924114 Ry
     Harris-Foulkes estimate   =    -329.48935620 Ry
     estimated scf accuracy    <       0.00025761 Ry

     iteration #  7     ecut=    30.00 Ry     beta=0.70
     Davidson diagonalization with overlap
     ethr =  4.68E-07,  avg # of iterations =  2.0

     total cpu time spent up to now is        2.8 secs

     total energy              =    -329.48929705 Ry
     Harris-Foulkes estimate   =    -329.48930499 Ry
     estimated scf accuracy    <       0.00001816 Ry

     iteration #  8     ecut=    30.00 Ry     beta=0.70
     Davidson diagonalization with overlap
     ethr =  3.30E-08,  avg # of iterations =  2.0

     total cpu time spent up to now is        3.1 secs

     total energy              =    -329.48930037 Ry
     Harris-Foulkes estimate   =    -329.48930445 Ry
     estimated scf accuracy    <       0.00000929 Ry

     iteration #  9     ecut=    30.00 Ry     beta=0.70
     Davidson diagonalization with overlap
     ethr =  1.69E-08,  avg # of iterations =  2.0

     total cpu time spent up to now is        3.4 secs

     total energy              =    -329.48930198 Ry
     Harris-Foulkes estimate   =    -329.48930283 Ry
     estimated scf accuracy    <       0.00000157 Ry

     iteration # 10     ecut=    30.00 Ry     beta=0.70
     Davidson diagonalization with overlap
     ethr =  2.86E-09,  avg # of iterations =  2.0

     total cpu time spent up to now is        3.6 secs

     total energy              =    -329.48930215 Ry
     Harris-Foulkes estimate   =    -329.48930238 Ry
     estimated scf accuracy    <       0.00000018 Ry

     iteration # 11     ecut=    30.00 Ry     beta=0.70
     Davidson diagonalization with overlap
     ethr =  3.23E-10,  avg # of iterations =  2.0

     total cpu time spent up to now is        4.0 secs

     total energy              =    -329.48930221 Ry
     Harris-Foulkes estimate   =    -329.48930219 Ry
     estimated scf accuracy    <       0.00000002 Ry

     iteration # 12     ecut=    30.00 Ry     beta=0.70
     Davidson diagonalization with overlap
     ethr =  3.25E-11,  avg # of iterations =  2.0

     total cpu time spent up to now is        4.3 secs

     End of self-consistent calculation

          k = 0.0000 0.0000 0.0000 ( 22119 PWs)   bands (ev):

    -8.4624  -7.7768  -7.6273  -7.2222  -7.0054  -6.8005  -6.7147  -6.4775
    -6.2840  -6.0710  -6.0106  -5.7624  -5.7340  -5.6731  -5.4082  -5.3624
    -5.3265  -5.2288  -5.2015  -5.1794  -5.1692  -5.1344  -4.9919  -4.9296
    -4.8830  -4.6328  -4.4462  -3.7603  -2.5266  -2.1316  -0.5325  -0.1695
     0.5465   0.7695

     the Fermi energy is    -3.7312 ev

!    total energy              =    -329.48930216 Ry
     Harris-Foulkes estimate   =    -329.48930221 Ry
     estimated scf accuracy    <          5.3E-09 Ry

     The total energy is the sum of the following terms:

     one-electron contribution =    -608.89837318 Ry
     hartree contribution      =     325.88643598 Ry
     xc contribution           =     -51.41003505 Ry
     ewald contribution        =       4.93616376 Ry
     smearing contrib. (-TS)   =      -0.00349367 Ry

     convergence has been achieved in  12 iterations

     Forces acting on atoms (Ry/au):

     atom    1 type  1   force =     0.00143193   -0.00423788   -0.00599437
     atom    2 type  1   force =     0.00557654    0.00242636    0.00175045
     atom    3 type  1   force =    -0.01123202    0.00374815    0.00385370
     atom    4 type  1   force =    -0.00742809    0.00204871    0.00242433
     atom    5 type  1   force =     0.01165164   -0.00398534   -0.00203411

     Total force =     0.021727     Total SCF correction =     0.000290

     BFGS Geometry Optimization

     number of scf cycles    =   1
     number of bfgs steps    =   0

     energy   new            =    -329.4893021578 Ry

     new trust radius        =       0.0124812334 bohr
     new conv_thr            =       0.0000000100 Ry


ATOMIC_POSITIONS (bohr)
Au      -1.689934066   1.247896123  -0.585405366
Au      -0.987656455   3.915473363   3.670580449
Au       3.160947977   1.098680149   0.820856699
Au       3.966781908   4.276944707   5.063708325
Au       7.658106637   1.382691658   3.075933893



     Writing output data file pwscf.save
     Check: negative starting charge=   -0.006444
     NEW-OLD atomic charge density approx. for the potential
     Check: negative starting charge=   -0.006443

     negative rho (up, down):  1.796E-05 0.000E+00

     total cpu time spent up to now is        4.6 secs

     per-process dynamical memory:    42.9 Mb

     Self-consistent Calculation

     iteration #  1     ecut=    30.00 Ry     beta=0.70
     Davidson diagonalization with overlap
     ethr =  1.00E-06,  avg # of iterations =  4.0

     Threshold (ethr) on eigenvalues was too large:
     Diagonalizing with lowered threshold

     Davidson diagonalization with overlap
     ethr =  7.34E-08,  avg # of iterations =  1.0

     negative rho (up, down):  2.370E-08 0.000E+00

     total cpu time spent up to now is        5.2 secs

     total energy              =    -329.48969612 Ry
     Harris-Foulkes estimate   =    -329.48970737 Ry
     estimated scf accuracy    <       0.00004100 Ry

     iteration #  2     ecut=    30.00 Ry     beta=0.70
     Davidson diagonalization with overlap
     ethr =  7.45E-08,  avg # of iterations =  3.0

     total cpu time spent up to now is        5.5 secs

     total energy              =    -329.48969014 Ry
     Harris-Foulkes estimate   =    -329.48973692 Ry
     estimated scf accuracy    <       0.00012070 Ry

     iteration #  3     ecut=    30.00 Ry     beta=0.70
     Davidson diagonalization with overlap
     ethr =  7.45E-08,  avg # of iterations =  2.0

     total cpu time spent up to now is        5.8 secs

     total energy              =    -329.48971374 Ry
     Harris-Foulkes estimate   =    -329.48971548 Ry
     estimated scf accuracy    <       0.00000593 Ry

     iteration #  4     ecut=    30.00 Ry     beta=0.70
     Davidson diagonalization with overlap
     ethr =  1.08E-08,  avg # of iterations =  2.0

     total cpu time spent up to now is        6.0 secs

     total energy              =    -329.48971485 Ry
     Harris-Foulkes estimate   =    -329.48971526 Ry
     estimated scf accuracy    <       0.00000100 Ry

     iteration #  5     ecut=    30.00 Ry     beta=0.70
     Davidson diagonalization with overlap
     ethr =  1.81E-09,  avg # of iterations =  2.0

     total cpu time spent up to now is        6.3 secs

     total energy              =    -329.48971496 Ry
     Harris-Foulkes estimate   =    -329.48971517 Ry
     estimated scf accuracy    <       0.00000025 Ry

     iteration #  6     ecut=    30.00 Ry     beta=0.70
     Davidson diagonalization with overlap
     ethr =  4.55E-10,  avg # of iterations =  2.0

     total cpu time spent up to now is        6.5 secs

     total energy              =    -329.48971493 Ry
     Harris-Foulkes estimate   =    -329.48971503 Ry
     estimated scf accuracy    <       0.00000002 Ry

     iteration #  7     ecut=    30.00 Ry     beta=0.70
     Davidson diagonalization with overlap
     ethr =  4.01E-11,  avg # of iterations =  2.0

     total cpu time spent up to now is        6.8 secs

     End of self-consistent calculation

          k = 0.0000 0.0000 0.0000 ( 22119 PWs)   bands (ev):

    -8.4546  -7.7677  -7.6275  -7.2253  -6.9998  -6.7942  -6.6976  -6.4733
    -6.2901  -6.0594  -6.0078  -5.7580  -5.7286  -5.6730  -5.4085  -5.3659
    -5.3285  -5.2267  -5.2010  -5.1758  -5.1740  -5.1353  -4.9929  -4.9272
    -4.8817  -4.6381  -4.4467  -3.7662  -2.5284  -2.1309  -0.5322  -0.1704
     0.5459   0.7708

     the Fermi energy is    -3.7379 ev

!    total energy              =    -329.48971498 Ry
     Harris-Foulkes estimate   =    -329.48971494 Ry
     estimated scf accuracy    <          9.9E-09 Ry

     The total energy is the sum of the following terms:

     one-electron contribution =    -608.60640679 Ry
     hartree contribution      =     325.74328692 Ry
     xc contribution           =     -51.40844084 Ry
     ewald contribution        =       4.78517520 Ry
     smearing contrib. (-TS)   =      -0.00332947 Ry

     convergence has been achieved in   7 iterations

     Forces acting on atoms (Ry/au):

     atom    1 type  1   force =     0.00040558   -0.00376317   -0.00529878
     atom    2 type  1   force =     0.00435847    0.00189180    0.00069698
     atom    3 type  1   force =    -0.00794064    0.00369212    0.00500424
     atom    4 type  1   force =    -0.00492442    0.00089942    0.00171735
     atom    5 type  1   force =     0.00810102   -0.00272017   -0.00211979

     Total force =     0.016514     Total SCF correction =     0.000299

     number of scf cycles    =   2
     number of bfgs steps    =   1

     energy   old            =    -329.4893021578 Ry
     energy   new            =    -329.4897149821 Ry

     CASE: energy  _new < energy  _old

     new trust radius        =       0.0137293567 bohr
     new conv_thr            =       0.0000000004 Ry


ATOMIC_POSITIONS (bohr)
Au      -1.689293237   1.242801550  -0.592581403
Au      -0.981693084   3.918062325   3.671614866
Au       3.149982499   1.103639984   0.827463783
Au       3.959938102   4.278259809   5.066079403
Au       7.669311719   1.378922332   3.073097352



     Writing output data file pwscf.save
     Check: negative starting charge=   -0.006443
     NEW-OLD atomic charge density approx. for the potential
     Check: negative starting charge=   -0.006445

     negative rho (up, down):  2.113E-05 0.000E+00

     total cpu time spent up to now is        7.0 secs

     per-process dynamical memory:    50.6 Mb

     Self-consistent Calculation

     iteration #  1     ecut=    30.00 Ry     beta=0.70
     Davidson diagonalization with overlap
     ethr =  1.00E-06,  avg # of iterations =  4.0

     Threshold (ethr) on eigenvalues was too large:
     Diagonalizing with lowered threshold

     Davidson diagonalization with overlap
     ethr =  8.05E-08,  avg # of iterations =  1.0

     negative rho (up, down):  3.023E-08 0.000E+00

     total cpu time spent up to now is        7.6 secs

     total energy              =    -329.49001608 Ry
     Harris-Foulkes estimate   =    -329.49002909 Ry
     estimated scf accuracy    <       0.00004496 Ry

     iteration #  2     ecut=    30.00 Ry     beta=0.70
     Davidson diagonalization with overlap
     ethr =  8.17E-08,  avg # of iterations =  3.0

     total cpu time spent up to now is        7.8 secs

     total energy              =    -329.49001054 Ry
     Harris-Foulkes estimate   =    -329.49005790 Ry
     estimated scf accuracy    <       0.00011961 Ry

     iteration #  3     ecut=    30.00 Ry     beta=0.70
     Davidson diagonalization with overlap
     ethr =  8.17E-08,  avg # of iterations =  2.0

     total cpu time spent up to now is        8.1 secs

     total energy              =    -329.49003435 Ry
     Harris-Foulkes estimate   =    -329.49003707 Ry
     estimated scf accuracy    <       0.00000801 Ry

     iteration #  4     ecut=    30.00 Ry     beta=0.70
     Davidson diagonalization with overlap
     ethr =  1.46E-08,  avg # of iterations =  2.0

     total cpu time spent up to now is        8.4 secs

     total energy              =    -329.49003603 Ry
     Harris-Foulkes estimate   =    -329.49003625 Ry
     estimated scf accuracy    <       0.00000105 Ry

     iteration #  5     ecut=    30.00 Ry     beta=0.70
     Davidson diagonalization with overlap
     ethr =  1.91E-09,  avg # of iterations =  2.0

     total cpu time spent up to now is        8.8 secs

     total energy              =    -329.49003615 Ry
     Harris-Foulkes estimate   =    -329.49003640 Ry
     estimated scf accuracy    <       0.00000038 Ry

     iteration #  6     ecut=    30.00 Ry     beta=0.70
     Davidson diagonalization with overlap
     ethr =  6.95E-10,  avg # of iterations =  2.0

     total cpu time spent up to now is        9.0 secs

     total energy              =    -329.49003631 Ry
     Harris-Foulkes estimate   =    -329.49003625 Ry
     estimated scf accuracy    <       0.00000004 Ry

     iteration #  7     ecut=    30.00 Ry     beta=0.70
     Davidson diagonalization with overlap
     ethr =  7.04E-11,  avg # of iterations =  2.0

     total cpu time spent up to now is        9.3 secs

     total energy              =    -329.49003633 Ry
     Harris-Foulkes estimate   =    -329.49003632 Ry
     estimated scf accuracy    <       0.00000001 Ry

     iteration #  8     ecut=    30.00 Ry     beta=0.70
     Davidson diagonalization with overlap
     ethr =  2.24E-11,  avg # of iterations =  2.0

     total cpu time spent up to now is        9.5 secs

     total energy              =    -329.49003630 Ry
     Harris-Foulkes estimate   =    -329.49003633 Ry
     estimated scf accuracy    <          1.3E-09 Ry

     iteration #  9     ecut=    30.00 Ry     beta=0.70
     Davidson diagonalization with overlap
     ethr =  2.37E-12,  avg # of iterations =  2.0

     total cpu time spent up to now is        9.8 secs

     End of self-consistent calculation

          k = 0.0000 0.0000 0.0000 ( 22119 PWs)   bands (ev):

    -8.4503  -7.7605  -7.6301  -7.2295  -6.9948  -6.7902  -6.6794  -6.4702
    -6.2971  -6.0487  -6.0046  -5.7544  -5.7234  -5.6735  -5.4085  -5.3710
    -5.3300  -5.2247  -5.2013  -5.1796  -5.1713  -5.1355  -4.9939  -4.9248
    -4.8804  -4.6432  -4.4479  -3.7715  -2.5296  -2.1305  -0.5324  -0.1706
     0.5450   0.7726

     the Fermi energy is    -3.7437 ev

!    total energy              =    -329.49003629 Ry
     Harris-Foulkes estimate   =    -329.49003630 Ry
     estimated scf accuracy    <          1.4E-10 Ry

     The total energy is the sum of the following terms:

     one-electron contribution =    -608.39032868 Ry
     hartree contribution      =     325.63708836 Ry
     xc contribution           =     -51.40706693 Ry
     ewald contribution        =       4.67347408 Ry
     smearing contrib. (-TS)   =      -0.00320312 Ry

     convergence has been achieved in   9 iterations

     Forces acting on atoms (Ry/au):

     atom    1 type  1   force =    -0.00039990   -0.00326103   -0.00446259
     atom    2 type  1   force =     0.00309428    0.00137023   -0.00038350
     atom    3 type  1   force =    -0.00502848    0.00344752    0.00563995
     atom    4 type  1   force =    -0.00258492    0.00003589    0.00128405
     atom    5 type  1   force =     0.00491902   -0.00159260   -0.00207791

     Total force =     0.012275     Total SCF correction =     0.000051

     number of scf cycles    =   3
     number of bfgs steps    =   2

     energy   old            =    -329.4897149821 Ry
     energy   new            =    -329.4900362858 Ry

     CASE: energy  _new < energy  _old

     new trust radius        =       0.0205940351 bohr
     new conv_thr            =       0.0000000003 Ry


ATOMIC_POSITIONS (bohr)
Au      -1.689494139   1.234806331  -0.603620942
Au      -0.973453626   3.921687486   3.671619076
Au       3.135760921   1.111812817   0.839916325
Au       3.951931297   4.279137151   5.069496455
Au       7.683501547   1.374242215   3.068263087



     Writing output data file pwscf.save
     Check: negative starting charge=   -0.006445
     NEW-OLD atomic charge density approx. for the potential
     Check: negative starting charge=   -0.006450

     negative rho (up, down):  6.471E-05 0.000E+00

     total cpu time spent up to now is       10.1 secs

     per-process dynamical memory:    50.6 Mb

     Self-consistent Calculation

     iteration #  1     ecut=    30.00 Ry     beta=0.70
     Davidson diagonalization with overlap
     ethr =  1.00E-06,  avg # of iterations =  4.0

     negative rho (up, down):  3.037E-07 0.000E+00

     total cpu time spent up to now is       10.7 secs

     total energy              =    -329.49030157 Ry
     Harris-Foulkes estimate   =    -329.49032585 Ry
     estimated scf accuracy    <       0.00008904 Ry

     iteration #  2     ecut=    30.00 Ry     beta=0.70
     Davidson diagonalization with overlap
     ethr =  1.62E-07,  avg # of iterations =  3.0

     negative rho (up, down):  3.878E-08 0.000E+00

     total cpu time spent up to now is       11.0 secs

     total energy              =    -329.49029136 Ry
     Harris-Foulkes estimate   =    -329.49037921 Ry
     estimated scf accuracy    <       0.00021504 Ry

     iteration #  3     ecut=    30.00 Ry     beta=0.70
     Davidson diagonalization with overlap
     ethr =  1.62E-07,  avg # of iterations =  2.0

     total cpu time spent up to now is       11.2 secs

     total energy              =    -329.49033545 Ry
     Harris-Foulkes estimate   =    -329.49034213 Ry
     estimated scf accuracy    <       0.00002057 Ry

     iteration #  4     ecut=    30.00 Ry     beta=0.70
     Davidson diagonalization with overlap
     ethr =  3.74E-08,  avg # of iterations =  2.0

     total cpu time spent up to now is       11.5 secs

     total energy              =    -329.49033947 Ry
     Harris-Foulkes estimate   =    -329.49034005 Ry
     estimated scf accuracy    <       0.00000249 Ry

     iteration #  5     ecut=    30.00 Ry     beta=0.70
     Davidson diagonalization with overlap
     ethr =  4.53E-09,  avg # of iterations =  2.0

     total cpu time spent up to now is       11.7 secs

     total energy              =    -329.49033997 Ry
     Harris-Foulkes estimate   =    -329.49034049 Ry
     estimated scf accuracy    <       0.00000145 Ry

     iteration #  6     ecut=    30.00 Ry     beta=0.70
     Davidson diagonalization with overlap
     ethr =  2.64E-09,  avg # of iterations =  2.0

     total cpu time spent up to now is       12.0 secs

     total energy              =    -329.49034031 Ry
     Harris-Foulkes estimate   =    -329.49034026 Ry
     estimated scf accuracy    <       0.00000009 Ry

     iteration #  7     ecut=    30.00 Ry     beta=0.70
     Davidson diagonalization with overlap
     ethr =  1.59E-10,  avg # of iterations =  3.0

     total cpu time spent up to now is       12.4 secs

     total energy              =    -329.49034031 Ry
     Harris-Foulkes estimate   =    -329.49034034 Ry
     estimated scf accuracy    <       0.00000002 Ry

     iteration #  8     ecut=    30.00 Ry     beta=0.70
     Davidson diagonalization with overlap
     ethr =  4.11E-11,  avg # of iterations =  2.0

     total cpu time spent up to now is       12.8 secs

     total energy              =    -329.49034028 Ry
     Harris-Foulkes estimate   =    -329.49034031 Ry
     estimated scf accuracy    <          2.4E-09 Ry

     iteration #  9     ecut=    30.00 Ry     beta=0.70
     Davidson diagonalization with overlap
     ethr =  4.41E-12,  avg # of iterations =  2.0

     total cpu time spent up to now is       13.0 secs

     End of self-consistent calculation

          k = 0.0000 0.0000 0.0000 ( 22119 PWs)   bands (ev):

    -8.4484  -7.7537  -7.6372  -7.2358  -6.9881  -6.7874  -6.6545  -6.4684
    -6.3064  -6.0375  -5.9986  -5.7508  -5.7172  -5.6749  -5.4075  -5.3798
    -5.3314  -5.2223  -5.2024  -5.1861  -5.1666  -5.1348  -4.9954  -4.9219
    -4.8785  -4.6498  -4.4504  -3.7775  -2.5304  -2.1304  -0.5330  -0.1699
     0.5436   0.7754

     the Fermi energy is    -3.7502 ev

!    total energy              =    -329.49034025 Ry
     Harris-Foulkes estimate   =    -329.49034028 Ry
     estimated scf accuracy    <          2.7E-10 Ry

     The total energy is the sum of the following terms:

     one-electron contribution =    -608.19462891 Ry
     hartree contribution      =     325.54032203 Ry
     xc contribution           =     -51.40552014 Ry
     ewald contribution        =       4.57258413 Ry
     smearing contrib. (-TS)   =      -0.00309736 Ry

     convergence has been achieved in   9 iterations

     Forces acting on atoms (Ry/au):

     atom    1 type  1   force =    -0.00111136   -0.00260861   -0.00327231
     atom    2 type  1   force =     0.00139805    0.00072329   -0.00178134
     atom    3 type  1   force =    -0.00167611    0.00296510    0.00595798
     atom    4 type  1   force =     0.00032470   -0.00076677    0.00100940
     atom    5 type  1   force =     0.00106472   -0.00031301   -0.00191373

     Total force =     0.008838     Total SCF correction =     0.000074

     number of scf cycles    =   4
     number of bfgs steps    =   3

     energy   old            =    -329.4900362858 Ry
     energy   new            =    -329.4903402519 Ry

     CASE: energy  _new < energy  _old

     new trust radius        =       0.0308910527 bohr
     new conv_thr            =       0.0000000003 Ry


ATOMIC_POSITIONS (bohr)
Au      -1.691240087   1.222466568  -0.620057234
Au      -0.962815812   3.926575231   3.668791531
Au       3.118187401   1.124776014   0.861765445
Au       3.944118978   4.279055222   5.074822203
Au       7.699995520   1.368812964   3.060352056



     Writing output data file pwscf.save
     Check: negative starting charge=   -0.006450
     NEW-OLD atomic charge density approx. for the potential
     Check: negative starting charge=   -0.006456

     negative rho (up, down):  1.626E-04 0.000E+00

     total cpu time spent up to now is       13.3 secs

     per-process dynamical memory:    50.6 Mb

     Self-consistent Calculation

     iteration #  1     ecut=    30.00 Ry     beta=0.70
     Davidson diagonalization with overlap
     ethr =  1.00E-06,  avg # of iterations =  4.0

     negative rho (up, down):  2.329E-06 0.000E+00

     total cpu time spent up to now is       13.7 secs

     total energy              =    -329.49050166 Ry
     Harris-Foulkes estimate   =    -329.49053369 Ry
     estimated scf accuracy    <       0.00017237 Ry

     iteration #  2     ecut=    30.00 Ry     beta=0.70
     Davidson diagonalization with overlap
     ethr =  3.13E-07,  avg # of iterations =  3.0

     negative rho (up, down):  3.740E-07 0.000E+00

     total cpu time spent up to now is       14.1 secs

     total energy              =    -329.49048460 Ry
     Harris-Foulkes estimate   =    -329.49064274 Ry
     estimated scf accuracy    <       0.00037607 Ry

     iteration #  3     ecut=    30.00 Ry     beta=0.70
     Davidson diagonalization with overlap
     ethr =  3.13E-07,  avg # of iterations =  2.0

     total cpu time spent up to now is       14.5 secs

     total energy              =    -329.49056324 Ry
     Harris-Foulkes estimate   =    -329.49057910 Ry
     estimated scf accuracy    <       0.00004938 Ry

     iteration #  4     ecut=    30.00 Ry     beta=0.70
     Davidson diagonalization with overlap
     ethr =  8.98E-08,  avg # of iterations =  2.0

     total cpu time spent up to now is       14.8 secs

     total energy              =    -329.49057216 Ry
     Harris-Foulkes estimate   =    -329.49057373 Ry
     estimated scf accuracy    <       0.00000498 Ry

     iteration #  5     ecut=    30.00 Ry     beta=0.70
     Davidson diagonalization with overlap
     ethr =  9.06E-09,  avg # of iterations =  3.0

     total cpu time spent up to now is       15.0 secs

     total energy              =    -329.49057304 Ry
     Harris-Foulkes estimate   =    -329.49057438 Ry
     estimated scf accuracy    <       0.00000333 Ry

     iteration #  6     ecut=    30.00 Ry     beta=0.70
     Davidson diagonalization with overlap
     ethr =  6.06E-09,  avg # of iterations =  2.0

     total cpu time spent up to now is       15.3 secs

     total energy              =    -329.49057356 Ry
     Harris-Foulkes estimate   =    -329.49057368 Ry
     estimated scf accuracy    <       0.00000014 Ry

     iteration #  7     ecut=    30.00 Ry     beta=0.70
     Davidson diagonalization with overlap
     ethr =  2.63E-10,  avg # of iterations =  3.0

     total cpu time spent up to now is       15.5 secs

     total energy              =    -329.49057355 Ry
     Harris-Foulkes estimate   =    -329.49057361 Ry
     estimated scf accuracy    <       0.00000005 Ry

     iteration #  8     ecut=    30.00 Ry     beta=0.70
     Davidson diagonalization with overlap
     ethr =  8.40E-11,  avg # of iterations =  2.0

     total cpu time spent up to now is       15.8 secs

     total energy              =    -329.49057361 Ry
     Harris-Foulkes estimate   =    -329.49057356 Ry
     estimated scf accuracy    <          4.7E-09 Ry

     iteration #  9     ecut=    30.00 Ry     beta=0.70
     Davidson diagonalization with overlap
     ethr =  8.53E-12,  avg # of iterations =  3.0

     total cpu time spent up to now is       16.3 secs

     total energy              =    -329.49057361 Ry
     Harris-Foulkes estimate   =    -329.49057361 Ry
     estimated scf accuracy    <          5.9E-10 Ry

     iteration # 10     ecut=    30.00 Ry     beta=0.70
     Davidson diagonalization with overlap
     ethr =  1.07E-12,  avg # of iterations =  3.0

     total cpu time spent up to now is       16.6 secs

     End of self-consistent calculation

          k = 0.0000 0.0000 0.0000 ( 22119 PWs)   bands (ev):

    -8.4521  -7.7497  -7.6525  -7.2442  -6.9780  -6.7874  -6.6226  -6.4717
    -6.3169  -6.0320  -5.9852  -5.7487  -5.7111  -5.6775  -5.4046  -5.3939
    -5.3321  -5.2201  -5.2051  -5.1935  -5.1616  -5.1325  -4.9976  -4.9189
    -4.8759  -4.6580  -4.4555  -3.7833  -2.5299  -2.1317  -0.5346  -0.1673
     0.5415   0.7798

     the Fermi energy is    -3.7561 ev

!    total energy              =    -329.49057360 Ry
     Harris-Foulkes estimate   =    -329.49057361 Ry
     estimated scf accuracy    <          1.5E-10 Ry

     The total energy is the sum of the following terms:

     one-electron contribution =    -608.08366456 Ry
     hartree contribution      =     325.48415626 Ry
     xc contribution           =     -51.40394025 Ry
     ewald contribution        =       4.51596034 Ry
     smearing contrib. (-TS)   =      -0.00308539 Ry

     convergence has been achieved in  10 iterations

     Forces acting on atoms (Ry/au):

     atom    1 type  1   force =    -0.00130943   -0.00181431   -0.00174099
     atom    2 type  1   force =    -0.00055322    0.00000458   -0.00341966
     atom    3 type  1   force =     0.00120278    0.00215184    0.00567214
     atom    4 type  1   force =     0.00365923   -0.00125548    0.00112265
     atom    5 type  1   force =    -0.00299935    0.00091336   -0.00163414

     Total force =     0.009328     Total SCF correction =     0.000050

     number of scf cycles    =   5
     number of bfgs steps    =   4

     energy   old            =    -329.4903402519 Ry
     energy   new            =    -329.4905735980 Ry

     CASE: energy  _new < energy  _old

     new trust radius        =       0.0262187139 bohr
     new conv_thr            =       0.0000000002 Ry


ATOMIC_POSITIONS (bohr)
Au      -1.693498759   1.211968956  -0.633173751
Au      -0.956169606   3.929958512   3.662963010
Au       3.106848861   1.135902763   0.882623392
Au       3.942815318   4.277930326   5.080085385
Au       7.708250186   1.365925443   3.053175964



     Writing output data file pwscf.save
     Check: negative starting charge=   -0.006456
     NEW-OLD atomic charge density approx. for the potential
     Check: negative starting charge=   -0.006459

     negative rho (up, down):  9.256E-05 0.000E+00

     total cpu time spent up to now is       16.9 secs

     per-process dynamical memory:    50.7 Mb

     Self-consistent Calculation

     iteration #  1     ecut=    30.00 Ry     beta=0.70
     Davidson diagonalization with overlap
     ethr =  1.00E-06,  avg # of iterations =  4.0

     negative rho (up, down):  7.300E-07 0.000E+00

     total cpu time spent up to now is       17.3 secs

     total energy              =    -329.49067132 Ry
     Harris-Foulkes estimate   =    -329.49069335 Ry
     estimated scf accuracy    <       0.00010151 Ry

     iteration #  2     ecut=    30.00 Ry     beta=0.70
     Davidson diagonalization with overlap
     ethr =  1.85E-07,  avg # of iterations =  3.0

     negative rho (up, down):  7.951E-08 0.000E+00

     total cpu time spent up to now is       17.6 secs

     total energy              =    -329.49066515 Ry
     Harris-Foulkes estimate   =    -329.49074537 Ry
     estimated scf accuracy    <       0.00018212 Ry

     iteration #  3     ecut=    30.00 Ry     beta=0.70
     Davidson diagonalization with overlap
     ethr =  1.85E-07,  avg # of iterations =  2.0

     total cpu time spent up to now is       17.9 secs

     total energy              =    -329.49070347 Ry
     Harris-Foulkes estimate   =    -329.49071647 Ry
     estimated scf accuracy    <       0.00003848 Ry

     iteration #  4     ecut=    30.00 Ry     beta=0.70
     Davidson diagonalization with overlap
     ethr =  7.00E-08,  avg # of iterations =  2.0

     total cpu time spent up to now is       18.3 secs

     total energy              =    -329.49071011 Ry
     Harris-Foulkes estimate   =    -329.49071109 Ry
     estimated scf accuracy    <       0.00000272 Ry

     iteration #  5     ecut=    30.00 Ry     beta=0.70
     Davidson diagonalization with overlap
     ethr =  4.94E-09,  avg # of iterations =  3.0

     total cpu time spent up to now is       18.7 secs

     total energy              =    -329.49071083 Ry
     Harris-Foulkes estimate   =    -329.49071136 Ry
     estimated scf accuracy    <       0.00000180 Ry

     iteration #  6     ecut=    30.00 Ry     beta=0.70
     Davidson diagonalization with overlap
     ethr =  3.28E-09,  avg # of iterations =  2.0

     total cpu time spent up to now is       18.9 secs

     total energy              =    -329.49071134 Ry
     Harris-Foulkes estimate   =    -329.49071118 Ry
     estimated scf accuracy    <       0.00000009 Ry

     iteration #  7     ecut=    30.00 Ry     beta=0.70
     Davidson diagonalization with overlap
     ethr =  1.62E-10,  avg # of iterations =  3.0

     total cpu time spent up to now is       19.2 secs

     total energy              =    -329.49071144 Ry
     Harris-Foulkes estimate   =    -329.49071137 Ry
     estimated scf accuracy    <       0.00000002 Ry

     iteration #  8     ecut=    30.00 Ry     beta=0.70
     Davidson diagonalization with overlap
     ethr =  3.97E-11,  avg # of iterations =  2.0

     total cpu time spent up to now is       19.4 secs

     total energy              =    -329.49071139 Ry
     Harris-Foulkes estimate   =    -329.49071145 Ry
     estimated scf accuracy    <          3.5E-09 Ry

     iteration #  9     ecut=    30.00 Ry     beta=0.70
     Davidson diagonalization with overlap
     ethr =  6.38E-12,  avg # of iterations =  2.0

     total cpu time spent up to now is       19.7 secs

     total energy              =    -329.49071140 Ry
     Harris-Foulkes estimate   =    -329.49071139 Ry
     estimated scf accuracy    <          6.1E-10 Ry

     iteration # 10     ecut=    30.00 Ry     beta=0.70
     Davidson diagonalization with overlap
     ethr =  1.11E-12,  avg # of iterations =  2.0

     total cpu time spent up to now is       20.0 secs

     End of self-consistent calculation

          k = 0.0000 0.0000 0.0000 ( 22119 PWs)   bands (ev):

    -8.4611  -7.7527  -7.6662  -7.2505  -6.9678  -6.7908  -6.6037  -6.4792
    -6.3214  -6.0352  -5.9740  -5.7499  -5.7097  -5.6802  -5.4067  -5.4007
    -5.3312  -5.2200  -5.2082  -5.1961  -5.1600  -5.1299  -4.9993  -4.9182
    -4.8741  -4.6631  -4.4610  -3.7846  -2.5277  -2.1346  -0.5364  -0.1636
     0.5396   0.7835

     the Fermi energy is    -3.7567 ev

!    total energy              =    -329.49071140 Ry
     Harris-Foulkes estimate   =    -329.49071140 Ry
     estimated scf accuracy    <          7.5E-11 Ry

     The total energy is the sum of the following terms:

     one-electron contribution =    -608.16539106 Ry
     hartree contribution      =     325.52220298 Ry
     xc contribution           =     -51.40323504 Ry
     ewald contribution        =       4.55895037 Ry
     smearing contrib. (-TS)   =      -0.00323864 Ry

     convergence has been achieved in  10 iterations

     Forces acting on atoms (Ry/au):

     atom    1 type  1   force =    -0.00084333   -0.00130247   -0.00069129
     atom    2 type  1   force =    -0.00139251   -0.00028459   -0.00410862
     atom    3 type  1   force =     0.00162994    0.00115932    0.00447288
     atom    4 type  1   force =     0.00509430   -0.00101573    0.00168566
     atom    5 type  1   force =    -0.00448840    0.00144346   -0.00135863

     Total force =     0.009985     Total SCF correction =     0.000037

     number of scf cycles    =   6
     number of bfgs steps    =   5

     energy   old            =    -329.4905735980 Ry
     energy   new            =    -329.4907114009 Ry

     CASE: energy  _new < energy  _old

     new trust radius        =       0.0288405853 bohr
     new conv_thr            =       0.0000000001 Ry


ATOMIC_POSITIONS (bohr)
Au      -1.696023939   1.200369079  -0.646622167
Au      -0.950878338   3.933087754   3.653250999
Au       3.096299224   1.147631473   0.906767167
Au       3.946295196   4.276286751   5.087404120
Au       7.712553856   1.364310944   3.044873880



     Writing output data file pwscf.save
     Check: negative starting charge=   -0.006459
     NEW-OLD atomic charge density approx. for the potential
     Check: negative starting charge=   -0.006463

     negative rho (up, down):  1.196E-04 0.000E+00

     total cpu time spent up to now is       20.3 secs

     per-process dynamical memory:    50.7 Mb

     Self-consistent Calculation

     iteration #  1     ecut=    30.00 Ry     beta=0.70
     Davidson diagonalization with overlap
     ethr =  1.00E-06,  avg # of iterations =  4.0

     negative rho (up, down):  1.288E-06 0.000E+00

     total cpu time spent up to now is       20.7 secs

     total energy              =    -329.49081253 Ry
     Harris-Foulkes estimate   =    -329.49083106 Ry
     estimated scf accuracy    <       0.00011185 Ry

     iteration #  2     ecut=    30.00 Ry     beta=0.70
     Davidson diagonalization with overlap
     ethr =  2.03E-07,  avg # of iterations =  2.0

     negative rho (up, down):  1.354E-07 0.000E+00

     total cpu time spent up to now is       21.0 secs

     total energy              =    -329.49081168 Ry
     Harris-Foulkes estimate   =    -329.49088609 Ry
     estimated scf accuracy    <       0.00016206 Ry

     iteration #  3     ecut=    30.00 Ry     beta=0.70
     Davidson diagonalization with overlap
     ethr =  2.03E-07,  avg # of iterations =  2.0

     total cpu time spent up to now is       21.2 secs

     total energy              =    -329.49084575 Ry
     Harris-Foulkes estimate   =    -329.49086207 Ry
     estimated scf accuracy    <       0.00004763 Ry

     iteration #  4     ecut=    30.00 Ry     beta=0.70
     Davidson diagonalization with overlap
     ethr =  8.66E-08,  avg # of iterations =  2.0

     total cpu time spent up to now is       21.4 secs

     total energy              =    -329.49085452 Ry
     Harris-Foulkes estimate   =    -329.49085516 Ry
     estimated scf accuracy    <       0.00000281 Ry

     iteration #  5     ecut=    30.00 Ry     beta=0.70
     Davidson diagonalization with overlap
     ethr =  5.11E-09,  avg # of iterations =  3.0

     total cpu time spent up to now is       21.7 secs

     total energy              =    -329.49085506 Ry
     Harris-Foulkes estimate   =    -329.49085567 Ry
     estimated scf accuracy    <       0.00000139 Ry

     iteration #  6     ecut=    30.00 Ry     beta=0.70
     Davidson diagonalization with overlap
     ethr =  2.53E-09,  avg # of iterations =  2.0

     total cpu time spent up to now is       22.0 secs

     total energy              =    -329.49085546 Ry
     Harris-Foulkes estimate   =    -329.49085535 Ry
     estimated scf accuracy    <       0.00000009 Ry

     iteration #  7     ecut=    30.00 Ry     beta=0.70
     Davidson diagonalization with overlap
     ethr =  1.68E-10,  avg # of iterations =  3.0

     total cpu time spent up to now is       22.2 secs

     total energy              =    -329.49085550 Ry
     Harris-Foulkes estimate   =    -329.49085549 Ry
     estimated scf accuracy    <       0.00000002 Ry

     iteration #  8     ecut=    30.00 Ry     beta=0.70
     Davidson diagonalization with overlap
     ethr =  2.89E-11,  avg # of iterations =  2.0

     total cpu time spent up to now is       22.5 secs

     total energy              =    -329.49085553 Ry
     Harris-Foulkes estimate   =    -329.49085550 Ry
     estimated scf accuracy    <          5.2E-09 Ry

     iteration #  9     ecut=    30.00 Ry     beta=0.70
     Davidson diagonalization with overlap
     ethr =  9.51E-12,  avg # of iterations =  2.0

     total cpu time spent up to now is       22.8 secs

     total energy              =    -329.49085557 Ry
     Harris-Foulkes estimate   =    -329.49085554 Ry
     estimated scf accuracy    <          9.3E-10 Ry

     iteration # 10     ecut=    30.00 Ry     beta=0.70
     Davidson diagonalization with overlap
     ethr =  1.68E-12,  avg # of iterations =  2.0

     total cpu time spent up to now is       23.0 secs

     End of self-consistent calculation

          k = 0.0000 0.0000 0.0000 ( 22119 PWs)   bands (ev):

    -8.4750  -7.7607  -7.6799  -7.2558  -6.9543  -6.7970  -6.5904  -6.4896
    -6.3228  -6.0432  -5.9641  -5.7531  -5.7110  -5.6833  -5.4205  -5.3961
    -5.3290  -5.2227  -5.2104  -5.1961  -5.1601  -5.1269  -5.0007  -4.9190
    -4.8718  -4.6676  -4.4679  -3.7832  -2.5237  -2.1396  -0.5385  -0.1585
     0.5375   0.7879

     the Fermi energy is    -3.7540 ev

!    total energy              =    -329.49085560 Ry
     Harris-Foulkes estimate   =    -329.49085557 Ry
     estimated scf accuracy    <          7.2E-11 Ry

     The total energy is the sum of the following terms:

     one-electron contribution =    -608.36697085 Ry
     hartree contribution      =     325.61869424 Ry
     xc contribution           =     -51.40289497 Ry
     ewald contribution        =       4.66383986 Ry
     smearing contrib. (-TS)   =      -0.00352388 Ry

     convergence has been achieved in  10 iterations

     Forces acting on atoms (Ry/au):

     atom    1 type  1   force =    -0.00013807   -0.00084289    0.00020141
     atom    2 type  1   force =    -0.00160285   -0.00030589   -0.00415308
     atom    3 type  1   force =     0.00111647   -0.00029459    0.00234394
     atom    4 type  1   force =     0.00538891   -0.00031371    0.00259167
     atom    5 type  1   force =    -0.00476445    0.00175707   -0.00098394

     Total force =     0.009493     Total SCF correction =     0.000043

     number of scf cycles    =   7
     number of bfgs steps    =   6

     energy   old            =    -329.4907114009 Ry
     energy   new            =    -329.4908555989 Ry

     CASE: energy  _new < energy  _old

     new trust radius        =       0.0397224851 bohr
     new conv_thr            =       0.0000000001 Ry


ATOMIC_POSITIONS (bohr)
Au      -1.699178281   1.183724624  -0.663990344
Au      -0.946135332   3.936894718   3.634121990
Au       3.083266733   1.162128891   0.941377207
Au       3.958852096   4.274123978   5.101684084
Au       7.711440784   1.364813789   3.032481063



     Writing output data file pwscf.save
     Check: negative starting charge=   -0.006463
     NEW-OLD atomic charge density approx. for the potential
     Check: negative starting charge=   -0.006468

     negative rho (up, down):  2.965E-04 0.000E+00

     total cpu time spent up to now is       23.2 secs

     per-process dynamical memory:    50.7 Mb

     Self-consistent Calculation

     iteration #  1     ecut=    30.00 Ry     beta=0.70
     Davidson diagonalization with overlap
     ethr =  1.00E-06,  avg # of iterations =  4.0

     negative rho (up, down):  7.896E-06 0.000E+00

     total cpu time spent up to now is       23.7 secs

     total energy              =    -329.49095451 Ry
     Harris-Foulkes estimate   =    -329.49093565 Ry
     estimated scf accuracy    <       0.00022366 Ry

     iteration #  2     ecut=    30.00 Ry     beta=0.70
     Davidson diagonalization with overlap
     ethr =  4.07E-07,  avg # of iterations =  3.0

     negative rho (up, down):  1.139E-06 0.000E+00

     total cpu time spent up to now is       24.0 secs

     total energy              =    -329.49096620 Ry
     Harris-Foulkes estimate   =    -329.49109122 Ry
     estimated scf accuracy    <       0.00026470 Ry

     iteration #  3     ecut=    30.00 Ry     beta=0.70
     Davidson diagonalization with overlap
     ethr =  4.07E-07,  avg # of iterations =  2.0

     negative rho (up, down):  3.396E-08 0.000E+00

     total cpu time spent up to now is       24.2 secs

     total energy              =    -329.49102013 Ry
     Harris-Foulkes estimate   =    -329.49105313 Ry
     estimated scf accuracy    <       0.00009185 Ry

     iteration #  4     ecut=    30.00 Ry     beta=0.70
     Davidson diagonalization with overlap
     ethr =  1.67E-07,  avg # of iterations =  2.0

     total cpu time spent up to now is       24.4 secs

     total energy              =    -329.49103844 Ry
     Harris-Foulkes estimate   =    -329.49103940 Ry
     estimated scf accuracy    <       0.00000610 Ry

     iteration #  5     ecut=    30.00 Ry     beta=0.70
     Davidson diagonalization with overlap
     ethr =  1.11E-08,  avg # of iterations =  2.0

     total cpu time spent up to now is       24.7 secs

     total energy              =    -329.49103960 Ry
     Harris-Foulkes estimate   =    -329.49104016 Ry
     estimated scf accuracy    <       0.00000121 Ry

     iteration #  6     ecut=    30.00 Ry     beta=0.70
     Davidson diagonalization with overlap
     ethr =  2.21E-09,  avg # of iterations =  2.0

     total cpu time spent up to now is       24.9 secs

     total energy              =    -329.49103994 Ry
     Harris-Foulkes estimate   =    -329.49103990 Ry
     estimated scf accuracy    <       0.00000013 Ry

     iteration #  7     ecut=    30.00 Ry     beta=0.70
     Davidson diagonalization with overlap
     ethr =  2.40E-10,  avg # of iterations =  2.0

     total cpu time spent up to now is       25.2 secs

     total energy              =    -329.49103986 Ry
     Harris-Foulkes estimate   =    -329.49103997 Ry
     estimated scf accuracy    <       0.00000002 Ry

     iteration #  8     ecut=    30.00 Ry     beta=0.70
     Davidson diagonalization with overlap
     ethr =  2.93E-11,  avg # of iterations =  2.0

     total cpu time spent up to now is       25.4 secs

     total energy              =    -329.49103990 Ry
     Harris-Foulkes estimate   =    -329.49103986 Ry
     estimated scf accuracy    <          6.1E-09 Ry

     iteration #  9     ecut=    30.00 Ry     beta=0.70
     Davidson diagonalization with overlap
     ethr =  1.10E-11,  avg # of iterations =  2.0

     total cpu time spent up to now is       25.7 secs

     total energy              =    -329.49103983 Ry
     Harris-Foulkes estimate   =    -329.49103990 Ry
     estimated scf accuracy    <          1.9E-09 Ry

     iteration # 10     ecut=    30.00 Ry     beta=0.70
     Davidson diagonalization with overlap
     ethr =  3.46E-12,  avg # of iterations =  2.0

     total cpu time spent up to now is       25.9 secs

     total energy              =    -329.49103983 Ry
     Harris-Foulkes estimate   =    -329.49103983 Ry
     estimated scf accuracy    <          2.6E-10 Ry

     iteration # 11     ecut=    30.00 Ry     beta=0.70
     Davidson diagonalization with overlap
     ethr =  4.77E-13,  avg # of iterations =  2.0

     total cpu time spent up to now is       26.1 secs

     End of self-consistent calculation

          k = 0.0000 0.0000 0.0000 ( 22119 PWs)   bands (ev):

    -8.4992  -7.7775  -7.6930  -7.2593  -6.9312  -6.8085  -6.5833  -6.5039
    -6.3199  -6.0592  -5.9555  -5.7587  -5.7164  -5.6873  -5.4397  -5.3882
    -5.3239  -5.2309  -5.2090  -5.1932  -5.1626  -5.1230  -5.0018  -4.9226
    -4.8672  -4.6733  -4.4777  -3.7775  -2.5154  -2.1495  -0.5414  -0.1503
     0.5343   0.7948

     the Fermi energy is    -3.7461 ev

!    total energy              =    -329.49103986 Ry
     Harris-Foulkes estimate   =    -329.49103983 Ry
     estimated scf accuracy    <          2.3E-11 Ry

     The total energy is the sum of the following terms:

     one-electron contribution =    -608.73781229 Ry
     hartree contribution      =     325.79760450 Ry
     xc contribution           =     -51.40292621 Ry
     ewald contribution        =       4.85613061 Ry
     smearing contrib. (-TS)   =      -0.00403646 Ry

     convergence has been achieved in  11 iterations

     Forces acting on atoms (Ry/au):

     atom    1 type  1   force =     0.00075192   -0.00041241    0.00077574
     atom    2 type  1   force =    -0.00095086   -0.00005985   -0.00339811
     atom    3 type  1   force =    -0.00013639   -0.00236954   -0.00076203
     atom    4 type  1   force =     0.00392151    0.00104837    0.00388579
     atom    5 type  1   force =    -0.00358617    0.00179343   -0.00050139

     Total force =     0.008241     Total SCF correction =     0.000023

     number of scf cycles    =   8
     number of bfgs steps    =   7

     energy   old            =    -329.4908555989 Ry
     energy   new            =    -329.4910398558 Ry

     CASE: energy  _new < energy  _old

     new trust radius        =       0.0225686621 bohr
     new conv_thr            =       0.0000000002 Ry


ATOMIC_POSITIONS (bohr)
Au      -1.700357532   1.172924055  -0.673331347
Au      -0.945206609   3.938936194   3.616577730
Au       3.076304904   1.167563903   0.962145888
Au       3.973553997   4.274020276   5.116248861
Au       7.703951240   1.368241572   3.024032869



     Writing output data file pwscf.save
     Check: negative starting charge=   -0.006468
     NEW-OLD atomic charge density approx. for the potential
     Check: negative starting charge=   -0.006466

     negative rho (up, down):  1.372E-04 0.000E+00

     total cpu time spent up to now is       26.5 secs

     per-process dynamical memory:    50.7 Mb

     Self-consistent Calculation

     iteration #  1     ecut=    30.00 Ry     beta=0.70
     Davidson diagonalization with overlap
     ethr =  1.00E-06,  avg # of iterations =  4.0

     negative rho (up, down):  1.688E-06 0.000E+00

     total cpu time spent up to now is       27.0 secs

     total energy              =    -329.49113198 Ry
     Harris-Foulkes estimate   =    -329.49114349 Ry
     estimated scf accuracy    <       0.00011214 Ry

     iteration #  2     ecut=    30.00 Ry     beta=0.70
     Davidson diagonalization with overlap
     ethr =  2.04E-07,  avg # of iterations =  3.0

     negative rho (up, down):  1.606E-07 0.000E+00

     total cpu time spent up to now is       27.3 secs

     total energy              =    -329.49113861 Ry
     Harris-Foulkes estimate   =    -329.49120197 Ry
     estimated scf accuracy    <       0.00013423 Ry

     iteration #  3     ecut=    30.00 Ry     beta=0.70
     Davidson diagonalization with overlap
     ethr =  2.04E-07,  avg # of iterations =  2.0

     total cpu time spent up to now is       27.6 secs

     total energy              =    -329.49116677 Ry
     Harris-Foulkes estimate   =    -329.49118010 Ry
     estimated scf accuracy    <       0.00003747 Ry

     iteration #  4     ecut=    30.00 Ry     beta=0.70
     Davidson diagonalization with overlap
     ethr =  6.81E-08,  avg # of iterations =  2.0

     total cpu time spent up to now is       27.9 secs

     total energy              =    -329.49117441 Ry
     Harris-Foulkes estimate   =    -329.49117540 Ry
     estimated scf accuracy    <       0.00000327 Ry

     iteration #  5     ecut=    30.00 Ry     beta=0.70
     Davidson diagonalization with overlap
     ethr =  5.95E-09,  avg # of iterations =  2.0

     total cpu time spent up to now is       28.2 secs

     total energy              =    -329.49117512 Ry
     Harris-Foulkes estimate   =    -329.49117537 Ry
     estimated scf accuracy    <       0.00000083 Ry

     iteration #  6     ecut=    30.00 Ry     beta=0.70
     Davidson diagonalization with overlap
     ethr =  1.51E-09,  avg # of iterations =  2.0

     total cpu time spent up to now is       28.6 secs

     total energy              =    -329.49117518 Ry
     Harris-Foulkes estimate   =    -329.49117531 Ry
     estimated scf accuracy    <       0.00000011 Ry

     iteration #  7     ecut=    30.00 Ry     beta=0.70
     Davidson diagonalization with overlap
     ethr =  1.92E-10,  avg # of iterations =  2.0

     total cpu time spent up to now is       29.1 secs

     total energy              =    -329.49117514 Ry
     Harris-Foulkes estimate   =    -329.49117521 Ry
     estimated scf accuracy    <       0.00000001 Ry

     iteration #  8     ecut=    30.00 Ry     beta=0.70
     Davidson diagonalization with overlap
     ethr =  1.92E-11,  avg # of iterations =  2.0

     total cpu time spent up to now is       29.4 secs

     total energy              =    -329.49117516 Ry
     Harris-Foulkes estimate   =    -329.49117515 Ry
     estimated scf accuracy    <          3.6E-09 Ry

     iteration #  9     ecut=    30.00 Ry     beta=0.70
     Davidson diagonalization with overlap
     ethr =  6.51E-12,  avg # of iterations =  2.0

     total cpu time spent up to now is       29.7 secs

     total energy              =    -329.49117515 Ry
     Harris-Foulkes estimate   =    -329.49117516 Ry
     estimated scf accuracy    <          7.0E-10 Ry

     iteration # 10     ecut=    30.00 Ry     beta=0.70
     Davidson diagonalization with overlap
     ethr =  1.27E-12,  avg # of iterations =  2.0

     total cpu time spent up to now is       30.0 secs

     End of self-consistent calculation

          k = 0.0000 0.0000 0.0000 ( 22119 PWs)   bands (ev):

    -8.5167  -7.7912  -7.6909  -7.2574  -6.9130  -6.8175  -6.5895  -6.5087
    -6.3139  -6.0713  -5.9562  -5.7627  -5.7226  -5.6892  -5.4508  -5.3819
    -5.3188  -5.2367  -5.2057  -5.1902  -5.1658  -5.1209  -5.0012  -4.9260
    -4.8637  -4.6773  -4.4831  -3.7711  -2.5077  -2.1589  -0.5428  -0.1450
     0.5317   0.8003

     the Fermi energy is    -3.7381 ev

!    total energy              =    -329.49117511 Ry
     Harris-Foulkes estimate   =    -329.49117515 Ry
     estimated scf accuracy    <          1.5E-10 Ry

     The total energy is the sum of the following terms:

     one-electron contribution =    -608.95978268 Ry
     hartree contribution      =     325.90500929 Ry
     xc contribution           =     -51.40317702 Ry
     ewald contribution        =       4.97118967 Ry
     smearing contrib. (-TS)   =      -0.00441437 Ry

     convergence has been achieved in  10 iterations

     Forces acting on atoms (Ry/au):

     atom    1 type  1   force =     0.00105155   -0.00041467    0.00045165
     atom    2 type  1   force =     0.00041126    0.00023474   -0.00235300
     atom    3 type  1   force =    -0.00149796   -0.00323988   -0.00226115
     atom    4 type  1   force =     0.00157908    0.00198354    0.00437546
     atom    5 type  1   force =    -0.00154394    0.00143626   -0.00021296

     Total force =     0.007427     Total SCF correction =     0.000053

     number of scf cycles    =   9
     number of bfgs steps    =   8

     energy   old            =    -329.4910398558 Ry
     energy   new            =    -329.4911751118 Ry

     CASE: energy  _new < energy  _old

     new trust radius        =       0.0248255283 bohr
     new conv_thr            =       0.0000000001 Ry


ATOMIC_POSITIONS (bohr)
Au      -1.700477651   1.162163839  -0.681758855
Au      -0.943616812   3.941111336   3.597025652
Au       3.068305754   1.168720018   0.979295124
Au       3.989263131   4.276299236   5.135336456
Au       7.694771578   1.373391571   3.015775623



     Writing output data file pwscf.save
     Check: negative starting charge=   -0.006466
     NEW-OLD atomic charge density approx. for the potential
     Check: negative starting charge=   -0.006463

     negative rho (up, down):  1.516E-04 0.000E+00

     total cpu time spent up to now is       30.4 secs

     per-process dynamical memory:    50.7 Mb

     Self-consistent Calculation

     iteration #  1     ecut=    30.00 Ry     beta=0.70
     Davidson diagonalization with overlap
     ethr =  1.00E-06,  avg # of iterations =  4.0

     negative rho (up, down):  2.089E-06 0.000E+00

     total cpu time spent up to now is       31.1 secs

     total energy              =    -329.49124549 Ry
     Harris-Foulkes estimate   =    -329.49125611 Ry
     estimated scf accuracy    <       0.00012263 Ry

     iteration #  2     ecut=    30.00 Ry     beta=0.70
     Davidson diagonalization with overlap
     ethr =  2.23E-07,  avg # of iterations =  3.0

     negative rho (up, down):  2.071E-07 0.000E+00

     total cpu time spent up to now is       31.4 secs

     total energy              =    -329.49125413 Ry
     Harris-Foulkes estimate   =    -329.49132149 Ry
     estimated scf accuracy    <       0.00014285 Ry

     iteration #  3     ecut=    30.00 Ry     beta=0.70
     Davidson diagonalization with overlap
     ethr =  2.23E-07,  avg # of iterations =  2.0

     total cpu time spent up to now is       31.7 secs

     total energy              =    -329.49128344 Ry
     Harris-Foulkes estimate   =    -329.49129751 Ry
     estimated scf accuracy    <       0.00003705 Ry

     iteration #  4     ecut=    30.00 Ry     beta=0.70
     Davidson diagonalization with overlap
     ethr =  6.74E-08,  avg # of iterations =  2.0

     total cpu time spent up to now is       31.9 secs

     total energy              =    -329.49129080 Ry
     Harris-Foulkes estimate   =    -329.49129243 Ry
     estimated scf accuracy    <       0.00000385 Ry

     iteration #  5     ecut=    30.00 Ry     beta=0.70
     Davidson diagonalization with overlap
     ethr =  6.99E-09,  avg # of iterations =  2.0

     total cpu time spent up to now is       32.2 secs

     total energy              =    -329.49129159 Ry
     Harris-Foulkes estimate   =    -329.49129179 Ry
     estimated scf accuracy    <       0.00000065 Ry

     iteration #  6     ecut=    30.00 Ry     beta=0.70
     Davidson diagonalization with overlap
     ethr =  1.18E-09,  avg # of iterations =  2.0

     total cpu time spent up to now is       32.5 secs

     total energy              =    -329.49129183 Ry
     Harris-Foulkes estimate   =    -329.49129175 Ry
     estimated scf accuracy    <       0.00000009 Ry

     iteration #  7     ecut=    30.00 Ry     beta=0.70
     Davidson diagonalization with overlap
     ethr =  1.71E-10,  avg # of iterations =  2.0

     total cpu time spent up to now is       32.7 secs

     total energy              =    -329.49129181 Ry
     Harris-Foulkes estimate   =    -329.49129185 Ry
     estimated scf accuracy    <       0.00000001 Ry

     iteration #  8     ecut=    30.00 Ry     beta=0.70
     Davidson diagonalization with overlap
     ethr =  2.66E-11,  avg # of iterations =  2.0

     total cpu time spent up to now is       33.1 secs

     total energy              =    -329.49129185 Ry
     Harris-Foulkes estimate   =    -329.49129182 Ry
     estimated scf accuracy    <          5.2E-09 Ry

     iteration #  9     ecut=    30.00 Ry     beta=0.70
     Davidson diagonalization with overlap
     ethr =  9.43E-12,  avg # of iterations =  2.0

     total cpu time spent up to now is       33.3 secs

     total energy              =    -329.49129185 Ry
     Harris-Foulkes estimate   =    -329.49129186 Ry
     estimated scf accuracy    <          7.8E-10 Ry

     iteration # 10     ecut=    30.00 Ry     beta=0.70
     Davidson diagonalization with overlap
     ethr =  1.43E-12,  avg # of iterations =  2.0

     total cpu time spent up to now is       33.6 secs

     End of self-consistent calculation

          k = 0.0000 0.0000 0.0000 ( 22119 PWs)   bands (ev):

    -8.5305  -7.8022  -7.6818  -7.2520  -6.8937  -6.8242  -6.5994  -6.5091
    -6.3056  -6.0820  -5.9589  -5.7655  -5.7283  -5.6901  -5.4597  -5.3748
    -5.3136  -5.2417  -5.2024  -5.1876  -5.1685  -5.1195  -4.9996  -4.9294
    -4.8594  -4.6830  -4.4870  -3.7655  -2.4996  -2.1697  -0.5434  -0.1411
     0.5288   0.8063

     the Fermi energy is    -3.7311 ev

!    total energy              =    -329.49129183 Ry
     Harris-Foulkes estimate   =    -329.49129185 Ry
     estimated scf accuracy    <          1.2E-10 Ry

     The total energy is the sum of the following terms:

     one-electron contribution =    -609.01482431 Ry
     hartree contribution      =     325.93097341 Ry
     xc contribution           =     -51.40315390 Ry
     ewald contribution        =       5.00043056 Ry
     smearing contrib. (-TS)   =      -0.00471759 Ry

     convergence has been achieved in  10 iterations

     Forces acting on atoms (Ry/au):

     atom    1 type  1   force =     0.00084047   -0.00049303   -0.00025951
     atom    2 type  1   force =     0.00192275    0.00053136   -0.00121715
     atom    3 type  1   force =    -0.00232341   -0.00355922   -0.00299639
     atom    4 type  1   force =    -0.00070850    0.00250277    0.00440052
     atom    5 type  1   force =     0.00026869    0.00101812    0.00007253

     Total force =     0.007795     Total SCF correction =     0.000051

     number of scf cycles    =  10
     number of bfgs steps    =   9

     energy   old            =    -329.4911751118 Ry
     energy   new            =    -329.4912918341 Ry

     CASE: energy  _new < energy  _old

     new trust radius        =       0.0362163686 bohr
     new conv_thr            =       0.0000000001 Ry


ATOMIC_POSITIONS (bohr)
Au      -1.700064930   1.147228890  -0.693814757
Au      -0.938282075   3.944780020   3.570268962
Au       3.054878882   1.166015181   0.998477593
Au       4.008032891   4.282373657   5.165707871
Au       7.683681232   1.381288251   3.005034330



     Writing output data file pwscf.save
     Check: negative starting charge=   -0.006463
     NEW-OLD atomic charge density approx. for the potential
     Check: negative starting charge=   -0.006452

     negative rho (up, down):  3.170E-04 0.000E+00

     total cpu time spent up to now is       33.9 secs

     per-process dynamical memory:    50.7 Mb

     Self-consistent Calculation

     iteration #  1     ecut=    30.00 Ry     beta=0.70
     Davidson diagonalization with overlap
     ethr =  1.00E-06,  avg # of iterations =  4.0

     negative rho (up, down):  8.870E-06 0.000E+00

     total cpu time spent up to now is       34.4 secs

     total energy              =    -329.49133836 Ry
     Harris-Foulkes estimate   =    -329.49130670 Ry
     estimated scf accuracy    <       0.00023076 Ry

     iteration #  2     ecut=    30.00 Ry     beta=0.70
     Davidson diagonalization with overlap
     ethr =  4.20E-07,  avg # of iterations =  3.0

     negative rho (up, down):  1.172E-06 0.000E+00

     total cpu time spent up to now is       34.7 secs

     total energy              =    -329.49136221 Ry
     Harris-Foulkes estimate   =    -329.49147290 Ry
     estimated scf accuracy    <       0.00023071 Ry

     iteration #  3     ecut=    30.00 Ry     beta=0.70
     Davidson diagonalization with overlap
     ethr =  4.19E-07,  avg # of iterations =  2.0

     negative rho (up, down):  2.559E-08 0.000E+00

     total cpu time spent up to now is       35.0 secs

     total energy              =    -329.49140881 Ry
     Harris-Foulkes estimate   =    -329.49143380 Ry
     estimated scf accuracy    <       0.00006400 Ry

     iteration #  4     ecut=    30.00 Ry     beta=0.70
     Davidson diagonalization with overlap
     ethr =  1.16E-07,  avg # of iterations =  2.0

     total cpu time spent up to now is       35.3 secs

     total energy              =    -329.49142305 Ry
     Harris-Foulkes estimate   =    -329.49142553 Ry
     estimated scf accuracy    <       0.00000886 Ry

     iteration #  5     ecut=    30.00 Ry     beta=0.70
     Davidson diagonalization with overlap
     ethr =  1.61E-08,  avg # of iterations =  2.0

     total cpu time spent up to now is       35.6 secs

     total energy              =    -329.49142435 Ry
     Harris-Foulkes estimate   =    -329.49142507 Ry
     estimated scf accuracy    <       0.00000110 Ry

     iteration #  6     ecut=    30.00 Ry     beta=0.70
     Davidson diagonalization with overlap
     ethr =  2.01E-09,  avg # of iterations =  2.0

     total cpu time spent up to now is       35.9 secs

     total energy              =    -329.49142468 Ry
     Harris-Foulkes estimate   =    -329.49142463 Ry
     estimated scf accuracy    <       0.00000013 Ry

     iteration #  7     ecut=    30.00 Ry     beta=0.70
     Davidson diagonalization with overlap
     ethr =  2.37E-10,  avg # of iterations =  2.0

     total cpu time spent up to now is       36.1 secs

     total energy              =    -329.49142455 Ry
     Harris-Foulkes estimate   =    -329.49142472 Ry
     estimated scf accuracy    <       0.00000003 Ry

     iteration #  8     ecut=    30.00 Ry     beta=0.70
     Davidson diagonalization with overlap
     ethr =  5.76E-11,  avg # of iterations =  2.0

     total cpu time spent up to now is       36.4 secs

     total energy              =    -329.49142456 Ry
     Harris-Foulkes estimate   =    -329.49142456 Ry
     estimated scf accuracy    <       0.00000001 Ry

     iteration #  9     ecut=    30.00 Ry     beta=0.70
     Davidson diagonalization with overlap
     ethr =  2.16E-11,  avg # of iterations =  2.0

     total cpu time spent up to now is       36.7 secs

     total energy              =    -329.49142458 Ry
     Harris-Foulkes estimate   =    -329.49142457 Ry
     estimated scf accuracy    <          1.2E-09 Ry

     iteration # 10     ecut=    30.00 Ry     beta=0.70
     Davidson diagonalization with overlap
     ethr =  2.17E-12,  avg # of iterations =  2.0

     total cpu time spent up to now is       37.0 secs

     total energy              =    -329.49142458 Ry
     Harris-Foulkes estimate   =    -329.49142458 Ry
     estimated scf accuracy    <          1.7E-10 Ry

     iteration # 11     ecut=    30.00 Ry     beta=0.70
     Davidson diagonalization with overlap
     ethr =  3.03E-13,  avg # of iterations =  2.0

     total cpu time spent up to now is       37.3 secs

     End of self-consistent calculation

          k = 0.0000 0.0000 0.0000 ( 22119 PWs)   bands (ev):

    -8.5418  -7.8104  -7.6663  -7.2412  -6.8685  -6.8267  -6.6111  -6.5061
    -6.2934  -6.0935  -5.9608  -5.7675  -5.7340  -5.6896  -5.4686  -5.3648
    -5.3074  -5.2478  -5.1989  -5.1853  -5.1702  -5.1182  -4.9971  -4.9337
    -4.8520  -4.6930  -4.4909  -3.7607  -2.4891  -2.1851  -0.5432  -0.1378
     0.5241   0.8149

     the Fermi energy is    -3.7252 ev

!    total energy              =    -329.49142458 Ry
     Harris-Foulkes estimate   =    -329.49142458 Ry
     estimated scf accuracy    <          1.1E-11 Ry

     The total energy is the sum of the following terms:

     one-electron contribution =    -608.81373472 Ry
     hartree contribution      =     325.83097797 Ry
     xc contribution           =     -51.40240098 Ry
     ewald contribution        =       4.89873088 Ry
     smearing contrib. (-TS)   =      -0.00499773 Ry

     convergence has been achieved in  11 iterations

     Forces acting on atoms (Ry/au):

     atom    1 type  1   force =     0.00008072   -0.00046649   -0.00127975
     atom    2 type  1   force =     0.00360978    0.00081232    0.00004161
     atom    3 type  1   force =    -0.00220596   -0.00340561   -0.00313629
     atom    4 type  1   force =    -0.00291337    0.00246317    0.00388009
     atom    5 type  1   force =     0.00142883    0.00059661    0.00049435

     Total force =     0.008609     Total SCF correction =     0.000017

     number of scf cycles    =  11
     number of bfgs steps    =  10

     energy   old            =    -329.4912918341 Ry
     energy   new            =    -329.4914245776 Ry

     CASE: energy  _new < energy  _old

     new trust radius        =       0.0419865593 bohr
     new conv_thr            =       0.0000000001 Ry


ATOMIC_POSITIONS (bohr)
Au      -1.699768702   1.131138590  -0.708082491
Au      -0.927628840   3.949697196   3.542006438
Au       3.038535541   1.157893241   1.013885276
Au       4.024134259   4.292117208   5.203240262
Au       7.672973742   1.390839765   2.994624514



     Writing output data file pwscf.save
     Check: negative starting charge=   -0.006452
     NEW-OLD atomic charge density approx. for the potential
     Check: negative starting charge=   -0.006428

     negative rho (up, down):  3.909E-04 0.000E+00

     total cpu time spent up to now is       37.6 secs

     per-process dynamical memory:    50.7 Mb

     Self-consistent Calculation

     iteration #  1     ecut=    30.00 Ry     beta=0.70
     Davidson diagonalization with overlap
     ethr =  1.00E-06,  avg # of iterations =  6.0

     negative rho (up, down):  1.313E-05 0.000E+00

     total cpu time spent up to now is       38.2 secs

     total energy              =    -329.49146349 Ry
     Harris-Foulkes estimate   =    -329.49139112 Ry
     estimated scf accuracy    <       0.00027758 Ry

     iteration #  2     ecut=    30.00 Ry     beta=0.70
     Davidson diagonalization with overlap
     ethr =  5.05E-07,  avg # of iterations =  9.0

     negative rho (up, down):  1.781E-06 0.000E+00

     total cpu time spent up to now is       38.6 secs

     total energy              =    -329.49149858 Ry
     Harris-Foulkes estimate   =    -329.49161737 Ry
     estimated scf accuracy    <       0.00024604 Ry

     iteration #  3     ecut=    30.00 Ry     beta=0.70
     Davidson diagonalization with overlap
     ethr =  4.47E-07,  avg # of iterations =  2.0

     negative rho (up, down):  4.845E-08 0.000E+00

     total cpu time spent up to now is       38.9 secs

     total energy              =    -329.49154778 Ry
     Harris-Foulkes estimate   =    -329.49157534 Ry
     estimated scf accuracy    <       0.00006827 Ry

     iteration #  4     ecut=    30.00 Ry     beta=0.70
     Davidson diagonalization with overlap
     ethr =  1.24E-07,  avg # of iterations =  2.0

     total cpu time spent up to now is       39.2 secs

     total energy              =    -329.49156295 Ry
     Harris-Foulkes estimate   =    -329.49156745 Ry
     estimated scf accuracy    <       0.00001356 Ry

     iteration #  5     ecut=    30.00 Ry     beta=0.70
     Davidson diagonalization with overlap
     ethr =  2.47E-08,  avg # of iterations =  2.0

     total cpu time spent up to now is       39.4 secs

     total energy              =    -329.49156497 Ry
     Harris-Foulkes estimate   =    -329.49156580 Ry
     estimated scf accuracy    <       0.00000144 Ry

     iteration #  6     ecut=    30.00 Ry     beta=0.70
     Davidson diagonalization with overlap
     ethr =  2.62E-09,  avg # of iterations =  2.0

     total cpu time spent up to now is       39.7 secs

     total energy              =    -329.49156534 Ry
     Harris-Foulkes estimate   =    -329.49156537 Ry
     estimated scf accuracy    <       0.00000013 Ry

     iteration #  7     ecut=    30.00 Ry     beta=0.70
     Davidson diagonalization with overlap
     ethr =  2.37E-10,  avg # of iterations =  2.0

     total cpu time spent up to now is       40.0 secs

     total energy              =    -329.49156538 Ry
     Harris-Foulkes estimate   =    -329.49156540 Ry
     estimated scf accuracy    <       0.00000005 Ry

     iteration #  8     ecut=    30.00 Ry     beta=0.70
     Davidson diagonalization with overlap
     ethr =  8.47E-11,  avg # of iterations =  2.0

     total cpu time spent up to now is       40.2 secs

     total energy              =    -329.49156535 Ry
     Harris-Foulkes estimate   =    -329.49156539 Ry
     estimated scf accuracy    <       0.00000001 Ry

     iteration #  9     ecut=    30.00 Ry     beta=0.70
     Davidson diagonalization with overlap
     ethr =  2.37E-11,  avg # of iterations =  2.0

     total cpu time spent up to now is       40.5 secs

     total energy              =    -329.49156527 Ry
     Harris-Foulkes estimate   =    -329.49156535 Ry
     estimated scf accuracy    <          7.9E-10 Ry

     iteration # 10     ecut=    30.00 Ry     beta=0.70
     Davidson diagonalization with overlap
     ethr =  1.44E-12,  avg # of iterations =  2.0

     total cpu time spent up to now is       40.8 secs

     total energy              =    -329.49156528 Ry
     Harris-Foulkes estimate   =    -329.49156527 Ry
     estimated scf accuracy    <          1.4E-10 Ry

     iteration # 11     ecut=    30.00 Ry     beta=0.70
     Davidson diagonalization with overlap
     ethr =  2.53E-13,  avg # of iterations =  2.0

     total cpu time spent up to now is       41.1 secs

     End of self-consistent calculation

          k = 0.0000 0.0000 0.0000 ( 22119 PWs)   bands (ev):

    -8.5452  -7.8105  -7.6475  -7.2261  -6.8498  -6.8168  -6.6198  -6.4990
    -6.2801  -6.1017  -5.9600  -5.7684  -5.7376  -5.6874  -5.4740  -5.3548
    -5.3025  -5.2533  -5.1967  -5.1841  -5.1704  -5.1178  -4.9940  -4.9381
    -4.8445  -4.7048  -4.4943  -3.7592  -2.4786  -2.2022  -0.5420  -0.1370
     0.5179   0.8229

     the Fermi energy is    -3.7231 ev

!    total energy              =    -329.49156528 Ry
     Harris-Foulkes estimate   =    -329.49156528 Ry
     estimated scf accuracy    <          1.1E-11 Ry

     The total energy is the sum of the following terms:

     one-electron contribution =    -608.27517664 Ry
     hartree contribution      =     325.56493391 Ry
     xc contribution           =     -51.40063587 Ry
     ewald contribution        =       4.62447586 Ry
     smearing contrib. (-TS)   =      -0.00516254 Ry

     convergence has been achieved in  11 iterations

     Forces acting on atoms (Ry/au):

     atom    1 type  1   force =    -0.00099118   -0.00025553   -0.00206603
     atom    2 type  1   force =     0.00496646    0.00087163    0.00093594
     atom    3 type  1   force =    -0.00096707   -0.00262968   -0.00250386
     atom    4 type  1   force =    -0.00423084    0.00165238    0.00255114
     atom    5 type  1   force =     0.00122264    0.00036120    0.00108282

     Total force =     0.008699     Total SCF correction =     0.000016

     number of scf cycles    =  12
     number of bfgs steps    =  11

     energy   old            =    -329.4914245776 Ry
     energy   new            =    -329.4915652833 Ry

     CASE: energy  _new < energy  _old

     new trust radius        =       0.0382947775 bohr
     new conv_thr            =       0.0000000001 Ry


ATOMIC_POSITIONS (bohr)
Au      -1.700299117   1.119647127  -0.720163412
Au      -0.911802584   3.954560071   3.520694792
Au       3.025479153   1.142928294   1.016804899
Au       4.031175265   4.303924991   5.238982261
Au       7.663693283   1.400625516   2.989355460



     Writing output data file pwscf.save
     Check: negative starting charge=   -0.006428
     NEW-OLD atomic charge density approx. for the potential
     Check: negative starting charge=   -0.006400

     negative rho (up, down):  2.868E-04 0.000E+00

     total cpu time spent up to now is       41.4 secs

     per-process dynamical memory:    50.7 Mb

     Self-consistent Calculation

     iteration #  1     ecut=    30.00 Ry     beta=0.70
     Davidson diagonalization with overlap
     ethr =  1.00E-06,  avg # of iterations =  4.0

     negative rho (up, down):  7.516E-06 0.000E+00

     total cpu time spent up to now is       41.9 secs

     total energy              =    -329.49164647 Ry
     Harris-Foulkes estimate   =    -329.49161117 Ry
     estimated scf accuracy    <       0.00019844 Ry

     iteration #  2     ecut=    30.00 Ry     beta=0.70
     Davidson diagonalization with overlap
     ethr =  3.61E-07,  avg # of iterations =  3.0

     negative rho (up, down):  7.637E-07 0.000E+00

     total cpu time spent up to now is       42.2 secs

     total energy              =    -329.49167071 Ry
     Harris-Foulkes estimate   =    -329.49175085 Ry
     estimated scf accuracy    <       0.00016207 Ry

     iteration #  3     ecut=    30.00 Ry     beta=0.70
     Davidson diagonalization with overlap
     ethr =  2.95E-07,  avg # of iterations =  2.0

     total cpu time spent up to now is       42.5 secs

     total energy              =    -329.49170359 Ry
     Harris-Foulkes estimate   =    -329.49172230 Ry
     estimated scf accuracy    <       0.00004522 Ry

     iteration #  4     ecut=    30.00 Ry     beta=0.70
     Davidson diagonalization with overlap
     ethr =  8.22E-08,  avg # of iterations =  2.0

     total cpu time spent up to now is       42.9 secs

[...]

     total cpu time spent up to now is      107.8 secs

     per-process dynamical memory:    50.7 Mb

     Self-consistent Calculation

     iteration #  1     ecut=    30.00 Ry     beta=0.70
     Davidson diagonalization with overlap
     ethr =  1.00E-06,  avg # of iterations =  4.0

     Threshold (ethr) on eigenvalues was too large:
     Diagonalizing with lowered threshold

     Davidson diagonalization with overlap
     ethr =  6.03E-08,  avg # of iterations =  1.0

     negative rho (up, down):  3.581E-08 0.000E+00

     total cpu time spent up to now is      108.4 secs

     total energy              =    -329.49271634 Ry
     Harris-Foulkes estimate   =    -329.49272469 Ry
     estimated scf accuracy    <       0.00003362 Ry

     iteration #  2     ecut=    30.00 Ry     beta=0.70
     Davidson diagonalization with overlap
     ethr =  6.11E-08,  avg # of iterations =  3.0

     total cpu time spent up to now is      108.8 secs

     total energy              =    -329.49271583 Ry
     Harris-Foulkes estimate   =    -329.49274048 Ry
     estimated scf accuracy    <       0.00005582 Ry

     iteration #  3     ecut=    30.00 Ry     beta=0.70
     Davidson diagonalization with overlap
     ethr =  6.11E-08,  avg # of iterations =  2.0

     total cpu time spent up to now is      109.0 secs

     total energy              =    -329.49272689 Ry
     Harris-Foulkes estimate   =    -329.49273085 Ry
     estimated scf accuracy    <       0.00001005 Ry

     iteration #  4     ecut=    30.00 Ry     beta=0.70
     Davidson diagonalization with overlap
     ethr =  1.83E-08,  avg # of iterations =  2.0

     total cpu time spent up to now is      109.3 secs

     total energy              =    -329.49272907 Ry
     Harris-Foulkes estimate   =    -329.49272941 Ry
     estimated scf accuracy    <       0.00000135 Ry

     iteration #  5     ecut=    30.00 Ry     beta=0.70
     Davidson diagonalization with overlap
     ethr =  2.46E-09,  avg # of iterations =  2.0

     total cpu time spent up to now is      109.6 secs

     total energy              =    -329.49272935 Ry
     Harris-Foulkes estimate   =    -329.49272943 Ry
     estimated scf accuracy    <       0.00000021 Ry

     iteration #  6     ecut=    30.00 Ry     beta=0.70
     Davidson diagonalization with overlap
     ethr =  3.87E-10,  avg # of iterations =  2.0

     total cpu time spent up to now is      109.8 secs

     total energy              =    -329.49272931 Ry
     Harris-Foulkes estimate   =    -329.49272941 Ry
     estimated scf accuracy    <       0.00000002 Ry

     iteration #  7     ecut=    30.00 Ry     beta=0.70
     Davidson diagonalization with overlap
     ethr =  3.86E-11,  avg # of iterations =  2.0

     total cpu time spent up to now is      110.1 secs

     total energy              =    -329.49272921 Ry
     Harris-Foulkes estimate   =    -329.49272932 Ry
     estimated scf accuracy    <          3.6E-09 Ry

     iteration #  8     ecut=    30.00 Ry     beta=0.70
     Davidson diagonalization with overlap
     ethr =  6.55E-12,  avg # of iterations =  2.0

     total cpu time spent up to now is      110.5 secs

     total energy              =    -329.49272919 Ry
     Harris-Foulkes estimate   =    -329.49272921 Ry
     estimated scf accuracy    <          9.8E-10 Ry

     iteration #  9     ecut=    30.00 Ry     beta=0.70
     Davidson diagonalization with overlap
     ethr =  1.79E-12,  avg # of iterations =  2.0

     total cpu time spent up to now is      110.8 secs

     total energy              =    -329.49272919 Ry
     Harris-Foulkes estimate   =    -329.49272919 Ry
     estimated scf accuracy    <          2.6E-10 Ry

     iteration # 10     ecut=    30.00 Ry     beta=0.70
     Davidson diagonalization with overlap
     ethr =  4.68E-13,  avg # of iterations =  2.0

     total cpu time spent up to now is      111.0 secs

     End of self-consistent calculation

          k = 0.0000 0.0000 0.0000 ( 22119 PWs)   bands (ev):

    -8.5179  -7.7872  -7.6593  -7.2319  -6.8699  -6.8190  -6.6060  -6.4885
    -6.3032  -6.0795  -5.9567  -5.7665  -5.7288  -5.6859  -5.4557  -5.3627
    -5.3125  -5.2439  -5.1990  -5.1847  -5.1652  -5.1192  -4.9933  -4.9257
    -4.8492  -4.7086  -4.4825  -3.7724  -2.4442  -2.2069  -0.5332  -0.1499
     0.4672   0.8018

     the Fermi energy is    -3.7390 ev

!    total energy              =    -329.49272919 Ry
     Harris-Foulkes estimate   =    -329.49272919 Ry
     estimated scf accuracy    <          2.5E-11 Ry

     The total energy is the sum of the following terms:

     one-electron contribution =    -607.04391862 Ry
     hartree contribution      =     324.95411730 Ry
     xc contribution           =     -51.40055410 Ry
     ewald contribution        =       4.00215705 Ry
     smearing contrib. (-TS)   =      -0.00453083 Ry

     convergence has been achieved in  10 iterations

     Forces acting on atoms (Ry/au):

     atom    1 type  1   force =     0.00133806   -0.00039594   -0.00063350
     atom    2 type  1   force =     0.00011546    0.00071398   -0.00000703
     atom    3 type  1   force =    -0.00233979   -0.00108210   -0.00059997
     atom    4 type  1   force =    -0.00043562   -0.00058956   -0.00067292
     atom    5 type  1   force =     0.00132190    0.00135363    0.00191341

     Total force =     0.004255     Total SCF correction =     0.000022

     number of scf cycles    =  33
     number of bfgs steps    =  32

     energy   old            =    -329.4926743549 Ry
     energy   new            =    -329.4927291937 Ry

     CASE: energy  _new < energy  _old

     new trust radius        =       0.0189639824 bohr
     new conv_thr            =            1.0E-10 Ry


ATOMIC_POSITIONS (bohr)
Au      -1.629942997   1.052083316  -0.867985503
Au      -0.809507507   3.999021990   3.300286584
Au       3.059375034   1.111042431   1.010472124
Au       3.938671197   4.410083424   5.327918929
Au       7.549650273   1.349454839   3.274981866



     Writing output data file pwscf.save
     Check: negative starting charge=   -0.006290
     NEW-OLD atomic charge density approx. for the potential
     Check: negative starting charge=   -0.006296

     negative rho (up, down):  6.137E-05 0.000E+00

     total cpu time spent up to now is      111.4 secs

     per-process dynamical memory:    50.7 Mb

     Self-consistent Calculation

     iteration #  1     ecut=    30.00 Ry     beta=0.70
     Davidson diagonalization with overlap
     ethr =  1.00E-06,  avg # of iterations =  4.0

     negative rho (up, down):  3.559E-07 0.000E+00

     total cpu time spent up to now is      111.8 secs

     total energy              =    -329.49274498 Ry
     Harris-Foulkes estimate   =    -329.49275906 Ry
     estimated scf accuracy    <       0.00006340 Ry

     iteration #  2     ecut=    30.00 Ry     beta=0.70
     Davidson diagonalization with overlap
     ethr =  1.15E-07,  avg # of iterations =  3.0

     negative rho (up, down):  2.324E-08 0.000E+00

     total cpu time spent up to now is      112.1 secs

     total energy              =    -329.49275178 Ry
     Harris-Foulkes estimate   =    -329.49278255 Ry
     estimated scf accuracy    <       0.00006679 Ry

     iteration #  3     ecut=    30.00 Ry     beta=0.70
     Davidson diagonalization with overlap
     ethr =  1.15E-07,  avg # of iterations =  2.0

     total cpu time spent up to now is      112.5 secs

     total energy              =    -329.49276495 Ry
     Harris-Foulkes estimate   =    -329.49276929 Ry
     estimated scf accuracy    <       0.00000960 Ry

     iteration #  4     ecut=    30.00 Ry     beta=0.70
     Davidson diagonalization with overlap
     ethr =  1.75E-08,  avg # of iterations =  2.0

     total cpu time spent up to now is      112.8 secs

     total energy              =    -329.49276759 Ry
     Harris-Foulkes estimate   =    -329.49276929 Ry
     estimated scf accuracy    <       0.00000687 Ry

     iteration #  5     ecut=    30.00 Ry     beta=0.70
     Davidson diagonalization with overlap
     ethr =  1.25E-08,  avg # of iterations =  2.0

     total cpu time spent up to now is      113.0 secs

     total energy              =    -329.49276824 Ry
     Harris-Foulkes estimate   =    -329.49276880 Ry
     estimated scf accuracy    <       0.00000017 Ry

     iteration #  6     ecut=    30.00 Ry     beta=0.70
     Davidson diagonalization with overlap
     ethr =  3.07E-10,  avg # of iterations =  3.0

     total cpu time spent up to now is      113.4 secs

     total energy              =    -329.49276841 Ry
     Harris-Foulkes estimate   =    -329.49276832 Ry
     estimated scf accuracy    <       0.00000005 Ry

     iteration #  7     ecut=    30.00 Ry     beta=0.70
     Davidson diagonalization with overlap
     ethr =  8.62E-11,  avg # of iterations =  2.0

     total cpu time spent up to now is      113.7 secs

     total energy              =    -329.49276841 Ry
     Harris-Foulkes estimate   =    -329.49276842 Ry
     estimated scf accuracy    <          7.1E-09 Ry

     iteration #  8     ecut=    30.00 Ry     beta=0.70
     Davidson diagonalization with overlap
     ethr =  1.29E-11,  avg # of iterations =  2.0

     total cpu time spent up to now is      113.9 secs

     total energy              =    -329.49276848 Ry
     Harris-Foulkes estimate   =    -329.49276841 Ry
     estimated scf accuracy    <          1.7E-09 Ry

     iteration #  9     ecut=    30.00 Ry     beta=0.70
     Davidson diagonalization with overlap
     ethr =  3.15E-12,  avg # of iterations =  2.0

     total cpu time spent up to now is      114.2 secs

     total energy              =    -329.49276849 Ry
     Harris-Foulkes estimate   =    -329.49276848 Ry
     estimated scf accuracy    <          2.2E-10 Ry

     iteration # 10     ecut=    30.00 Ry     beta=0.70
     Davidson diagonalization with overlap
     ethr =  3.98E-13,  avg # of iterations =  2.0

     total cpu time spent up to now is      114.5 secs

     End of self-consistent calculation

          k = 0.0000 0.0000 0.0000 ( 22119 PWs)   bands (ev):

    -8.5233  -7.7902  -7.6630  -7.2331  -6.8717  -6.8225  -6.6051  -6.4902
    -6.3044  -6.0820  -5.9558  -5.7690  -5.7309  -5.6870  -5.4549  -5.3627
    -5.3122  -5.2440  -5.1989  -5.1834  -5.1664  -5.1189  -4.9917  -4.9257
    -4.8483  -4.7079  -4.4819  -3.7723  -2.4404  -2.2064  -0.5331  -0.1498
     0.4670   0.8002

     the Fermi energy is    -3.7389 ev

!    total energy              =    -329.49276849 Ry
     Harris-Foulkes estimate   =    -329.49276849 Ry
     estimated scf accuracy    <          4.8E-11 Ry

     The total energy is the sum of the following terms:

     one-electron contribution =    -607.20553924 Ry
     hartree contribution      =     325.03386854 Ry
     xc contribution           =     -51.40136569 Ry
     ewald contribution        =       4.08478399 Ry
     smearing contrib. (-TS)   =      -0.00451609 Ry

     convergence has been achieved in  10 iterations

     Forces acting on atoms (Ry/au):

     atom    1 type  1   force =    -0.00051975    0.00013912   -0.00097918
     atom    2 type  1   force =    -0.00027958    0.00074716    0.00020577
     atom    3 type  1   force =     0.00000304   -0.00117771    0.00015720
     atom    4 type  1   force =    -0.00010098   -0.00077405   -0.00037458
     atom    5 type  1   force =     0.00089727    0.00106548    0.00099078

     Total force =     0.002648     Total SCF correction =     0.000031

     number of scf cycles    =  34
     number of bfgs steps    =  33

     energy   old            =    -329.4927291937 Ry
     energy   new            =    -329.4927684926 Ry

     CASE: energy  _new < energy  _old

     new trust radius        =       0.0063390625 bohr
     new conv_thr            =            1.0E-10 Ry


ATOMIC_POSITIONS (bohr)
Au      -1.628433474   1.052156719  -0.870394965
Au      -0.807824194   4.000600825   3.298453383
Au       3.059040332   1.108189284   1.008977523
Au       3.936062473   4.410169065   5.327420995
Au       7.549400862   1.350570106   3.281217064



     Writing output data file pwscf.save
     Check: negative starting charge=   -0.006296
     NEW-OLD atomic charge density approx. for the potential
     Check: negative starting charge=   -0.006295

     negative rho (up, down):  2.688E-07 0.000E+00

     total cpu time spent up to now is      114.9 secs

     per-process dynamical memory:    50.7 Mb

     Self-consistent Calculation

     iteration #  1     ecut=    30.00 Ry     beta=0.70
     Davidson diagonalization with overlap
     ethr =  1.00E-06,  avg # of iterations =  3.0

     Threshold (ethr) on eigenvalues was too large:
     Diagonalizing with lowered threshold

     Davidson diagonalization with overlap
     ethr =  7.93E-09,  avg # of iterations =  2.0

     total cpu time spent up to now is      115.7 secs

     total energy              =    -329.49277673 Ry
     Harris-Foulkes estimate   =    -329.49277687 Ry
     estimated scf accuracy    <       0.00000468 Ry

     iteration #  2     ecut=    30.00 Ry     beta=0.70
     Davidson diagonalization with overlap
     ethr =  8.52E-09,  avg # of iterations =  3.0

     total cpu time spent up to now is      116.0 secs

     total energy              =    -329.49277773 Ry
     Harris-Foulkes estimate   =    -329.49277914 Ry
     estimated scf accuracy    <       0.00000378 Ry

     iteration #  3     ecut=    30.00 Ry     beta=0.70
     Davidson diagonalization with overlap
     ethr =  6.88E-09,  avg # of iterations =  2.0

     total cpu time spent up to now is      116.3 secs

     total energy              =    -329.49277851 Ry
     Harris-Foulkes estimate   =    -329.49277873 Ry
     estimated scf accuracy    <       0.00000043 Ry

     iteration #  4     ecut=    30.00 Ry     beta=0.70
     Davidson diagonalization with overlap
     ethr =  7.87E-10,  avg # of iterations =  2.0

     total cpu time spent up to now is      116.6 secs

     total energy              =    -329.49277860 Ry
     Harris-Foulkes estimate   =    -329.49277872 Ry
     estimated scf accuracy    <       0.00000040 Ry

     iteration #  5     ecut=    30.00 Ry     beta=0.70
     Davidson diagonalization with overlap
     ethr =  7.25E-10,  avg # of iterations =  2.0

     total cpu time spent up to now is      117.0 secs

     total energy              =    -329.49277860 Ry
     Harris-Foulkes estimate   =    -329.49277869 Ry
     estimated scf accuracy    <       0.00000003 Ry

     iteration #  6     ecut=    30.00 Ry     beta=0.70
     Davidson diagonalization with overlap
     ethr =  5.15E-11,  avg # of iterations =  2.0

     total cpu time spent up to now is      117.4 secs

     total energy              =    -329.49277853 Ry
     Harris-Foulkes estimate   =    -329.49277860 Ry
     estimated scf accuracy    <          2.7E-09 Ry

     iteration #  7     ecut=    30.00 Ry     beta=0.70
     Davidson diagonalization with overlap
     ethr =  4.82E-12,  avg # of iterations =  3.0

     total cpu time spent up to now is      117.8 secs

     total energy              =    -329.49277856 Ry
     Harris-Foulkes estimate   =    -329.49277853 Ry
     estimated scf accuracy    <          1.1E-09 Ry

     iteration #  8     ecut=    30.00 Ry     beta=0.70
     Davidson diagonalization with overlap
     ethr =  1.96E-12,  avg # of iterations =  2.0

     total cpu time spent up to now is      118.0 secs

     total energy              =    -329.49277854 Ry
     Harris-Foulkes estimate   =    -329.49277856 Ry
     estimated scf accuracy    <          1.5E-10 Ry

     iteration #  9     ecut=    30.00 Ry     beta=0.70
     Davidson diagonalization with overlap
     ethr =  2.70E-13,  avg # of iterations =  2.0

     total cpu time spent up to now is      118.3 secs

     End of self-consistent calculation

          k = 0.0000 0.0000 0.0000 ( 22119 PWs)   bands (ev):

    -8.5207  -7.7887  -7.6640  -7.2345  -6.8736  -6.8212  -6.6048  -6.4898
    -6.3062  -6.0801  -5.9556  -5.7689  -5.7303  -5.6870  -5.4540  -5.3635
    -5.3128  -5.2433  -5.1991  -5.1834  -5.1665  -5.1191  -4.9924  -4.9247
    -4.8483  -4.7085  -4.4809  -3.7728  -2.4415  -2.2049  -0.5330  -0.1502
     0.4660   0.7998

     the Fermi energy is    -3.7396 ev

!    total energy              =    -329.49277856 Ry
     Harris-Foulkes estimate   =    -329.49277854 Ry
     estimated scf accuracy    <          2.5E-11 Ry

     The total energy is the sum of the following terms:

     one-electron contribution =    -607.17789734 Ry
     hartree contribution      =     325.02023120 Ry
     xc contribution           =     -51.40134408 Ry
     ewald contribution        =       4.07070834 Ry
     smearing contrib. (-TS)   =      -0.00447667 Ry

     convergence has been achieved in   9 iterations

     Forces acting on atoms (Ry/au):

     atom    1 type  1   force =    -0.00070968    0.00026023   -0.00093248
     atom    2 type  1   force =    -0.00057434    0.00066644    0.00005926
     atom    3 type  1   force =     0.00046619   -0.00099811    0.00050188
     atom    4 type  1   force =     0.00013065   -0.00078658   -0.00020248
     atom    5 type  1   force =     0.00068718    0.00085802    0.00057382

     Total force =     0.002429     Total SCF correction =     0.000021

     bfgs converged in  35 scf cycles and  34 bfgs steps
     (criteria: energy <  1.0E-04, force <  1.0E-03)

     End of BFGS Geometry Optimization

     Final energy   =    -329.4927785568 Ry
Begin final coordinates

ATOMIC_POSITIONS (bohr)
Au      -1.628433474   1.052156719  -0.870394965
Au      -0.807824194   4.000600825   3.298453383
Au       3.059040332   1.108189284   1.008977523
Au       3.936062473   4.410169065   5.327420995
Au       7.549400862   1.350570106   3.281217064
End final coordinates



     Writing output data file pwscf.save
 
     init_run     :      0.19s CPU      0.24s WALL (       1 calls)
     electrons    :     96.47s CPU    109.62s WALL (      35 calls)
     update_pot   :      2.83s CPU      3.84s WALL (      34 calls)
     forces       :      1.76s CPU      1.96s WALL (      35 calls)

     Called by init_run:
     wfcinit      :      0.08s CPU      0.12s WALL (       1 calls)
     potinit      :      0.04s CPU      0.04s WALL (       1 calls)

     Called by electrons:
     c_bands      :     73.88s CPU     80.06s WALL (     364 calls)
     sum_band     :     10.50s CPU     11.43s WALL (     364 calls)
     v_of_rho     :      8.34s CPU      9.05s WALL (     386 calls)
     mix_rho      :      3.30s CPU      6.97s WALL (     364 calls)

     Called by c_bands:
     init_us_2    :      1.28s CPU      1.42s WALL (     729 calls)
     cegterg      :     66.19s CPU     71.58s WALL (     364 calls)

     Called by sum_band:

     Called by *egterg:
     h_psi        :     52.17s CPU     56.33s WALL (    1250 calls)
     g_psi        :      0.48s CPU      0.52s WALL (     885 calls)
     cdiaghg      :      3.26s CPU      3.49s WALL (    1202 calls)

     Called by h_psi:
     h_psi:pot    :     51.50s CPU     55.61s WALL (    1250 calls)
     h_psi:calbec :      2.83s CPU      3.08s WALL (    1250 calls)
     vloc_psi     :     45.64s CPU     49.29s WALL (    1250 calls)
     add_vuspsi   :      3.02s CPU      3.23s WALL (    1250 calls)

     General routines
     calbec       :      3.29s CPU      3.59s WALL (    1390 calls)
     fft          :      4.67s CPU      5.15s WALL (    4341 calls)
     fftw         :     48.99s CPU     52.55s WALL (   80820 calls)
     davcio       :      0.47s CPU      3.30s WALL (    3772 calls)
 
     Parallel routines
     fft_scatter  :     15.24s CPU     16.54s WALL (   85161 calls)
 
     PWSCF        :  1m42.41s CPU     1m58.68s WALL

 
   This run was terminated on:  13:35:39   3Aug2017            

=------------------------------------------------------------------------------=
   JOB DONE.
=------------------------------------------------------------------------------=
