
     Program PWSCF v.6.0 (svn rev. 13079) starts on  4Aug2017 at  1:27: 0 

     This program is part of the open-source Quantum ESPRESSO suite
     for quantum simulation of materials; please cite
         "P. Giannozzi et al., J. Phys.:Condens. Matter 21 395502 (2009);
          URL http://www.quantum-espresso.org", 
     in publications or presentations arising from this work. More details at
     http://www.quantum-espresso.org/quote

     Parallel version (MPI), running on    10 processors
     R & G space division:  proc/nbgrp/npool/nimage =      10
     Reading input from input/multi/minchecks-Gold5-635.in

     Current dimensions of program PWSCF are:
     Max number of different atomic species (ntypx) = 10
     Max number of k-points (npk) =  40000
     Max angular momentum in pseudopotentials (lmaxx) =  3
     Message from routine iosys:
     pot_extrapolation='second-order' not available, using 'atomic'
     Message from routine iosys:
     wfc_extrapolation='second-order' not available, using 'atomic'

     Subspace diagonalization in iterative solution of the eigenvalue problem:
     a serial algorithm will be used

 
     Parallelization info
     --------------------
     sticks:   dense  smooth     PW     G-vecs:    dense   smooth      PW
     Min         380     380     94                17748    17748    2208
     Max         381     381     95                17753    17753    2213
     Sum        3809    3809    949               177509   177509   22119
 


     bravais-lattice index     =            1
     lattice parameter (alat)  =      20.0000  a.u.
     unit-cell volume          =    8000.0000 (a.u.)^3
     number of atoms/cell      =            5
     number of atomic types    =            1
     number of electrons       =        55.00
     number of Kohn-Sham states=           34
     kinetic-energy cutoff     =      30.0000  Ry
     charge density cutoff     =     120.0000  Ry
     convergence threshold     =      1.0E-08
     mixing beta               =       0.7000
     number of iterations used =            8  plain     mixing
     Exchange-correlation      = BLYP ( 1  3  1  3 0 0)
     nstep                     =           50


     celldm(1)=  20.000000  celldm(2)=   0.000000  celldm(3)=   0.000000
     celldm(4)=   0.000000  celldm(5)=   0.000000  celldm(6)=   0.000000

     crystal axes: (cart. coord. in units of alat)
               a(1) = (   1.000000   0.000000   0.000000 )  
               a(2) = (   0.000000   1.000000   0.000000 )  
               a(3) = (   0.000000   0.000000   1.000000 )  

     reciprocal axes: (cart. coord. in units 2 pi/alat)
               b(1) = (  1.000000  0.000000  0.000000 )  
               b(2) = (  0.000000  1.000000  0.000000 )  
               b(3) = (  0.000000  0.000000  1.000000 )  


     PseudoPot. # 1 for Au read from file:
     ./Au.blyp-d-hgh.UPF
     MD5 check sum: c10d8bae01f806c36a1643a1c69a8479
     Pseudo is Norm-conserving, Zval = 11.0
     Generated in analytical, separable form
     Using radial grid of 1279 points,  6 beta functions with: 
                l(1) =   0
                l(2) =   0
                l(3) =   1
                l(4) =   1
                l(5) =   2
                l(6) =   2

     atomic species   valence    mass     pseudopotential
        Au            11.00    28.08600     Au( 1.00)

     No symmetry found



   Cartesian axes

     site n.     atom                  positions (alat units)
         1           Au  tau(   1) = (  -0.1044817   0.0673779  -0.0178812  )
         2           Au  tau(   2) = (   0.0119678   0.1230398   0.2112735  )
         3           Au  tau(   3) = (   0.1395322   0.0885424   0.0012388  )
         4           Au  tau(   4) = (   0.2257682   0.2379244   0.3005558  )
         5           Au  tau(   5) = (   0.3327009   0.0573287   0.1434384  )

     number of k points=     1  Marzari-Vanderbilt smearing, width (Ry)=  0.0250
                       cart. coord. in units 2pi/alat
        k(    1) = (   0.0000000   0.0000000   0.0000000), wk =   2.0000000

     Dense  grid:   177509 G-vectors     FFT dimensions: (  72,  72,  72)

     Estimated max dynamical RAM per process >      15.04Mb

     Estimated total allocated dynamical RAM >     150.39Mb

     Initial potential from superposition of free atoms
     Check: negative starting charge=   -0.006363

     starting charge   54.99940, renormalised to   55.00000

     negative rho (up, down):  6.363E-03 0.000E+00
     Starting wfc are   45 randomized atomic wfcs

     total cpu time spent up to now is        0.3 secs

     per-process dynamical memory:    41.0 Mb

     Self-consistent Calculation

     iteration #  1     ecut=    30.00 Ry     beta=0.70
     Davidson diagonalization with overlap
     ethr =  1.00E-02,  avg # of iterations =  3.0

     Threshold (ethr) on eigenvalues was too large:
     Diagonalizing with lowered threshold

     Davidson diagonalization with overlap
     ethr =  4.02E-04,  avg # of iterations =  8.0

     negative rho (up, down):  8.433E-04 0.000E+00

     total cpu time spent up to now is        0.7 secs

     total energy              =    -329.35465465 Ry
     Harris-Foulkes estimate   =    -329.51960859 Ry
     estimated scf accuracy    <       0.27704738 Ry

     iteration #  2     ecut=    30.00 Ry     beta=0.70
     Davidson diagonalization with overlap
     ethr =  5.04E-04,  avg # of iterations =  3.0

     negative rho (up, down):  3.265E-04 0.000E+00

     total cpu time spent up to now is        1.0 secs

     total energy              =    -329.42305657 Ry
     Harris-Foulkes estimate   =    -329.51514266 Ry
     estimated scf accuracy    <       0.17925645 Ry

     iteration #  3     ecut=    30.00 Ry     beta=0.70
     Davidson diagonalization with overlap
     ethr =  3.26E-04,  avg # of iterations =  2.0

     negative rho (up, down):  1.155E-04 0.000E+00

     total cpu time spent up to now is        1.2 secs

     total energy              =    -329.45755593 Ry
     Harris-Foulkes estimate   =    -329.46636779 Ry
     estimated scf accuracy    <       0.01953095 Ry

     iteration #  4     ecut=    30.00 Ry     beta=0.70
     Davidson diagonalization with overlap
     ethr =  3.55E-05,  avg # of iterations =  3.0

     negative rho (up, down):  5.404E-06 0.000E+00

     total cpu time spent up to now is        1.5 secs

     total energy              =    -329.46123254 Ry
     Harris-Foulkes estimate   =    -329.46363799 Ry
     estimated scf accuracy    <       0.00632769 Ry

     iteration #  5     ecut=    30.00 Ry     beta=0.70
     Davidson diagonalization with overlap
     ethr =  1.15E-05,  avg # of iterations =  3.0

     total cpu time spent up to now is        1.7 secs

     total energy              =    -329.46192962 Ry
     Harris-Foulkes estimate   =    -329.46406053 Ry
     estimated scf accuracy    <       0.00807987 Ry

     iteration #  6     ecut=    30.00 Ry     beta=0.70
     Davidson diagonalization with overlap
     ethr =  1.15E-05,  avg # of iterations =  2.0

     total cpu time spent up to now is        1.9 secs

     total energy              =    -329.46288496 Ry
     Harris-Foulkes estimate   =    -329.46300695 Ry
     estimated scf accuracy    <       0.00028574 Ry

     iteration #  7     ecut=    30.00 Ry     beta=0.70
     Davidson diagonalization with overlap
     ethr =  5.20E-07,  avg # of iterations =  3.0

     total cpu time spent up to now is        2.1 secs

     total energy              =    -329.46296573 Ry
     Harris-Foulkes estimate   =    -329.46297183 Ry
     estimated scf accuracy    <       0.00001620 Ry

     iteration #  8     ecut=    30.00 Ry     beta=0.70
     Davidson diagonalization with overlap
     ethr =  2.95E-08,  avg # of iterations =  2.0

     total cpu time spent up to now is        2.3 secs

     total energy              =    -329.46296847 Ry
     Harris-Foulkes estimate   =    -329.46297144 Ry
     estimated scf accuracy    <       0.00000599 Ry

     iteration #  9     ecut=    30.00 Ry     beta=0.70
     Davidson diagonalization with overlap
     ethr =  1.09E-08,  avg # of iterations =  2.0

     total cpu time spent up to now is        2.6 secs

     total energy              =    -329.46296940 Ry
     Harris-Foulkes estimate   =    -329.46296981 Ry
     estimated scf accuracy    <       0.00000030 Ry

     iteration # 10     ecut=    30.00 Ry     beta=0.70
     Davidson diagonalization with overlap
     ethr =  5.37E-10,  avg # of iterations =  2.0

     total cpu time spent up to now is        2.8 secs

     total energy              =    -329.46296951 Ry
     Harris-Foulkes estimate   =    -329.46296949 Ry
     estimated scf accuracy    <       0.00000007 Ry

     iteration # 11     ecut=    30.00 Ry     beta=0.70
     Davidson diagonalization with overlap
     ethr =  1.27E-10,  avg # of iterations =  2.0

     total cpu time spent up to now is        3.0 secs

     End of self-consistent calculation

          k = 0.0000 0.0000 0.0000 ( 22119 PWs)   bands (ev):

    -8.4829  -7.8842  -7.7311  -7.3084  -6.9441  -6.8971  -6.7037  -6.4565
    -6.2731  -5.9781  -5.8506  -5.7957  -5.7191  -5.5747  -5.5411  -5.4859
    -5.2298  -5.1850  -5.1612  -5.1299  -5.1155  -5.0083  -4.9513  -4.8781
    -4.7897  -4.5533  -4.2865  -3.6822  -2.4857  -2.1661  -0.3815  -0.1513
     0.3943   0.5400

     the Fermi energy is    -3.6654 ev

!    total energy              =    -329.46296955 Ry
     Harris-Foulkes estimate   =    -329.46296953 Ry
     estimated scf accuracy    <          9.3E-09 Ry

     The total energy is the sum of the following terms:

     one-electron contribution =    -613.09589830 Ry
     hartree contribution      =     328.05640025 Ry
     xc contribution           =     -51.44681141 Ry
     ewald contribution        =       7.02437376 Ry
     smearing contrib. (-TS)   =      -0.00103385 Ry

     convergence has been achieved in  11 iterations

     Forces acting on atoms (Ry/au):

     atom    1 type  1   force =    -0.02583295    0.00035203    0.00325325
     atom    2 type  1   force =    -0.01375036    0.01272326    0.01768758
     atom    3 type  1   force =     0.00837543   -0.00372199   -0.04506337
     atom    4 type  1   force =    -0.00376485   -0.01455471   -0.00216622
     atom    5 type  1   force =     0.03497274    0.00520141    0.02628876

     Total force =     0.075023     Total SCF correction =     0.000395

     BFGS Geometry Optimization

     number of scf cycles    =   1
     number of bfgs steps    =   0

     energy   new            =    -329.4629695505 Ry

     new trust radius        =       0.0459859581 bohr
     new conv_thr            =       0.0000000100 Ry


ATOMIC_POSITIONS (bohr)
Au      -2.115466948   1.347911031  -0.354369745
Au       0.225604638   2.473518256   4.243156584
Au       2.799020428   1.767126015  -0.020287371
Au       4.511599147   4.743933291   6.008949776
Au       6.688991736   1.151774407   2.895057756



     Writing output data file pwscf.save
     Check: negative starting charge=   -0.006363
     NEW-OLD atomic charge density approx. for the potential
     Check: negative starting charge=   -0.006325

     negative rho (up, down):  4.671E-04 0.000E+00

     total cpu time spent up to now is        3.2 secs

     per-process dynamical memory:    42.9 Mb

     Self-consistent Calculation

     iteration #  1     ecut=    30.00 Ry     beta=0.70
     Davidson diagonalization with overlap
     ethr =  1.00E-06,  avg # of iterations =  5.0

     negative rho (up, down):  1.794E-05 0.000E+00

     total cpu time spent up to now is        3.6 secs

     total energy              =    -329.46747128 Ry
     Harris-Foulkes estimate   =    -329.46736932 Ry
     estimated scf accuracy    <       0.00041940 Ry

     iteration #  2     ecut=    30.00 Ry     beta=0.70
     Davidson diagonalization with overlap
     ethr =  7.63E-07,  avg # of iterations =  4.0

     negative rho (up, down):  8.197E-06 0.000E+00

     total cpu time spent up to now is        3.9 secs

     total energy              =    -329.46725420 Ry
     Harris-Foulkes estimate   =    -329.46798605 Ry
     estimated scf accuracy    <       0.00240832 Ry

     iteration #  3     ecut=    30.00 Ry     beta=0.70
     Davidson diagonalization with overlap
     ethr =  7.63E-07,  avg # of iterations =  3.0

     negative rho (up, down):  1.905E-07 0.000E+00

     total cpu time spent up to now is        4.1 secs

     total energy              =    -329.46763789 Ry
     Harris-Foulkes estimate   =    -329.46767663 Ry
     estimated scf accuracy    <       0.00016462 Ry

     iteration #  4     ecut=    30.00 Ry     beta=0.70
     Davidson diagonalization with overlap
     ethr =  2.99E-07,  avg # of iterations =  2.0

     total cpu time spent up to now is        4.3 secs

     total energy              =    -329.46766227 Ry
     Harris-Foulkes estimate   =    -329.46766999 Ry
     estimated scf accuracy    <       0.00002396 Ry

     iteration #  5     ecut=    30.00 Ry     beta=0.70
     Davidson diagonalization with overlap
     ethr =  4.36E-08,  avg # of iterations =  3.0

     total cpu time spent up to now is        4.5 secs

     total energy              =    -329.46766804 Ry
     Harris-Foulkes estimate   =    -329.46766988 Ry
     estimated scf accuracy    <       0.00000568 Ry

     iteration #  6     ecut=    30.00 Ry     beta=0.70
     Davidson diagonalization with overlap
     ethr =  1.03E-08,  avg # of iterations =  2.0

     total cpu time spent up to now is        4.7 secs

     total energy              =    -329.46766935 Ry
     Harris-Foulkes estimate   =    -329.46766921 Ry
     estimated scf accuracy    <       0.00000020 Ry

     iteration #  7     ecut=    30.00 Ry     beta=0.70
     Davidson diagonalization with overlap
     ethr =  3.67E-10,  avg # of iterations =  3.0

     total cpu time spent up to now is        5.0 secs

     total energy              =    -329.46766931 Ry
     Harris-Foulkes estimate   =    -329.46766944 Ry
     estimated scf accuracy    <       0.00000007 Ry

     iteration #  8     ecut=    30.00 Ry     beta=0.70
     Davidson diagonalization with overlap
     ethr =  1.20E-10,  avg # of iterations =  3.0

     total cpu time spent up to now is        5.2 secs

     End of self-consistent calculation

          k = 0.0000 0.0000 0.0000 ( 22119 PWs)   bands (ev):

    -8.3809  -7.7848  -7.6546  -7.2814  -6.9384  -6.8321  -6.6419  -6.4540
    -6.2823  -5.9701  -5.8536  -5.7735  -5.7080  -5.5612  -5.5431  -5.4879
    -5.2318  -5.1845  -5.1642  -5.1343  -5.1231  -5.0114  -4.9574  -4.8954
    -4.8045  -4.5572  -4.3164  -3.6921  -2.4959  -2.2044  -0.3795  -0.1601
     0.3923   0.5231

     the Fermi energy is    -3.6722 ev

!    total energy              =    -329.46766926 Ry
     Harris-Foulkes estimate   =    -329.46766933 Ry
     estimated scf accuracy    <          9.0E-09 Ry

     The total energy is the sum of the following terms:

     one-electron contribution =    -609.49231258 Ry
     hartree contribution      =     326.26947893 Ry
     xc contribution           =     -51.42796034 Ry
     ewald contribution        =       5.18471230 Ry
     smearing contrib. (-TS)   =      -0.00158757 Ry

     convergence has been achieved in   8 iterations

     Forces acting on atoms (Ry/au):

     atom    1 type  1   force =    -0.01907961    0.00132608    0.00583764
     atom    2 type  1   force =    -0.00898307    0.01075986    0.00696525
     atom    3 type  1   force =     0.00848643   -0.00461315   -0.02880324
     atom    4 type  1   force =    -0.00324281   -0.01390406   -0.00211246
     atom    5 type  1   force =     0.02281906    0.00643127    0.01811282

     Total force =     0.051636     Total SCF correction =     0.000453

     number of scf cycles    =   2
     number of bfgs steps    =   1

     energy   old            =    -329.4629695505 Ry
     energy   new            =    -329.4676692579 Ry

     CASE: energy  _new < energy  _old

     new trust radius        =       0.0505845539 bohr
     new conv_thr            =       0.0000000029 Ry


ATOMIC_POSITIONS (bohr)
Au      -2.147021514   1.349995138  -0.345066460
Au       0.210628209   2.491173969   4.255299529
Au       2.812820378   1.759687226  -0.068381267
Au       4.506283319   4.721260770   6.005508516
Au       6.727038608   1.162145898   2.925146682



     Writing output data file pwscf.save
     Check: negative starting charge=   -0.006325
     NEW-OLD atomic charge density approx. for the potential
     Check: negative starting charge=   -0.006294

     negative rho (up, down):  6.170E-04 0.000E+00

     total cpu time spent up to now is        5.4 secs

     per-process dynamical memory:    50.7 Mb

     Self-consistent Calculation

     iteration #  1     ecut=    30.00 Ry     beta=0.70
     Davidson diagonalization with overlap
     ethr =  1.00E-06,  avg # of iterations =  6.0

     negative rho (up, down):  2.905E-05 0.000E+00

     total cpu time spent up to now is        5.8 secs

     total energy              =    -329.47096193 Ry
     Harris-Foulkes estimate   =    -329.47076543 Ry
     estimated scf accuracy    <       0.00054748 Ry

     iteration #  2     ecut=    30.00 Ry     beta=0.70
     Davidson diagonalization with overlap
     ethr =  9.95E-07,  avg # of iterations =  4.0

     negative rho (up, down):  1.341E-05 0.000E+00

     total cpu time spent up to now is        6.1 secs

     total energy              =    -329.47071347 Ry
     Harris-Foulkes estimate   =    -329.47159065 Ry
     estimated scf accuracy    <       0.00276812 Ry

     iteration #  3     ecut=    30.00 Ry     beta=0.70
     Davidson diagonalization with overlap
     ethr =  9.95E-07,  avg # of iterations =  3.0

     negative rho (up, down):  5.029E-07 0.000E+00

     total cpu time spent up to now is        6.3 secs

     total energy              =    -329.47117014 Ry
     Harris-Foulkes estimate   =    -329.47123027 Ry
     estimated scf accuracy    <       0.00023695 Ry

     iteration #  4     ecut=    30.00 Ry     beta=0.70
     Davidson diagonalization with overlap
     ethr =  4.31E-07,  avg # of iterations =  2.0

     total cpu time spent up to now is        6.5 secs

     total energy              =    -329.47120644 Ry
     Harris-Foulkes estimate   =    -329.47121418 Ry
     estimated scf accuracy    <       0.00002704 Ry

     iteration #  5     ecut=    30.00 Ry     beta=0.70
     Davidson diagonalization with overlap
     ethr =  4.92E-08,  avg # of iterations =  3.0

     total cpu time spent up to now is        6.7 secs

     total energy              =    -329.47121312 Ry
     Harris-Foulkes estimate   =    -329.47121600 Ry
     estimated scf accuracy    <       0.00000848 Ry

     iteration #  6     ecut=    30.00 Ry     beta=0.70
     Davidson diagonalization with overlap
     ethr =  1.54E-08,  avg # of iterations =  2.0

     total cpu time spent up to now is        6.9 secs

     total energy              =    -329.47121472 Ry
     Harris-Foulkes estimate   =    -329.47121483 Ry
     estimated scf accuracy    <       0.00000031 Ry

     iteration #  7     ecut=    30.00 Ry     beta=0.70
     Davidson diagonalization with overlap
     ethr =  5.70E-10,  avg # of iterations =  3.0

     total cpu time spent up to now is        7.2 secs

     total energy              =    -329.47121475 Ry
     Harris-Foulkes estimate   =    -329.47121484 Ry
     estimated scf accuracy    <       0.00000008 Ry

     iteration #  8     ecut=    30.00 Ry     beta=0.70
     Davidson diagonalization with overlap
     ethr =  1.51E-10,  avg # of iterations =  3.0

     total cpu time spent up to now is        7.4 secs

     total energy              =    -329.47121475 Ry
     Harris-Foulkes estimate   =    -329.47121477 Ry
     estimated scf accuracy    <       0.00000001 Ry

     iteration #  9     ecut=    30.00 Ry     beta=0.70
     Davidson diagonalization with overlap
     ethr =  2.60E-11,  avg # of iterations =  2.0

     total cpu time spent up to now is        7.7 secs

     total energy              =    -329.47121477 Ry
     Harris-Foulkes estimate   =    -329.47121476 Ry
     estimated scf accuracy    <          2.9E-09 Ry

     iteration # 10     ecut=    30.00 Ry     beta=0.70
     Davidson diagonalization with overlap
     ethr =  5.26E-12,  avg # of iterations =  2.0

     total cpu time spent up to now is        7.9 secs

     End of self-consistent calculation

          k = 0.0000 0.0000 0.0000 ( 22119 PWs)   bands (ev):

    -8.2776  -7.6915  -7.5834  -7.2634  -6.9509  -6.7585  -6.5789  -6.4586
    -6.2970  -5.9686  -5.8588  -5.7489  -5.6941  -5.5557  -5.5388  -5.4894
    -5.2336  -5.1848  -5.1665  -5.1384  -5.1286  -5.0120  -4.9626  -4.9133
    -4.8200  -4.5605  -4.3444  -3.7012  -2.5047  -2.2414  -0.3790  -0.1699
     0.3912   0.5078

     the Fermi energy is    -3.6787 ev

!    total energy              =    -329.47121475 Ry
     Harris-Foulkes estimate   =    -329.47121477 Ry
     estimated scf accuracy    <          6.4E-10 Ry

     The total energy is the sum of the following terms:

     one-electron contribution =    -606.07306176 Ry
     hartree contribution      =     324.57315391 Ry
     xc contribution           =     -51.41057670 Ry
     ewald contribution        =       3.44137988 Ry
     smearing contrib. (-TS)   =      -0.00211007 Ry

     convergence has been achieved in  10 iterations

     Forces acting on atoms (Ry/au):

     atom    1 type  1   force =    -0.01098866    0.00231296    0.00767455
     atom    2 type  1   force =    -0.00554283    0.00849111   -0.00207359
     atom    3 type  1   force =     0.00644424   -0.00583391   -0.01540351
     atom    4 type  1   force =    -0.00276145   -0.01213721   -0.00157637
     atom    5 type  1   force =     0.01284870    0.00716704    0.01137892

     Total force =     0.033291     Total SCF correction =     0.000085

     number of scf cycles    =   3
     number of bfgs steps    =   2

     energy   old            =    -329.4676692579 Ry
     energy   new            =    -329.4712147470 Ry

     CASE: energy  _new < energy  _old

     new trust radius        =       0.0758768309 bohr
     new conv_thr            =       0.0000000015 Ry


ATOMIC_POSITIONS (bohr)
Au      -2.193265827   1.356418111  -0.322124984
Au       0.187664079   2.522069552   4.260149203
Au       2.836245781   1.741829228  -0.136834080
Au       4.496526515   4.679101258   5.999722609
Au       6.782578452   1.184844851   2.971594252



     Writing output data file pwscf.save
     Check: negative starting charge=   -0.006294
     NEW-OLD atomic charge density approx. for the potential
     Check: negative starting charge=   -0.006259

     negative rho (up, down):  1.332E-03 0.000E+00

     total cpu time spent up to now is        8.1 secs

     per-process dynamical memory:    50.7 Mb

     Self-consistent Calculation

     iteration #  1     ecut=    30.00 Ry     beta=0.70
     Davidson diagonalization with overlap
     ethr =  1.00E-06,  avg # of iterations =  8.0

     negative rho (up, down):  1.023E-04 0.000E+00

     total cpu time spent up to now is        8.5 secs

     total energy              =    -329.47353873 Ry
     Harris-Foulkes estimate   =    -329.47277443 Ry
     estimated scf accuracy    <       0.00128069 Ry

     iteration #  2     ecut=    30.00 Ry     beta=0.70
     Davidson diagonalization with overlap
     ethr =  2.33E-06,  avg # of iterations =  5.0

     negative rho (up, down):  5.274E-05 0.000E+00

     total cpu time spent up to now is        8.8 secs

     total energy              =    -329.47306580 Ry
     Harris-Foulkes estimate   =    -329.47484560 Ry
     estimated scf accuracy    <       0.00528495 Ry

     iteration #  3     ecut=    30.00 Ry     beta=0.70
     Davidson diagonalization with overlap
     ethr =  2.33E-06,  avg # of iterations =  3.0

     negative rho (up, down):  5.045E-06 0.000E+00

     total cpu time spent up to now is        9.0 secs

     total energy              =    -329.47398840 Ry
     Harris-Foulkes estimate   =    -329.47416322 Ry
     estimated scf accuracy    <       0.00064698 Ry

     iteration #  4     ecut=    30.00 Ry     beta=0.70
     Davidson diagonalization with overlap
     ethr =  1.18E-06,  avg # of iterations =  1.0

     total cpu time spent up to now is        9.2 secs

     total energy              =    -329.47408621 Ry
     Harris-Foulkes estimate   =    -329.47410242 Ry
     estimated scf accuracy    <       0.00005583 Ry

     iteration #  5     ecut=    30.00 Ry     beta=0.70
     Davidson diagonalization with overlap
     ethr =  1.02E-07,  avg # of iterations =  3.0

     total cpu time spent up to now is        9.5 secs

     total energy              =    -329.47410178 Ry
     Harris-Foulkes estimate   =    -329.47410855 Ry
     estimated scf accuracy    <       0.00002195 Ry

     iteration #  6     ecut=    30.00 Ry     beta=0.70
     Davidson diagonalization with overlap
     ethr =  3.99E-08,  avg # of iterations =  2.0

     total cpu time spent up to now is        9.7 secs

     total energy              =    -329.47410578 Ry
     Harris-Foulkes estimate   =    -329.47410616 Ry
     estimated scf accuracy    <       0.00000092 Ry

     iteration #  7     ecut=    30.00 Ry     beta=0.70
     Davidson diagonalization with overlap
     ethr =  1.67E-09,  avg # of iterations =  3.0

     total cpu time spent up to now is        9.9 secs

     total energy              =    -329.47410606 Ry
     Harris-Foulkes estimate   =    -329.47410603 Ry
     estimated scf accuracy    <       0.00000016 Ry

     iteration #  8     ecut=    30.00 Ry     beta=0.70
     Davidson diagonalization with overlap
     ethr =  2.83E-10,  avg # of iterations =  3.0

     total cpu time spent up to now is       10.1 secs

     total energy              =    -329.47410599 Ry
     Harris-Foulkes estimate   =    -329.47410611 Ry
     estimated scf accuracy    <       0.00000004 Ry

     iteration #  9     ecut=    30.00 Ry     beta=0.70
     Davidson diagonalization with overlap
     ethr =  7.83E-11,  avg # of iterations =  2.0

     total cpu time spent up to now is       10.4 secs

     total energy              =    -329.47410607 Ry
     Harris-Foulkes estimate   =    -329.47410600 Ry
     estimated scf accuracy    <          5.4E-09 Ry

     iteration # 10     ecut=    30.00 Ry     beta=0.70
     Davidson diagonalization with overlap
     ethr =  9.81E-12,  avg # of iterations =  2.0

     total cpu time spent up to now is       10.6 secs

     End of self-consistent calculation

          k = 0.0000 0.0000 0.0000 ( 22119 PWs)   bands (ev):

    -8.1506  -7.5926  -7.4918  -7.2583  -6.9751  -6.6611  -6.5108  -6.4625
    -6.3256  -5.9775  -5.8700  -5.7157  -5.6713  -5.5636  -5.5296  -5.4889
    -5.2353  -5.1866  -5.1695  -5.1433  -5.1321  -5.0100  -4.9691  -4.9367
    -4.8408  -4.5652  -4.3793  -3.7106  -2.5199  -2.2809  -0.3815  -0.1835
     0.3896   0.4924

     the Fermi energy is    -3.6845 ev

!    total energy              =    -329.47410613 Ry
     Harris-Foulkes estimate   =    -329.47410607 Ry
     estimated scf accuracy    <          6.9E-10 Ry

     The total energy is the sum of the following terms:

     one-electron contribution =    -602.00288187 Ry
     hartree contribution      =     322.55103684 Ry
     xc contribution           =     -51.39093234 Ry
     ewald contribution        =       1.37150607 Ry
     smearing contrib. (-TS)   =      -0.00283482 Ry

     convergence has been achieved in  10 iterations

     Forces acting on atoms (Ry/au):

     atom    1 type  1   force =     0.00014254    0.00257534    0.00854066
     atom    2 type  1   force =    -0.00325041    0.00529801   -0.01035627
     atom    3 type  1   force =     0.00280082   -0.00655146   -0.00225415
     atom    4 type  1   force =    -0.00260160   -0.00814904    0.00097322
     atom    5 type  1   force =     0.00290865    0.00682715    0.00309653

     Total force =     0.020497     Total SCF correction =     0.000076

     number of scf cycles    =   4
     number of bfgs steps    =   3

     energy   old            =    -329.4712147470 Ry
     energy   new            =    -329.4741061252 Ry

     CASE: energy  _new < energy  _old

     new trust radius        =       0.0488968260 bohr
     new conv_thr            =       0.0000000010 Ry


ATOMIC_POSITIONS (bohr)
Au      -2.216953857   1.362975055  -0.299190575
Au       0.170690720   2.545181785   4.249867128
Au       2.851750762   1.723931053  -0.176900188
Au       4.487852866   4.646724824   5.998468578
Au       6.816408509   1.205450283   3.000262057



     Writing output data file pwscf.save
     Check: negative starting charge=   -0.006259
     NEW-OLD atomic charge density approx. for the potential
     Check: negative starting charge=   -0.006253

     negative rho (up, down):  6.807E-04 0.000E+00

     total cpu time spent up to now is       10.8 secs

     per-process dynamical memory:    50.7 Mb

     Self-consistent Calculation

     iteration #  1     ecut=    30.00 Ry     beta=0.70
     Davidson diagonalization with overlap
     ethr =  1.00E-06,  avg # of iterations =  6.0

     negative rho (up, down):  3.375E-05 0.000E+00

     total cpu time spent up to now is       11.2 secs

     total energy              =    -329.47484228 Ry
     Harris-Foulkes estimate   =    -329.47458300 Ry
     estimated scf accuracy    <       0.00058820 Ry

     iteration #  2     ecut=    30.00 Ry     beta=0.70
     Davidson diagonalization with overlap
     ethr =  1.07E-06,  avg # of iterations =  4.0

     negative rho (up, down):  1.312E-05 0.000E+00

     total cpu time spent up to now is       11.5 secs

     total energy              =    -329.47469900 Ry
     Harris-Foulkes estimate   =    -329.47536745 Ry
     estimated scf accuracy    <       0.00181377 Ry

     iteration #  3     ecut=    30.00 Ry     beta=0.70
     Davidson diagonalization with overlap
     ethr =  1.07E-06,  avg # of iterations =  3.0

     negative rho (up, down):  9.642E-07 0.000E+00

     total cpu time spent up to now is       11.7 secs

     total energy              =    -329.47502891 Ry
     Harris-Foulkes estimate   =    -329.47513277 Ry
     estimated scf accuracy    <       0.00036179 Ry

     iteration #  4     ecut=    30.00 Ry     beta=0.70
     Davidson diagonalization with overlap
     ethr =  6.58E-07,  avg # of iterations =  1.0

     total cpu time spent up to now is       11.9 secs

     total energy              =    -329.47508579 Ry
     Harris-Foulkes estimate   =    -329.47509131 Ry
     estimated scf accuracy    <       0.00002339 Ry

     iteration #  5     ecut=    30.00 Ry     beta=0.70
     Davidson diagonalization with overlap
     ethr =  4.25E-08,  avg # of iterations =  3.0

     total cpu time spent up to now is       12.1 secs

     total energy              =    -329.47509194 Ry
     Harris-Foulkes estimate   =    -329.47509646 Ry
     estimated scf accuracy    <       0.00001274 Ry

     iteration #  6     ecut=    30.00 Ry     beta=0.70
     Davidson diagonalization with overlap
     ethr =  2.32E-08,  avg # of iterations =  2.0

     total cpu time spent up to now is       12.3 secs

     total energy              =    -329.47509411 Ry
     Harris-Foulkes estimate   =    -329.47509431 Ry
     estimated scf accuracy    <       0.00000049 Ry

     iteration #  7     ecut=    30.00 Ry     beta=0.70
     Davidson diagonalization with overlap
     ethr =  8.90E-10,  avg # of iterations =  3.0

     total cpu time spent up to now is       12.6 secs

     total energy              =    -329.47509412 Ry
     Harris-Foulkes estimate   =    -329.47509424 Ry
     estimated scf accuracy    <       0.00000007 Ry

     iteration #  8     ecut=    30.00 Ry     beta=0.70
     Davidson diagonalization with overlap
     ethr =  1.21E-10,  avg # of iterations =  2.0

     total cpu time spent up to now is       12.8 secs

     total energy              =    -329.47509403 Ry
     Harris-Foulkes estimate   =    -329.47509415 Ry
     estimated scf accuracy    <       0.00000003 Ry

     iteration #  9     ecut=    30.00 Ry     beta=0.70
     Davidson diagonalization with overlap
     ethr =  5.00E-11,  avg # of iterations =  2.0

     total cpu time spent up to now is       13.0 secs

     total energy              =    -329.47509402 Ry
     Harris-Foulkes estimate   =    -329.47509404 Ry
     estimated scf accuracy    <          4.5E-09 Ry

     iteration # 10     ecut=    30.00 Ry     beta=0.70
     Davidson diagonalization with overlap
     ethr =  8.27E-12,  avg # of iterations =  2.0

     total cpu time spent up to now is       13.2 secs

     End of self-consistent calculation

          k = 0.0000 0.0000 0.0000 ( 22119 PWs)   bands (ev):

    -8.0980  -7.5576  -7.4492  -7.2685  -6.9885  -6.6138  -6.5055  -6.4402
    -6.3483  -5.9908  -5.8807  -5.6991  -5.6568  -5.5768  -5.5305  -5.4868
    -5.2350  -5.1883  -5.1718  -5.1446  -5.1311  -5.0074  -4.9732  -4.9472
    -4.8514  -4.5685  -4.3954  -3.7130  -2.5314  -2.2906  -0.3861  -0.1913
     0.3889   0.4894

     the Fermi energy is    -3.6850 ev

!    total energy              =    -329.47509401 Ry
     Harris-Foulkes estimate   =    -329.47509402 Ry
     estimated scf accuracy    <          8.1E-10 Ry

     The total energy is the sum of the following terms:

     one-electron contribution =    -600.33902324 Ry
     hartree contribution      =     321.72195366 Ry
     xc contribution           =     -51.38347350 Ry
     ewald contribution        =       0.52869202 Ry
     smearing contrib. (-TS)   =      -0.00324294 Ry

     convergence has been achieved in  10 iterations

     Forces acting on atoms (Ry/au):

     atom    1 type  1   force =     0.00412207    0.00261079    0.00857376
     atom    2 type  1   force =    -0.00240346    0.00372768   -0.01271822
     atom    3 type  1   force =     0.00139514   -0.00661644    0.00295215
     atom    4 type  1   force =    -0.00268772   -0.00538657    0.00310975
     atom    5 type  1   force =    -0.00042603    0.00566454   -0.00191744

     Total force =     0.020372     Total SCF correction =     0.000106

     number of scf cycles    =   5
     number of bfgs steps    =   4

     energy   old            =    -329.4741061252 Ry
     energy   new            =    -329.4750940109 Ry

     CASE: energy  _new < energy  _old

     new trust radius        =       0.0493146820 bohr
     new conv_thr            =       0.0000000010 Ry


ATOMIC_POSITIONS (bohr)
Au      -2.234525173   1.372630212  -0.265979962
Au       0.150497212   2.572369478   4.224183219
Au       2.868329725   1.697956591  -0.212878773
Au       4.475693154   4.609112234   6.002328627
Au       6.849754082   1.232194486   3.024853889



     Writing output data file pwscf.save
     Check: negative starting charge=   -0.006253
     NEW-OLD atomic charge density approx. for the potential
     Check: negative starting charge=   -0.006260

     negative rho (up, down):  8.436E-04 0.000E+00

     total cpu time spent up to now is       13.4 secs

     per-process dynamical memory:    50.7 Mb

     Self-consistent Calculation

     iteration #  1     ecut=    30.00 Ry     beta=0.70
     Davidson diagonalization with overlap
     ethr =  1.00E-06,  avg # of iterations =  6.0

     negative rho (up, down):  4.800E-05 0.000E+00

     total cpu time spent up to now is       13.8 secs

     total energy              =    -329.47564200 Ry
     Harris-Foulkes estimate   =    -329.47525995 Ry
     estimated scf accuracy    <       0.00074579 Ry

     iteration #  2     ecut=    30.00 Ry     beta=0.70
     Davidson diagonalization with overlap
     ethr =  1.36E-06,  avg # of iterations =  4.0

     negative rho (up, down):  1.681E-05 0.000E+00

     total cpu time spent up to now is       14.1 secs

     total energy              =    -329.47555780 Ry
     Harris-Foulkes estimate   =    -329.47621140 Ry
     estimated scf accuracy    <       0.00161126 Ry

     iteration #  3     ecut=    30.00 Ry     beta=0.70
     Davidson diagonalization with overlap
     ethr =  1.36E-06,  avg # of iterations =  3.0

     negative rho (up, down):  1.949E-06 0.000E+00

     total cpu time spent up to now is       14.4 secs

     total energy              =    -329.47585539 Ry
     Harris-Foulkes estimate   =    -329.47600842 Ry
     estimated scf accuracy    <       0.00050671 Ry

     iteration #  4     ecut=    30.00 Ry     beta=0.70
     Davidson diagonalization with overlap
     ethr =  9.21E-07,  avg # of iterations =  1.0

     total cpu time spent up to now is       14.5 secs

     total energy              =    -329.47593637 Ry
     Harris-Foulkes estimate   =    -329.47594528 Ry
     estimated scf accuracy    <       0.00003427 Ry

     iteration #  5     ecut=    30.00 Ry     beta=0.70
     Davidson diagonalization with overlap
     ethr =  6.23E-08,  avg # of iterations =  3.0

     total cpu time spent up to now is       14.8 secs

     total energy              =    -329.47594445 Ry
     Harris-Foulkes estimate   =    -329.47595167 Ry
     estimated scf accuracy    <       0.00001996 Ry

     iteration #  6     ecut=    30.00 Ry     beta=0.70
     Davidson diagonalization with overlap
     ethr =  3.63E-08,  avg # of iterations =  2.0

     total cpu time spent up to now is       15.0 secs

     total energy              =    -329.47594773 Ry
     Harris-Foulkes estimate   =    -329.47594797 Ry
     estimated scf accuracy    <       0.00000065 Ry

     iteration #  7     ecut=    30.00 Ry     beta=0.70
     Davidson diagonalization with overlap
     ethr =  1.18E-09,  avg # of iterations =  3.0

     total cpu time spent up to now is       15.2 secs

     total energy              =    -329.47594782 Ry
     Harris-Foulkes estimate   =    -329.47594794 Ry
     estimated scf accuracy    <       0.00000010 Ry

     iteration #  8     ecut=    30.00 Ry     beta=0.70
     Davidson diagonalization with overlap
     ethr =  1.87E-10,  avg # of iterations =  3.0

     total cpu time spent up to now is       15.4 secs

     total energy              =    -329.47594789 Ry
     Harris-Foulkes estimate   =    -329.47594785 Ry
     estimated scf accuracy    <       0.00000004 Ry

     iteration #  9     ecut=    30.00 Ry     beta=0.70
     Davidson diagonalization with overlap
     ethr =  7.08E-11,  avg # of iterations =  3.0

     total cpu time spent up to now is       15.7 secs

     total energy              =    -329.47594781 Ry
     Harris-Foulkes estimate   =    -329.47594791 Ry
     estimated scf accuracy    <          8.6E-09 Ry

     iteration # 10     ecut=    30.00 Ry     beta=0.70
     Davidson diagonalization with overlap
     ethr =  1.56E-11,  avg # of iterations =  2.0

     total cpu time spent up to now is       15.9 secs

     total energy              =    -329.47594777 Ry
     Harris-Foulkes estimate   =    -329.47594782 Ry
     estimated scf accuracy    <          1.2E-09 Ry

     iteration # 11     ecut=    30.00 Ry     beta=0.70
     Davidson diagonalization with overlap
     ethr =  2.12E-12,  avg # of iterations =  3.0

     total cpu time spent up to now is       16.1 secs

     End of self-consistent calculation

          k = 0.0000 0.0000 0.0000 ( 22119 PWs)   bands (ev):

    -8.0743  -7.5394  -7.4315  -7.2811  -6.9994  -6.5866  -6.5061  -6.4145
    -6.3728  -6.0104  -5.8956  -5.6876  -5.6428  -5.5990  -5.5365  -5.4841
    -5.2335  -5.1915  -5.1746  -5.1422  -5.1280  -5.0040  -4.9786  -4.9513
    -4.8587  -4.5721  -4.4045  -3.7131  -2.5435  -2.2850  -0.3938  -0.1992
     0.3898   0.4935

     the Fermi energy is    -3.6838 ev

!    total energy              =    -329.47594776 Ry
     Harris-Foulkes estimate   =    -329.47594777 Ry
     estimated scf accuracy    <          1.2E-10 Ry

     The total energy is the sum of the following terms:

     one-electron contribution =    -599.54239331 Ry
     hartree contribution      =     321.32196109 Ry
     xc contribution           =     -51.38062011 Ry
     ewald contribution        =       0.12863585 Ry
     smearing contrib. (-TS)   =      -0.00353127 Ry

     convergence has been achieved in  11 iterations

     Forces acting on atoms (Ry/au):

     atom    1 type  1   force =     0.00568041    0.00235746    0.00703090
     atom    2 type  1   force =    -0.00129994    0.00282697   -0.01243619
     atom    3 type  1   force =     0.00099967   -0.00620683    0.00683163
     atom    4 type  1   force =    -0.00312061   -0.00328519    0.00512344
     atom    5 type  1   force =    -0.00225953    0.00430759   -0.00654979

     Total force =     0.021240     Total SCF correction =     0.000044

     number of scf cycles    =   6
     number of bfgs steps    =   5

     energy   old            =    -329.4750940109 Ry
     energy   new            =    -329.4759477561 Ry

     CASE: energy  _new < energy  _old

     new trust radius        =       0.0542461502 bohr
     new conv_thr            =       0.0000000009 Ry


ATOMIC_POSITIONS (bohr)
Au      -2.244146893   1.384840208  -0.225540563
Au       0.129253673   2.602251120   4.184202669
Au       2.885509312   1.664991372  -0.238921553
Au       4.459691563   4.568957903   6.013243145
Au       6.879441345   1.263222397   3.039523302



     Writing output data file pwscf.save
     Check: negative starting charge=   -0.006260
     NEW-OLD atomic charge density approx. for the potential
     Check: negative starting charge=   -0.006273

     negative rho (up, down):  9.667E-04 0.000E+00

     total cpu time spent up to now is       16.4 secs

     per-process dynamical memory:    50.7 Mb

     Self-consistent Calculation

     iteration #  1     ecut=    30.00 Ry     beta=0.70
     Davidson diagonalization with overlap
     ethr =  1.00E-06,  avg # of iterations =  6.0

     negative rho (up, down):  5.969E-05 0.000E+00

     total cpu time spent up to now is       16.8 secs

     total energy              =    -329.47644652 Ry
     Harris-Foulkes estimate   =    -329.47598122 Ry
     estimated scf accuracy    <       0.00088112 Ry

     iteration #  2     ecut=    30.00 Ry     beta=0.70
     Davidson diagonalization with overlap
     ethr =  1.60E-06,  avg # of iterations =  5.0

     negative rho (up, down):  1.794E-05 0.000E+00

     total cpu time spent up to now is       17.0 secs

     total energy              =    -329.47645939 Ry
     Harris-Foulkes estimate   =    -329.47703720 Ry
     estimated scf accuracy    <       0.00132178 Ry

     iteration #  3     ecut=    30.00 Ry     beta=0.70
     Davidson diagonalization with overlap
     ethr =  1.60E-06,  avg # of iterations =  2.0

     negative rho (up, down):  2.729E-06 0.000E+00

     total cpu time spent up to now is       17.3 secs

     total energy              =    -329.47669689 Ry
     Harris-Foulkes estimate   =    -329.47686503 Ry
     estimated scf accuracy    <       0.00052213 Ry

     iteration #  4     ecut=    30.00 Ry     beta=0.70
     Davidson diagonalization with overlap
     ethr =  9.49E-07,  avg # of iterations =  1.0

     total cpu time spent up to now is       17.4 secs

     total energy              =    -329.47678406 Ry
     Harris-Foulkes estimate   =    -329.47679939 Ry
     estimated scf accuracy    <       0.00004938 Ry

     iteration #  5     ecut=    30.00 Ry     beta=0.70
     Davidson diagonalization with overlap
     ethr =  8.98E-08,  avg # of iterations =  3.0

     total cpu time spent up to now is       17.7 secs

     total energy              =    -329.47679350 Ry
     Harris-Foulkes estimate   =    -329.47680284 Ry
     estimated scf accuracy    <       0.00002566 Ry

     iteration #  6     ecut=    30.00 Ry     beta=0.70
     Davidson diagonalization with overlap
     ethr =  4.66E-08,  avg # of iterations =  2.0

     total cpu time spent up to now is       17.9 secs

     total energy              =    -329.47679752 Ry
     Harris-Foulkes estimate   =    -329.47679788 Ry
     estimated scf accuracy    <       0.00000068 Ry

     iteration #  7     ecut=    30.00 Ry     beta=0.70
     Davidson diagonalization with overlap
     ethr =  1.23E-09,  avg # of iterations =  3.0

     total cpu time spent up to now is       18.1 secs

     total energy              =    -329.47679784 Ry
     Harris-Foulkes estimate   =    -329.47679780 Ry
     estimated scf accuracy    <       0.00000014 Ry

     iteration #  8     ecut=    30.00 Ry     beta=0.70
     Davidson diagonalization with overlap
     ethr =  2.49E-10,  avg # of iterations =  2.0

     total cpu time spent up to now is       18.3 secs

     total energy              =    -329.47679785 Ry
     Harris-Foulkes estimate   =    -329.47679788 Ry
     estimated scf accuracy    <       0.00000004 Ry

     iteration #  9     ecut=    30.00 Ry     beta=0.70
     Davidson diagonalization with overlap
     ethr =  7.50E-11,  avg # of iterations =  2.0

     total cpu time spent up to now is       18.6 secs

     total energy              =    -329.47679786 Ry
     Harris-Foulkes estimate   =    -329.47679787 Ry
     estimated scf accuracy    <          8.4E-09 Ry

     iteration # 10     ecut=    30.00 Ry     beta=0.70
     Davidson diagonalization with overlap
     ethr =  1.52E-11,  avg # of iterations =  2.0

     total cpu time spent up to now is       18.8 secs

     total energy              =    -329.47679784 Ry
     Harris-Foulkes estimate   =    -329.47679786 Ry
     estimated scf accuracy    <          1.4E-09 Ry

     iteration # 11     ecut=    30.00 Ry     beta=0.70
     Davidson diagonalization with overlap
     ethr =  2.50E-12,  avg # of iterations =  2.0

     total cpu time spent up to now is       19.0 secs

     End of self-consistent calculation

          k = 0.0000 0.0000 0.0000 ( 22119 PWs)   bands (ev):

    -8.0845  -7.5357  -7.4454  -7.2890  -7.0098  -6.5914  -6.4942  -6.3994
    -6.3927  -6.0335  -5.9146  -5.6830  -5.6349  -5.6235  -5.5451  -5.4821
    -5.2319  -5.1981  -5.1757  -5.1358  -5.1237  -5.0001  -4.9837  -4.9463
    -4.8605  -4.5749  -4.4042  -3.7126  -2.5526  -2.2646  -0.4039  -0.2071
     0.3938   0.5057

     the Fermi energy is    -3.6831 ev

!    total energy              =    -329.47679782 Ry
     Harris-Foulkes estimate   =    -329.47679784 Ry
     estimated scf accuracy    <          1.2E-10 Ry

     The total energy is the sum of the following terms:

     one-electron contribution =    -599.74053680 Ry
     hartree contribution      =     321.41587488 Ry
     xc contribution           =     -51.38302268 Ry
     ewald contribution        =       0.23445943 Ry
     smearing contrib. (-TS)   =      -0.00357265 Ry

     convergence has been achieved in  11 iterations

     Forces acting on atoms (Ry/au):

     atom    1 type  1   force =     0.00506970    0.00130164    0.00299194
     atom    2 type  1   force =     0.00052880    0.00313490   -0.00867934
     atom    3 type  1   force =     0.00122313   -0.00530018    0.00887100
     atom    4 type  1   force =    -0.00364991   -0.00232763    0.00681689
     atom    5 type  1   force =    -0.00317171    0.00319126   -0.01000049

     Total force =     0.020385     Total SCF correction =     0.000043

     number of scf cycles    =   7
     number of bfgs steps    =   6

     energy   old            =    -329.4759477561 Ry
     energy   new            =    -329.4767978248 Ry

     CASE: energy  _new < energy  _old

     new trust radius        =       0.0723986062 bohr
     new conv_thr            =       0.0000000009 Ry


ATOMIC_POSITIONS (bohr)
Au      -2.243884302   1.399967960  -0.177571127
Au       0.107858817   2.639342229   4.125824009
Au       2.905156995   1.620536575  -0.250016778
Au       4.436383561   4.522338261   6.036814615
Au       6.904233929   1.302077974   3.037456281



     Writing output data file pwscf.save
     Check: negative starting charge=   -0.006273
     NEW-OLD atomic charge density approx. for the potential
     Check: negative starting charge=   -0.006292

     negative rho (up, down):  1.352E-03 0.000E+00

     total cpu time spent up to now is       19.2 secs

     per-process dynamical memory:    50.7 Mb

     Self-consistent Calculation

     iteration #  1     ecut=    30.00 Ry     beta=0.70
     Davidson diagonalization with overlap
     ethr =  1.00E-06,  avg # of iterations =  6.0

     negative rho (up, down):  1.016E-04 0.000E+00

     total cpu time spent up to now is       19.6 secs

     total energy              =    -329.47709712 Ry
     Harris-Foulkes estimate   =    -329.47639808 Ry
     estimated scf accuracy    <       0.00132146 Ry

     iteration #  2     ecut=    30.00 Ry     beta=0.70
     Davidson diagonalization with overlap
     ethr =  2.40E-06,  avg # of iterations =  5.0

     negative rho (up, down):  2.806E-05 0.000E+00

     total cpu time spent up to now is       19.9 secs

     total energy              =    -329.47727014 Ry
     Harris-Foulkes estimate   =    -329.47788531 Ry
     estimated scf accuracy    <       0.00134434 Ry

     iteration #  3     ecut=    30.00 Ry     beta=0.70
     Davidson diagonalization with overlap
     ethr =  2.40E-06,  avg # of iterations =  2.0

     negative rho (up, down):  5.294E-06 0.000E+00

     total cpu time spent up to now is       20.1 secs

     total energy              =    -329.47750267 Ry
     Harris-Foulkes estimate   =    -329.47767195 Ry
     estimated scf accuracy    <       0.00047291 Ry

     iteration #  4     ecut=    30.00 Ry     beta=0.70
     Davidson diagonalization with overlap
     ethr =  8.60E-07,  avg # of iterations =  2.0

     total cpu time spent up to now is       20.3 secs

     total energy              =    -329.47759198 Ry
     Harris-Foulkes estimate   =    -329.47762594 Ry
     estimated scf accuracy    <       0.00011260 Ry

     iteration #  5     ecut=    30.00 Ry     beta=0.70
     Davidson diagonalization with overlap
     ethr =  2.05E-07,  avg # of iterations =  2.0

     total cpu time spent up to now is       20.5 secs

     total energy              =    -329.47760827 Ry
     Harris-Foulkes estimate   =    -329.47761944 Ry
     estimated scf accuracy    <       0.00002897 Ry

     iteration #  6     ecut=    30.00 Ry     beta=0.70
     Davidson diagonalization with overlap
     ethr =  5.27E-08,  avg # of iterations =  2.0

     total cpu time spent up to now is       20.7 secs

     total energy              =    -329.47761281 Ry
     Harris-Foulkes estimate   =    -329.47761332 Ry
     estimated scf accuracy    <       0.00000062 Ry

     iteration #  7     ecut=    30.00 Ry     beta=0.70
     Davidson diagonalization with overlap
     ethr =  1.13E-09,  avg # of iterations =  3.0

     total cpu time spent up to now is       20.9 secs

     total energy              =    -329.47761292 Ry
     Harris-Foulkes estimate   =    -329.47761321 Ry
     estimated scf accuracy    <       0.00000021 Ry

     iteration #  8     ecut=    30.00 Ry     beta=0.70
     Davidson diagonalization with overlap
     ethr =  3.80E-10,  avg # of iterations =  2.0

     total cpu time spent up to now is       21.2 secs

     total energy              =    -329.47761283 Ry
     Harris-Foulkes estimate   =    -329.47761297 Ry
     estimated scf accuracy    <       0.00000004 Ry

     iteration #  9     ecut=    30.00 Ry     beta=0.70
     Davidson diagonalization with overlap
     ethr =  7.64E-11,  avg # of iterations =  2.0

     total cpu time spent up to now is       21.4 secs

     total energy              =    -329.47761276 Ry
     Harris-Foulkes estimate   =    -329.47761284 Ry
     estimated scf accuracy    <          5.5E-09 Ry

     iteration # 10     ecut=    30.00 Ry     beta=0.70
     Davidson diagonalization with overlap
     ethr =  9.96E-12,  avg # of iterations =  3.0

     total cpu time spent up to now is       21.6 secs

     total energy              =    -329.47761273 Ry
     Harris-Foulkes estimate   =    -329.47761276 Ry
     estimated scf accuracy    <          1.4E-09 Ry

     iteration # 11     ecut=    30.00 Ry     beta=0.70
     Davidson diagonalization with overlap
     ethr =  2.58E-12,  avg # of iterations =  2.0

     total cpu time spent up to now is       21.8 secs

     End of self-consistent calculation

          k = 0.0000 0.0000 0.0000 ( 22119 PWs)   bands (ev):

    -8.1366  -7.5460  -7.4885  -7.3002  -7.0253  -6.6254  -6.4795  -6.4073
    -6.3920  -6.0602  -5.9401  -5.6892  -5.6600  -5.6211  -5.5552  -5.4816
    -5.2326  -5.2062  -5.1755  -5.1251  -5.1170  -4.9942  -4.9829  -4.9301
    -4.8545  -4.5755  -4.3896  -3.7141  -2.5521  -2.2271  -0.4183  -0.2172
     0.4041   0.5305

     the Fermi energy is    -3.6868 ev

!    total energy              =    -329.47761272 Ry
     Harris-Foulkes estimate   =    -329.47761273 Ry
     estimated scf accuracy    <          8.4E-11 Ry

     The total energy is the sum of the following terms:

     one-electron contribution =    -601.24120240 Ry
     hartree contribution      =     322.15817227 Ry
     xc contribution           =     -51.39266288 Ry
     ewald contribution        =       1.00119033 Ry
     smearing contrib. (-TS)   =      -0.00311004 Ry

     convergence has been achieved in  11 iterations

     Forces acting on atoms (Ry/au):

     atom    1 type  1   force =     0.00173710   -0.00155931   -0.00611841
     atom    2 type  1   force =     0.00392197    0.00538481    0.00044199
     atom    3 type  1   force =     0.00141605   -0.00394585    0.00874580
     atom    4 type  1   force =    -0.00347593   -0.00131463    0.00800041
     atom    5 type  1   force =    -0.00359919    0.00143498   -0.01106979

     Total force =     0.019922     Total SCF correction =     0.000043

     number of scf cycles    =   8
     number of bfgs steps    =   7

     energy   old            =    -329.4767978248 Ry
     energy   new            =    -329.4776127202 Ry

     CASE: energy  _new < energy  _old

     new trust radius        =       0.0267372846 bohr
     new conv_thr            =       0.0000000008 Ry


ATOMIC_POSITIONS (bohr)
Au      -2.231114162   1.401381257  -0.175015642
Au       0.111125761   2.649598706   4.107140211
Au       2.907277584   1.606579061  -0.227639680
Au       4.427723805   4.516315384   6.054137117
Au       6.894736012   1.310388591   3.013884993



     Writing output data file pwscf.save
     Check: negative starting charge=   -0.006292
     NEW-OLD atomic charge density approx. for the potential
     Check: negative starting charge=   -0.006295

     negative rho (up, down):  2.187E-04 0.000E+00

     total cpu time spent up to now is       22.1 secs

     per-process dynamical memory:    50.7 Mb

     Self-consistent Calculation

     iteration #  1     ecut=    30.00 Ry     beta=0.70
     Davidson diagonalization with overlap
     ethr =  1.00E-06,  avg # of iterations =  4.0

     negative rho (up, down):  4.277E-06 0.000E+00

     total cpu time spent up to now is       22.4 secs

     total energy              =    -329.47818688 Ry
     Harris-Foulkes estimate   =    -329.47818700 Ry
     estimated scf accuracy    <       0.00018058 Ry

     iteration #  2     ecut=    30.00 Ry     beta=0.70
     Davidson diagonalization with overlap
     ethr =  3.28E-07,  avg # of iterations =  2.0

     negative rho (up, down):  5.698E-07 0.000E+00

     total cpu time spent up to now is       22.6 secs

     total energy              =    -329.47818750 Ry
     Harris-Foulkes estimate   =    -329.47829702 Ry
     estimated scf accuracy    <       0.00024473 Ry

     iteration #  3     ecut=    30.00 Ry     beta=0.70
     Davidson diagonalization with overlap
     ethr =  3.28E-07,  avg # of iterations =  2.0

     negative rho (up, down):  3.044E-08 0.000E+00

     total cpu time spent up to now is       22.8 secs

     total energy              =    -329.47822792 Ry
     Harris-Foulkes estimate   =    -329.47827120 Ry
     estimated scf accuracy    <       0.00014204 Ry

     iteration #  4     ecut=    30.00 Ry     beta=0.70
     Davidson diagonalization with overlap
     ethr =  2.58E-07,  avg # of iterations =  1.0

     total cpu time spent up to now is       23.0 secs

     total energy              =    -329.47825024 Ry
     Harris-Foulkes estimate   =    -329.47825286 Ry
     estimated scf accuracy    <       0.00000837 Ry

     iteration #  5     ecut=    30.00 Ry     beta=0.70
     Davidson diagonalization with overlap
     ethr =  1.52E-08,  avg # of iterations =  3.0

     total cpu time spent up to now is       23.3 secs

     total energy              =    -329.47825138 Ry
     Harris-Foulkes estimate   =    -329.47825300 Ry
     estimated scf accuracy    <       0.00000302 Ry

     iteration #  6     ecut=    30.00 Ry     beta=0.70
     Davidson diagonalization with overlap
     ethr =  5.49E-09,  avg # of iterations =  2.0

     total cpu time spent up to now is       23.5 secs

     total energy              =    -329.47825165 Ry
     Harris-Foulkes estimate   =    -329.47825195 Ry
     estimated scf accuracy    <       0.00000016 Ry

     iteration #  7     ecut=    30.00 Ry     beta=0.70
     Davidson diagonalization with overlap
     ethr =  2.93E-10,  avg # of iterations =  3.0

     total cpu time spent up to now is       23.7 secs

     total energy              =    -329.47825160 Ry
     Harris-Foulkes estimate   =    -329.47825169 Ry
     estimated scf accuracy    <       0.00000002 Ry

     iteration #  8     ecut=    30.00 Ry     beta=0.70
     Davidson diagonalization with overlap
     ethr =  3.97E-11,  avg # of iterations =  3.0

     total cpu time spent up to now is       23.9 secs

     total energy              =    -329.47825149 Ry
     Harris-Foulkes estimate   =    -329.47825161 Ry
     estimated scf accuracy    <          9.7E-09 Ry

     iteration #  9     ecut=    30.00 Ry     beta=0.70
     Davidson diagonalization with overlap
     ethr =  1.77E-11,  avg # of iterations =  3.0

     total cpu time spent up to now is       24.1 secs

     total energy              =    -329.47825149 Ry
     Harris-Foulkes estimate   =    -329.47825149 Ry
     estimated scf accuracy    <          2.1E-09 Ry

     iteration # 10     ecut=    30.00 Ry     beta=0.70
     Davidson diagonalization with overlap
     ethr =  3.76E-12,  avg # of iterations =  2.0

     total cpu time spent up to now is       24.4 secs

     End of self-consistent calculation

          k = 0.0000 0.0000 0.0000 ( 22119 PWs)   bands (ev):

    -8.1758  -7.5625  -7.5138  -7.3159  -7.0363  -6.6436  -6.4887  -6.4135
    -6.3913  -6.0610  -5.9481  -5.6927  -5.6661  -5.6267  -5.5550  -5.4861
    -5.2297  -5.2078  -5.1770  -5.1204  -5.1121  -4.9854  -4.9723  -4.9233
    -4.8471  -4.5734  -4.3697  -3.7178  -2.5318  -2.2111  -0.4236  -0.2203
     0.4119   0.5461

     the Fermi energy is    -3.6941 ev

!    total energy              =    -329.47825145 Ry
     Harris-Foulkes estimate   =    -329.47825149 Ry
     estimated scf accuracy    <          1.7E-10 Ry

     The total energy is the sum of the following terms:

     one-electron contribution =    -602.90005759 Ry
     hartree contribution      =     322.98573130 Ry
     xc contribution           =     -51.40141413 Ry
     ewald contribution        =       1.83982433 Ry
     smearing contrib. (-TS)   =      -0.00233538 Ry

     convergence has been achieved in  10 iterations

     Forces acting on atoms (Ry/au):

     atom    1 type  1   force =    -0.00153428   -0.00259287   -0.00838007
     atom    2 type  1   force =     0.00396223    0.00613159    0.00410923
     atom    3 type  1   force =     0.00121322   -0.00396555    0.00493324
     atom    4 type  1   force =    -0.00211590   -0.00172244    0.00686706
     atom    5 type  1   force =    -0.00152528    0.00214926   -0.00752946

     Total force =     0.017586     Total SCF correction =     0.000067

     number of scf cycles    =   9
     number of bfgs steps    =   8

     energy   old            =    -329.4776127202 Ry
     energy   new            =    -329.4782514549 Ry

     CASE: energy  _new < energy  _old

     new trust radius        =       0.0294110131 bohr
     new conv_thr            =       0.0000000006 Ry


ATOMIC_POSITIONS (bohr)
Au      -2.221355041   1.399746648  -0.181487621
Au       0.118003687   2.662445068   4.095964114
Au       2.909010141   1.592009868  -0.203791856
Au       4.419810739   4.511206163   6.074090461
Au       6.884279475   1.318855254   2.987731902



     Writing output data file pwscf.save
     Check: negative starting charge=   -0.006295
     NEW-OLD atomic charge density approx. for the potential
     Check: negative starting charge=   -0.006290

     negative rho (up, down):  2.362E-04 0.000E+00

     total cpu time spent up to now is       24.6 secs

     per-process dynamical memory:    50.7 Mb

     Self-consistent Calculation

     iteration #  1     ecut=    30.00 Ry     beta=0.70
     Davidson diagonalization with overlap
     ethr =  1.00E-06,  avg # of iterations =  4.0

     negative rho (up, down):  5.048E-06 0.000E+00

     total cpu time spent up to now is       24.9 secs

     total energy              =    -329.47869856 Ry
     Harris-Foulkes estimate   =    -329.47870791 Ry
     estimated scf accuracy    <       0.00020964 Ry

     iteration #  2     ecut=    30.00 Ry     beta=0.70
     Davidson diagonalization with overlap
     ethr =  3.81E-07,  avg # of iterations =  2.0

     negative rho (up, down):  8.052E-07 0.000E+00

     total cpu time spent up to now is       25.2 secs

     total energy              =    -329.47869704 Ry
     Harris-Foulkes estimate   =    -329.47883447 Ry
     estimated scf accuracy    <       0.00031373 Ry

     iteration #  3     ecut=    30.00 Ry     beta=0.70
     Davidson diagonalization with overlap
     ethr =  3.81E-07,  avg # of iterations =  2.0

     negative rho (up, down):  5.868E-08 0.000E+00

     total cpu time spent up to now is       25.4 secs

     total energy              =    -329.47874947 Ry
     Harris-Foulkes estimate   =    -329.47879932 Ry
     estimated scf accuracy    <       0.00016740 Ry

     iteration #  4     ecut=    30.00 Ry     beta=0.70
     Davidson diagonalization with overlap
     ethr =  3.04E-07,  avg # of iterations =  1.0

     total cpu time spent up to now is       25.6 secs

     total energy              =    -329.47877464 Ry
     Harris-Foulkes estimate   =    -329.47877906 Ry
     estimated scf accuracy    <       0.00001325 Ry

     iteration #  5     ecut=    30.00 Ry     beta=0.70
     Davidson diagonalization with overlap
     ethr =  2.41E-08,  avg # of iterations =  2.0

     total cpu time spent up to now is       25.8 secs

     total energy              =    -329.47877680 Ry
     Harris-Foulkes estimate   =    -329.47877930 Ry
     estimated scf accuracy    <       0.00000551 Ry

     iteration #  6     ecut=    30.00 Ry     beta=0.70
     Davidson diagonalization with overlap
     ethr =  1.00E-08,  avg # of iterations =  2.0

     total cpu time spent up to now is       26.0 secs

     total energy              =    -329.47877767 Ry
     Harris-Foulkes estimate   =    -329.47877780 Ry
     estimated scf accuracy    <       0.00000017 Ry

     iteration #  7     ecut=    30.00 Ry     beta=0.70
     Davidson diagonalization with overlap
     ethr =  3.11E-10,  avg # of iterations =  3.0

     total cpu time spent up to now is       26.2 secs

     total energy              =    -329.47877794 Ry
     Harris-Foulkes estimate   =    -329.47877773 Ry
     estimated scf accuracy    <       0.00000004 Ry

     iteration #  8     ecut=    30.00 Ry     beta=0.70
     Davidson diagonalization with overlap
     ethr =  7.13E-11,  avg # of iterations =  3.0

     total cpu time spent up to now is       26.4 secs

     total energy              =    -329.47877805 Ry
     Harris-Foulkes estimate   =    -329.47877795 Ry
     estimated scf accuracy    <          8.1E-09 Ry

     iteration #  9     ecut=    30.00 Ry     beta=0.70
     Davidson diagonalization with overlap
     ethr =  1.47E-11,  avg # of iterations =  3.0

     total cpu time spent up to now is       26.7 secs

     total energy              =    -329.47877807 Ry
     Harris-Foulkes estimate   =    -329.47877806 Ry
     estimated scf accuracy    <          2.9E-09 Ry

     iteration # 10     ecut=    30.00 Ry     beta=0.70
     Davidson diagonalization with overlap
     ethr =  5.22E-12,  avg # of iterations =  2.0

     total cpu time spent up to now is       26.9 secs

     End of self-consistent calculation

          k = 0.0000 0.0000 0.0000 ( 22119 PWs)   bands (ev):

    -8.2009  -7.5765  -7.5352  -7.3303  -7.0411  -6.6527  -6.4969  -6.4249
    -6.3814  -6.0586  -5.9518  -5.6900  -5.6702  -5.6294  -5.5507  -5.4885
    -5.2250  -5.2104  -5.1807  -5.1158  -5.1075  -4.9769  -4.9573  -4.9165
    -4.8398  -4.5708  -4.3515  -3.7254  -2.5126  -2.1962  -0.4281  -0.2250
     0.4171   0.5633

     the Fermi energy is    -3.7062 ev

!    total energy              =    -329.47877801 Ry
     Harris-Foulkes estimate   =    -329.47877807 Ry
     estimated scf accuracy    <          1.9E-10 Ry

     The total energy is the sum of the following terms:

     one-electron contribution =    -604.17301194 Ry
     hartree contribution      =     323.62435528 Ry
     xc contribution           =     -51.40911900 Ry
     ewald contribution        =       2.48038830 Ry
     smearing contrib. (-TS)   =      -0.00139065 Ry

     convergence has been achieved in  10 iterations

     Forces acting on atoms (Ry/au):

     atom    1 type  1   force =    -0.00327045   -0.00296345   -0.00870958
     atom    2 type  1   force =     0.00268980    0.00609756    0.00531697
     atom    3 type  1   force =    -0.00016206   -0.00414050    0.00114044
     atom    4 type  1   force =    -0.00040922   -0.00198727    0.00563022
     atom    5 type  1   force =     0.00115192    0.00299365   -0.00337805

     Total force =     0.015621     Total SCF correction =     0.000067

     number of scf cycles    =  10
     number of bfgs steps    =   9

     energy   old            =    -329.4782514549 Ry
     energy   new            =    -329.4787780148 Ry

     CASE: energy  _new < energy  _old

     new trust radius        =       0.0441165197 bohr
     new conv_thr            =       0.0000000005 Ry


ATOMIC_POSITIONS (bohr)
Au      -2.215364412   1.397005294  -0.190522045
Au       0.124351449   2.695047116   4.077414734
Au       2.914924480   1.558644321  -0.178437971
Au       4.405072155   4.491261700   6.110576894
Au       6.880765327   1.342304569   2.953475387



     Writing output data file pwscf.save
     Check: negative starting charge=   -0.006290
     NEW-OLD atomic charge density approx. for the potential
     Check: negative starting charge=   -0.006283

     negative rho (up, down):  6.962E-04 0.000E+00

     total cpu time spent up to now is       27.1 secs

     per-process dynamical memory:    50.7 Mb

     Self-consistent Calculation

     iteration #  1     ecut=    30.00 Ry     beta=0.70
     Davidson diagonalization with overlap
     ethr =  1.00E-06,  avg # of iterations =  5.0

     negative rho (up, down):  3.501E-05 0.000E+00

     total cpu time spent up to now is       27.5 secs

     total energy              =    -329.47907899 Ry
     Harris-Foulkes estimate   =    -329.47896772 Ry
     estimated scf accuracy    <       0.00072715 Ry

     iteration #  2     ecut=    30.00 Ry     beta=0.70
     Davidson diagonalization with overlap
     ethr =  1.32E-06,  avg # of iterations =  4.0

     negative rho (up, down):  6.801E-06 0.000E+00

     total cpu time spent up to now is       27.7 secs

     total energy              =    -329.47919232 Ry
     Harris-Foulkes estimate   =    -329.47951774 Ry
     estimated scf accuracy    <       0.00069956 Ry

     iteration #  3     ecut=    30.00 Ry     beta=0.70
     Davidson diagonalization with overlap
     ethr =  1.27E-06,  avg # of iterations =  2.0

     negative rho (up, down):  1.230E-06 0.000E+00

     total cpu time spent up to now is       28.0 secs

     total energy              =    -329.47930143 Ry
     Harris-Foulkes estimate   =    -329.47939579 Ry
     estimated scf accuracy    <       0.00027945 Ry

     iteration #  4     ecut=    30.00 Ry     beta=0.70
     Davidson diagonalization with overlap
     ethr =  5.08E-07,  avg # of iterations =  2.0

     total cpu time spent up to now is       28.1 secs

     total energy              =    -329.47935002 Ry
     Harris-Foulkes estimate   =    -329.47937142 Ry
     estimated scf accuracy    <       0.00007640 Ry

     iteration #  5     ecut=    30.00 Ry     beta=0.70
     Davidson diagonalization with overlap
     ethr =  1.39E-07,  avg # of iterations =  2.0

     total cpu time spent up to now is       28.3 secs

     total energy              =    -329.47935991 Ry
     Harris-Foulkes estimate   =    -329.47936617 Ry
     estimated scf accuracy    <       0.00001546 Ry

     iteration #  6     ecut=    30.00 Ry     beta=0.70
     Davidson diagonalization with overlap
     ethr =  2.81E-08,  avg # of iterations =  2.0

     total cpu time spent up to now is       28.5 secs

     total energy              =    -329.47936258 Ry
     Harris-Foulkes estimate   =    -329.47936275 Ry
     estimated scf accuracy    <       0.00000033 Ry

     iteration #  7     ecut=    30.00 Ry     beta=0.70
     Davidson diagonalization with overlap
     ethr =  5.98E-10,  avg # of iterations =  4.0

     total cpu time spent up to now is       28.8 secs

     total energy              =    -329.47936235 Ry
     Harris-Foulkes estimate   =    -329.47936276 Ry
     estimated scf accuracy    <       0.00000007 Ry

     iteration #  8     ecut=    30.00 Ry     beta=0.70
     Davidson diagonalization with overlap
     ethr =  1.35E-10,  avg # of iterations =  2.0

     total cpu time spent up to now is       29.0 secs

     total energy              =    -329.47936219 Ry
     Harris-Foulkes estimate   =    -329.47936238 Ry
     estimated scf accuracy    <       0.00000001 Ry

     iteration #  9     ecut=    30.00 Ry     beta=0.70
     Davidson diagonalization with overlap
     ethr =  2.33E-11,  avg # of iterations =  3.0

     total cpu time spent up to now is       29.2 secs

     total energy              =    -329.47936216 Ry
     Harris-Foulkes estimate   =    -329.47936220 Ry
     estimated scf accuracy    <          5.6E-09 Ry

     iteration # 10     ecut=    30.00 Ry     beta=0.70
     Davidson diagonalization with overlap
     ethr =  1.01E-11,  avg # of iterations =  3.0

     total cpu time spent up to now is       29.5 secs

     End of self-consistent calculation

          k = 0.0000 0.0000 0.0000 ( 22119 PWs)   bands (ev):

    -8.2209  -7.5877  -7.5602  -7.3451  -7.0410  -6.6577  -6.4986  -6.4303
    -6.3675  -6.0579  -5.9590  -5.6848  -5.6757  -5.6224  -5.5416  -5.4863
    -5.2255  -5.2093  -5.1889  -5.1081  -5.1005  -4.9658  -4.9332  -4.9040
    -4.8307  -4.5679  -4.3308  -3.7413  -2.4940  -2.1708  -0.4365  -0.2363
     0.4219   0.5937

     the Fermi energy is    -3.7294 ev

!    total energy              =    -329.47936213 Ry
     Harris-Foulkes estimate   =    -329.47936216 Ry
     estimated scf accuracy    <          2.8E-10 Ry

     The total energy is the sum of the following terms:

     one-electron contribution =    -605.21390600 Ry
     hartree contribution      =     324.15220739 Ry
     xc contribution           =     -51.41828485 Ry
     ewald contribution        =       3.00054703 Ry
     smearing contrib. (-TS)   =       0.00007430 Ry

     convergence has been achieved in  10 iterations

     Forces acting on atoms (Ry/au):

     atom    1 type  1   force =    -0.00392376   -0.00305813   -0.00866057
     atom    2 type  1   force =     0.00072773    0.00561445    0.00535661
     atom    3 type  1   force =    -0.00336263   -0.00438819   -0.00278926
     atom    4 type  1   force =     0.00192626   -0.00178795    0.00463551
     atom    5 type  1   force =     0.00463240    0.00361981    0.00145771

     Total force =     0.016246     Total SCF correction =     0.000074

     number of scf cycles    =  11
     number of bfgs steps    =  10

     energy   old            =    -329.4787780148 Ry
     energy   new            =    -329.4793621333 Ry

     CASE: energy  _new < energy  _old

     new trust radius        =       0.0661747795 bohr
     new conv_thr            =       0.0000000006 Ry


ATOMIC_POSITIONS (bohr)
Au      -2.216308140   1.394034983  -0.199364902
Au       0.126116122   2.748215807   4.051076196
Au       2.922965386   1.505758717  -0.160524387
Au       4.385189156   4.454142163   6.161624987
Au       6.891786476   1.382111330   2.919695106



     Writing output data file pwscf.save
     Check: negative starting charge=   -0.006283
     NEW-OLD atomic charge density approx. for the potential
     Check: negative starting charge=   -0.006277

     negative rho (up, down):  1.297E-03 0.000E+00

     total cpu time spent up to now is       29.7 secs

     per-process dynamical memory:    50.7 Mb

     Self-consistent Calculation

     iteration #  1     ecut=    30.00 Ry     beta=0.70
     Davidson diagonalization with overlap
     ethr =  1.00E-06,  avg # of iterations =  9.0

     negative rho (up, down):  9.703E-05 0.000E+00

     total cpu time spent up to now is       30.1 secs

     total energy              =    -329.47941232 Ry
     Harris-Foulkes estimate   =    -329.47908712 Ry
     estimated scf accuracy    <       0.00159822 Ry

     iteration #  2     ecut=    30.00 Ry     beta=0.70
     Davidson diagonalization with overlap
     ethr =  2.91E-06,  avg # of iterations =  5.0

     negative rho (up, down):  2.237E-05 0.000E+00

     total cpu time spent up to now is       30.4 secs

     total energy              =    -329.47976133 Ry
     Harris-Foulkes estimate   =    -329.48034342 Ry
     estimated scf accuracy    <       0.00125104 Ry

     iteration #  3     ecut=    30.00 Ry     beta=0.70
     Davidson diagonalization with overlap
     ethr =  2.27E-06,  avg # of iterations =  2.0

     negative rho (up, down):  1.677E-06 0.000E+00

     total cpu time spent up to now is       30.6 secs

     total energy              =    -329.47998806 Ry
     Harris-Foulkes estimate   =    -329.48005069 Ry
     estimated scf accuracy    <       0.00014035 Ry

     iteration #  4     ecut=    30.00 Ry     beta=0.70
     Davidson diagonalization with overlap
     ethr =  2.55E-07,  avg # of iterations =  2.0

     total cpu time spent up to now is       30.8 secs

     total energy              =    -329.47999775 Ry
     Harris-Foulkes estimate   =    -329.48008794 Ry
     estimated scf accuracy    <       0.00036121 Ry

     iteration #  5     ecut=    30.00 Ry     beta=0.70
     Davidson diagonalization with overlap
     ethr =  2.55E-07,  avg # of iterations =  2.0

     total cpu time spent up to now is       31.0 secs

     total energy              =    -329.48003965 Ry
     Harris-Foulkes estimate   =    -329.48004948 Ry
     estimated scf accuracy    <       0.00002567 Ry

     iteration #  6     ecut=    30.00 Ry     beta=0.70
     Davidson diagonalization with overlap
     ethr =  4.67E-08,  avg # of iterations =  2.0

     total cpu time spent up to now is       31.2 secs

     total energy              =    -329.48004377 Ry
     Harris-Foulkes estimate   =    -329.48004428 Ry
     estimated scf accuracy    <       0.00000058 Ry

     iteration #  7     ecut=    30.00 Ry     beta=0.70
     Davidson diagonalization with overlap
     ethr =  1.06E-09,  avg # of iterations =  3.0

     total cpu time spent up to now is       31.5 secs

     total energy              =    -329.48004393 Ry
     Harris-Foulkes estimate   =    -329.48004415 Ry
     estimated scf accuracy    <       0.00000023 Ry

     iteration #  8     ecut=    30.00 Ry     beta=0.70
     Davidson diagonalization with overlap
     ethr =  4.18E-10,  avg # of iterations =  2.0

     total cpu time spent up to now is       31.7 secs

     total energy              =    -329.48004390 Ry
     Harris-Foulkes estimate   =    -329.48004400 Ry
     estimated scf accuracy    <       0.00000003 Ry

     iteration #  9     ecut=    30.00 Ry     beta=0.70
     Davidson diagonalization with overlap
     ethr =  6.29E-11,  avg # of iterations =  2.0

     total cpu time spent up to now is       31.9 secs

     total energy              =    -329.48004384 Ry
     Harris-Foulkes estimate   =    -329.48004390 Ry
     estimated scf accuracy    <          3.1E-09 Ry

     iteration # 10     ecut=    30.00 Ry     beta=0.70
     Davidson diagonalization with overlap
     ethr =  5.58E-12,  avg # of iterations =  2.0

     total cpu time spent up to now is       32.1 secs

     End of self-consistent calculation

          k = 0.0000 0.0000 0.0000 ( 22119 PWs)   bands (ev):

    -8.2293  -7.5868  -7.5792  -7.3520  -7.0349  -6.6567  -6.4867  -6.4235
    -6.3498  -6.0603  -5.9731  -5.6953  -5.6639  -5.6095  -5.5304  -5.4786
    -5.2378  -5.2041  -5.1972  -5.1003  -5.0923  -4.9563  -4.9067  -4.8905
    -4.8242  -4.5681  -4.3157  -3.7638  -2.4840  -2.1417  -0.4482  -0.2535
     0.4239   0.6325

     the Fermi energy is    -3.7596 ev

!    total energy              =    -329.48004378 Ry
     Harris-Foulkes estimate   =    -329.48004384 Ry
     estimated scf accuracy    <          3.9E-10 Ry

     The total energy is the sum of the following terms:

     one-electron contribution =    -605.37866658 Ry
     hartree contribution      =     324.24485017 Ry
     xc contribution           =     -51.42505718 Ry
     ewald contribution        =       3.07724910 Ry
     smearing contrib. (-TS)   =       0.00158071 Ry

     convergence has been achieved in  10 iterations

     Forces acting on atoms (Ry/au):

     atom    1 type  1   force =    -0.00354408   -0.00239879   -0.00820443
     atom    2 type  1   force =    -0.00119268    0.00437822    0.00394395
     atom    3 type  1   force =    -0.00750324   -0.00452580   -0.00498085
     atom    4 type  1   force =     0.00535136   -0.00158538    0.00402696
     atom    5 type  1   force =     0.00688864    0.00413175    0.00521437

     Total force =     0.019038     Total SCF correction =     0.000100

     number of scf cycles    =  12
     number of bfgs steps    =  11

     energy   old            =    -329.4793621333 Ry
     energy   new            =    -329.4800437758 Ry

     CASE: energy  _new < energy  _old

     new trust radius        =       0.0992621692 bohr
     new conv_thr            =       0.0000000007 Ry


ATOMIC_POSITIONS (bohr)
Au      -2.223445428   1.390729189  -0.211036946
Au       0.123168155   2.829973564   4.011701863
Au       2.930420691   1.424194670  -0.146178837
Au       4.360336422   4.394078478   6.236642809
Au       6.919269160   1.445287100   2.881378111



     Writing output data file pwscf.save
     Check: negative starting charge=   -0.006277
     NEW-OLD atomic charge density approx. for the potential
     Check: negative starting charge=   -0.006262

     negative rho (up, down):  2.420E-03 0.000E+00

     total cpu time spent up to now is       32.3 secs

     per-process dynamical memory:    50.7 Mb

     Self-consistent Calculation

     iteration #  1     ecut=    30.00 Ry     beta=0.70
     Davidson diagonalization with overlap
     ethr =  1.00E-06,  avg # of iterations = 10.0

     negative rho (up, down):  2.454E-04 0.000E+00

     total cpu time spent up to now is       32.8 secs

     total energy              =    -329.47933247 Ry
     Harris-Foulkes estimate   =    -329.47886857 Ry
     estimated scf accuracy    <       0.00362592 Ry

     iteration #  2     ecut=    30.00 Ry     beta=0.70
     Davidson diagonalization with overlap
[...]
     estimated scf accuracy    <       0.00115668 Ry

     iteration #  4     ecut=    30.00 Ry     beta=0.70
     Davidson diagonalization with overlap
     ethr =  2.10E-06,  avg # of iterations =  2.0

     total cpu time spent up to now is      127.7 secs

     total energy              =    -329.48988146 Ry
     Harris-Foulkes estimate   =    -329.48991092 Ry
     estimated scf accuracy    <       0.00012049 Ry

     iteration #  5     ecut=    30.00 Ry     beta=0.70
     Davidson diagonalization with overlap
     ethr =  2.19E-07,  avg # of iterations =  2.0

     total cpu time spent up to now is      127.9 secs

     total energy              =    -329.48990567 Ry
     Harris-Foulkes estimate   =    -329.48991282 Ry
     estimated scf accuracy    <       0.00001857 Ry

     iteration #  6     ecut=    30.00 Ry     beta=0.70
     Davidson diagonalization with overlap
     ethr =  3.38E-08,  avg # of iterations =  2.0

     total cpu time spent up to now is      128.1 secs

     total energy              =    -329.48990931 Ry
     Harris-Foulkes estimate   =    -329.48991018 Ry
     estimated scf accuracy    <       0.00000186 Ry

     iteration #  7     ecut=    30.00 Ry     beta=0.70
     Davidson diagonalization with overlap
     ethr =  3.38E-09,  avg # of iterations =  2.0

     total cpu time spent up to now is      128.3 secs

     total energy              =    -329.48990979 Ry
     Harris-Foulkes estimate   =    -329.48990987 Ry
     estimated scf accuracy    <       0.00000032 Ry

     iteration #  8     ecut=    30.00 Ry     beta=0.70
     Davidson diagonalization with overlap
     ethr =  5.85E-10,  avg # of iterations =  2.0

     total cpu time spent up to now is      128.6 secs

     total energy              =    -329.48990964 Ry
     Harris-Foulkes estimate   =    -329.48990988 Ry
     estimated scf accuracy    <       0.00000006 Ry

     iteration #  9     ecut=    30.00 Ry     beta=0.70
     Davidson diagonalization with overlap
     ethr =  1.03E-10,  avg # of iterations =  2.0

     total cpu time spent up to now is      128.8 secs

     total energy              =    -329.48990972 Ry
     Harris-Foulkes estimate   =    -329.48990966 Ry
     estimated scf accuracy    <       0.00000002 Ry

     iteration # 10     ecut=    30.00 Ry     beta=0.70
     Davidson diagonalization with overlap
     ethr =  3.29E-11,  avg # of iterations =  2.0

     total cpu time spent up to now is      129.0 secs

     total energy              =    -329.48990971 Ry
     Harris-Foulkes estimate   =    -329.48990972 Ry
     estimated scf accuracy    <          2.3E-09 Ry

     iteration # 11     ecut=    30.00 Ry     beta=0.70
     Davidson diagonalization with overlap
     ethr =  4.23E-12,  avg # of iterations =  2.0

     total cpu time spent up to now is      129.2 secs

     End of self-consistent calculation

          k = 0.0000 0.0000 0.0000 ( 22119 PWs)   bands (ev):

    -8.4104  -7.6948  -7.6392  -7.2432  -7.1104  -6.7604  -6.5604  -6.4568
    -6.3490  -6.0218  -5.9781  -5.7346  -5.6916  -5.6530  -5.4132  -5.3678
    -5.3262  -5.2464  -5.2160  -5.2019  -5.1499  -5.1192  -4.9944  -4.9656
    -4.8857  -4.5606  -4.5018  -3.7621  -2.4873  -2.1437  -0.5190  -0.2372
     0.3797   0.7770

     the Fermi energy is    -3.7308 ev

!    total energy              =    -329.48990975 Ry
     Harris-Foulkes estimate   =    -329.48990971 Ry
     estimated scf accuracy    <          1.6E-10 Ry

     The total energy is the sum of the following terms:

     one-electron contribution =    -603.56280854 Ry
     hartree contribution      =     323.23103186 Ry
     xc contribution           =     -51.39969550 Ry
     ewald contribution        =       2.24545667 Ry
     smearing contrib. (-TS)   =      -0.00389424 Ry

     convergence has been achieved in  11 iterations

     Forces acting on atoms (Ry/au):

     atom    1 type  1   force =    -0.00086433   -0.00024743   -0.00243682
     atom    2 type  1   force =     0.00762278    0.00150971    0.00642767
     atom    3 type  1   force =    -0.00063526   -0.00333643   -0.00546536
     atom    4 type  1   force =    -0.00278575    0.00055486   -0.00290452
     atom    5 type  1   force =    -0.00333745    0.00151930    0.00437904

     Total force =     0.014106     Total SCF correction =     0.000059

     number of scf cycles    =  48
     number of bfgs steps    =  47

     energy   old            =    -329.4889382952 Ry
     energy   new            =    -329.4899097452 Ry

     CASE: energy  _new < energy  _old

     new trust radius        =       0.0939665251 bohr
     new conv_thr            =       0.0000000008 Ry


ATOMIC_POSITIONS (bohr)
Au      -2.253121241   1.486166529  -0.156150136
Au       0.749601656   3.293916807   3.471281129
Au       2.803021007   0.451250468  -0.348035141
Au       4.427334500   4.486018479   6.833221536
Au       6.382913078   1.766910716   2.972189612



     Writing output data file pwscf.save
     Check: negative starting charge=   -0.006270
     NEW-OLD atomic charge density approx. for the potential
     Check: negative starting charge=   -0.006231

     negative rho (up, down):  1.547E-03 0.000E+00

     total cpu time spent up to now is      129.4 secs

     per-process dynamical memory:    50.7 Mb

     Self-consistent Calculation

     iteration #  1     ecut=    30.00 Ry     beta=0.70
     Davidson diagonalization with overlap
     ethr =  1.00E-06,  avg # of iterations =  9.0

     negative rho (up, down):  1.294E-04 0.000E+00

     total cpu time spent up to now is      129.9 secs

     total energy              =    -329.48956139 Ry
     Harris-Foulkes estimate   =    -329.48865086 Ry
     estimated scf accuracy    <       0.00145034 Ry

     iteration #  2     ecut=    30.00 Ry     beta=0.70
     Davidson diagonalization with overlap
     ethr =  2.64E-06,  avg # of iterations =  8.0

     negative rho (up, down):  4.190E-05 0.000E+00

     total cpu time spent up to now is      130.2 secs

     total energy              =    -329.48965143 Ry
     Harris-Foulkes estimate   =    -329.49042792 Ry
     estimated scf accuracy    <       0.00170383 Ry

     iteration #  3     ecut=    30.00 Ry     beta=0.70
     Davidson diagonalization with overlap
     ethr =  2.64E-06,  avg # of iterations =  2.0

     negative rho (up, down):  6.197E-06 0.000E+00

     total cpu time spent up to now is      130.4 secs

     total energy              =    -329.48998539 Ry
     Harris-Foulkes estimate   =    -329.49019711 Ry
     estimated scf accuracy    <       0.00061915 Ry

     iteration #  4     ecut=    30.00 Ry     beta=0.70
     Davidson diagonalization with overlap
     ethr =  1.13E-06,  avg # of iterations =  2.0

     total cpu time spent up to now is      130.6 secs

     total energy              =    -329.49010796 Ry
     Harris-Foulkes estimate   =    -329.49012976 Ry
     estimated scf accuracy    <       0.00008462 Ry

     iteration #  5     ecut=    30.00 Ry     beta=0.70
     Davidson diagonalization with overlap
     ethr =  1.54E-07,  avg # of iterations =  2.0

     total cpu time spent up to now is      130.8 secs

     total energy              =    -329.49012416 Ry
     Harris-Foulkes estimate   =    -329.49012996 Ry
     estimated scf accuracy    <       0.00001594 Ry

     iteration #  6     ecut=    30.00 Ry     beta=0.70
     Davidson diagonalization with overlap
     ethr =  2.90E-08,  avg # of iterations =  2.0

     total cpu time spent up to now is      131.0 secs

     total energy              =    -329.49012723 Ry
     Harris-Foulkes estimate   =    -329.49012781 Ry
     estimated scf accuracy    <       0.00000118 Ry

     iteration #  7     ecut=    30.00 Ry     beta=0.70
     Davidson diagonalization with overlap
     ethr =  2.14E-09,  avg # of iterations =  2.0

     total cpu time spent up to now is      131.2 secs

     total energy              =    -329.49012756 Ry
     Harris-Foulkes estimate   =    -329.49012760 Ry
     estimated scf accuracy    <       0.00000018 Ry

     iteration #  8     ecut=    30.00 Ry     beta=0.70
     Davidson diagonalization with overlap
     ethr =  3.35E-10,  avg # of iterations =  2.0

     total cpu time spent up to now is      131.5 secs

     total energy              =    -329.49012753 Ry
     Harris-Foulkes estimate   =    -329.49012762 Ry
     estimated scf accuracy    <       0.00000006 Ry

     iteration #  9     ecut=    30.00 Ry     beta=0.70
     Davidson diagonalization with overlap
     ethr =  1.09E-10,  avg # of iterations =  2.0

     total cpu time spent up to now is      131.7 secs

     total energy              =    -329.49012748 Ry
     Harris-Foulkes estimate   =    -329.49012755 Ry
     estimated scf accuracy    <          9.5E-09 Ry

     iteration # 10     ecut=    30.00 Ry     beta=0.70
     Davidson diagonalization with overlap
     ethr =  1.72E-11,  avg # of iterations =  2.0

     total cpu time spent up to now is      131.9 secs

     total energy              =    -329.49012750 Ry
     Harris-Foulkes estimate   =    -329.49012748 Ry
     estimated scf accuracy    <          1.3E-09 Ry

     iteration # 11     ecut=    30.00 Ry     beta=0.70
     Davidson diagonalization with overlap
     ethr =  2.28E-12,  avg # of iterations =  2.0

     total cpu time spent up to now is      132.1 secs

     End of self-consistent calculation

          k = 0.0000 0.0000 0.0000 ( 22119 PWs)   bands (ev):

    -8.4523  -7.7367  -7.6946  -7.3076  -7.0876  -6.7843  -6.5538  -6.4876
    -6.3881  -6.0110  -5.9809  -5.7534  -5.7079  -5.6672  -5.4051  -5.3652
    -5.3486  -5.2364  -5.2189  -5.1947  -5.1631  -5.1207  -5.0046  -4.9501
    -4.8829  -4.5859  -4.4919  -3.7535  -2.4748  -2.1388  -0.5281  -0.2213
     0.3801   0.7754

     the Fermi energy is    -3.7203 ev

!    total energy              =    -329.49012750 Ry
     Harris-Foulkes estimate   =    -329.49012750 Ry
     estimated scf accuracy    <          8.7E-11 Ry

     The total energy is the sum of the following terms:

     one-electron contribution =    -605.59561871 Ry
     hartree contribution      =     324.22778790 Ry
     xc contribution           =     -51.40504376 Ry
     ewald contribution        =       3.28710859 Ry
     smearing contrib. (-TS)   =      -0.00436152 Ry

     convergence has been achieved in  11 iterations

     Forces acting on atoms (Ry/au):

     atom    1 type  1   force =    -0.00210653   -0.00096034   -0.00412656
     atom    2 type  1   force =     0.01005429    0.00568640    0.01186344
     atom    3 type  1   force =    -0.00377887   -0.00551549   -0.01015917
     atom    4 type  1   force =    -0.00649301   -0.00059666   -0.00398643
     atom    5 type  1   force =     0.00232412    0.00138609    0.00640871

     Total force =     0.023479     Total SCF correction =     0.000042

     number of scf cycles    =  49
     number of bfgs steps    =  48

     energy   old            =    -329.4899097452 Ry
     energy   new            =    -329.4901274986 Ry

     CASE: energy  _new < energy  _old

     new trust radius        =       0.0171338555 bohr
     new conv_thr            =       0.0000000002 Ry


ATOMIC_POSITIONS (bohr)
Au      -2.253655707   1.486393358  -0.162148088
Au       0.742355680   3.296802020   3.480429056
Au       2.800773856   0.455515531  -0.344332508
Au       4.421936696   4.472231391   6.830181836
Au       6.398338475   1.773320700   2.968376705



     Writing output data file pwscf.save
     Check: negative starting charge=   -0.006231
     NEW-OLD atomic charge density approx. for the potential
     Check: negative starting charge=   -0.006239

     negative rho (up, down):  4.357E-05 0.000E+00

     total cpu time spent up to now is      132.3 secs

     per-process dynamical memory:    50.7 Mb

     Self-consistent Calculation

     iteration #  1     ecut=    30.00 Ry     beta=0.70
     Davidson diagonalization with overlap
     ethr =  1.00E-06,  avg # of iterations =  4.0

     negative rho (up, down):  1.714E-07 0.000E+00

     total cpu time spent up to now is      132.6 secs

     total energy              =    -329.49018320 Ry
     Harris-Foulkes estimate   =    -329.49020201 Ry
     estimated scf accuracy    <       0.00006068 Ry

     iteration #  2     ecut=    30.00 Ry     beta=0.70
     Davidson diagonalization with overlap
     ethr =  1.10E-07,  avg # of iterations =  2.0

     negative rho (up, down):  1.683E-08 0.000E+00

     total cpu time spent up to now is      132.9 secs

     total energy              =    -329.49018105 Ry
     Harris-Foulkes estimate   =    -329.49022712 Ry
     estimated scf accuracy    <       0.00010621 Ry

     iteration #  3     ecut=    30.00 Ry     beta=0.70
     Davidson diagonalization with overlap
     ethr =  1.10E-07,  avg # of iterations =  2.0

     total cpu time spent up to now is      133.1 secs

     total energy              =    -329.49020151 Ry
     Harris-Foulkes estimate   =    -329.49021101 Ry
     estimated scf accuracy    <       0.00002778 Ry

     iteration #  4     ecut=    30.00 Ry     beta=0.70
     Davidson diagonalization with overlap
     ethr =  5.05E-08,  avg # of iterations =  2.0

     total cpu time spent up to now is      133.3 secs

     total energy              =    -329.49020704 Ry
     Harris-Foulkes estimate   =    -329.49020739 Ry
     estimated scf accuracy    <       0.00000249 Ry

     iteration #  5     ecut=    30.00 Ry     beta=0.70
     Davidson diagonalization with overlap
     ethr =  4.53E-09,  avg # of iterations =  3.0

     total cpu time spent up to now is      133.5 secs

     total energy              =    -329.49020751 Ry
     Harris-Foulkes estimate   =    -329.49020778 Ry
     estimated scf accuracy    <       0.00000051 Ry

     iteration #  6     ecut=    30.00 Ry     beta=0.70
     Davidson diagonalization with overlap
     ethr =  9.20E-10,  avg # of iterations =  3.0

     total cpu time spent up to now is      133.7 secs

     total energy              =    -329.49020752 Ry
     Harris-Foulkes estimate   =    -329.49020763 Ry
     estimated scf accuracy    <       0.00000005 Ry

     iteration #  7     ecut=    30.00 Ry     beta=0.70
     Davidson diagonalization with overlap
     ethr =  8.37E-11,  avg # of iterations =  2.0

     total cpu time spent up to now is      133.9 secs

     total energy              =    -329.49020743 Ry
     Harris-Foulkes estimate   =    -329.49020753 Ry
     estimated scf accuracy    <          6.1E-09 Ry

     iteration #  8     ecut=    30.00 Ry     beta=0.70
     Davidson diagonalization with overlap
     ethr =  1.11E-11,  avg # of iterations =  2.0

     total cpu time spent up to now is      134.1 secs

     total energy              =    -329.49020747 Ry
     Harris-Foulkes estimate   =    -329.49020743 Ry
     estimated scf accuracy    <          1.4E-09 Ry

     iteration #  9     ecut=    30.00 Ry     beta=0.70
     Davidson diagonalization with overlap
     ethr =  2.47E-12,  avg # of iterations =  2.0

     total cpu time spent up to now is      134.4 secs

     total energy              =    -329.49020746 Ry
     Harris-Foulkes estimate   =    -329.49020747 Ry
     estimated scf accuracy    <          4.5E-10 Ry

     iteration # 10     ecut=    30.00 Ry     beta=0.70
     Davidson diagonalization with overlap
     ethr =  8.24E-13,  avg # of iterations =  2.0

     total cpu time spent up to now is      134.6 secs

     End of self-consistent calculation

          k = 0.0000 0.0000 0.0000 ( 22119 PWs)   bands (ev):

    -8.4444  -7.7311  -7.6835  -7.2968  -7.0936  -6.7795  -6.5584  -6.4831
    -6.3815  -6.0137  -5.9832  -5.7493  -5.7057  -5.6646  -5.4063  -5.3588
    -5.3507  -5.2385  -5.2178  -5.1968  -5.1613  -5.1210  -5.0032  -4.9531
    -4.8842  -4.5816  -4.4945  -3.7538  -2.4778  -2.1394  -0.5267  -0.2240
     0.3795   0.7755

     the Fermi energy is    -3.7206 ev

!    total energy              =    -329.49020746 Ry
     Harris-Foulkes estimate   =    -329.49020746 Ry
     estimated scf accuracy    <          7.3E-11 Ry

     The total energy is the sum of the following terms:

     one-electron contribution =    -605.28812099 Ry
     hartree contribution      =     324.07655666 Ry
     xc contribution           =     -51.40399506 Ry
     ewald contribution        =       3.12970454 Ry
     smearing contrib. (-TS)   =      -0.00435260 Ry

     convergence has been achieved in  10 iterations

     Forces acting on atoms (Ry/au):

     atom    1 type  1   force =    -0.00148270   -0.00072293   -0.00361561
     atom    2 type  1   force =     0.00932902    0.00457506    0.01037325
     atom    3 type  1   force =    -0.00314328   -0.00489487   -0.00902545
     atom    4 type  1   force =    -0.00575396   -0.00000161   -0.00325987
     atom    5 type  1   force =     0.00105092    0.00104435    0.00552767

     Total force =     0.020570     Total SCF correction =     0.000029

     number of scf cycles    =  50
     number of bfgs steps    =  49

     energy   old            =    -329.4901274986 Ry
     energy   new            =    -329.4902074624 Ry

     CASE: energy  _new < energy  _old

     new trust radius        =       0.0188472411 bohr
     new conv_thr            =            1.0E-10 Ry


ATOMIC_POSITIONS (bohr)
Au      -2.257779809   1.487308500  -0.163845038
Au       0.746437720   3.300904412   3.487231655
Au       2.797611749   0.459482111  -0.348693905
Au       4.418621215   4.453688873   6.829548492
Au       6.404858125   1.782879104   2.968265796



     Writing output data file pwscf.save
     Check: negative starting charge=   -0.006239
     NEW-OLD atomic charge density approx. for the potential
     Check: negative starting charge=   -0.006242

     negative rho (up, down):  3.981E-05 0.000E+00

     Writing output data file pwscf.save
 
     init_run     :      0.16s CPU      0.19s WALL (       1 calls)
     electrons    :    116.59s CPU    125.64s WALL (      50 calls)
     update_pot   :      3.27s CPU      3.96s WALL (      50 calls)
     forces       :      2.04s CPU      2.08s WALL (      50 calls)

     Called by init_run:
     wfcinit      :      0.07s CPU      0.09s WALL (       1 calls)
     potinit      :      0.03s CPU      0.03s WALL (       1 calls)

     Called by electrons:
     c_bands      :     89.80s CPU     91.43s WALL (     518 calls)
     sum_band     :     12.07s CPU     12.35s WALL (     518 calls)
     v_of_rho     :      9.93s CPU     10.07s WALL (     562 calls)
     mix_rho      :      4.12s CPU      8.82s WALL (     518 calls)

     Called by c_bands:
     init_us_2    :      1.52s CPU      1.60s WALL (    1037 calls)
     cegterg      :     80.41s CPU     81.01s WALL (     518 calls)

     Called by sum_band:

     Called by *egterg:
     h_psi        :     61.79s CPU     62.27s WALL (    1983 calls)
     g_psi        :      0.62s CPU      0.63s WALL (    1464 calls)
     cdiaghg      :      4.76s CPU      4.77s WALL (    1926 calls)

     Called by h_psi:
     h_psi:pot    :     60.86s CPU     61.33s WALL (    1983 calls)
     h_psi:calbec :      3.43s CPU      3.45s WALL (    1983 calls)
     vloc_psi     :     53.55s CPU     53.99s WALL (    1983 calls)
     add_vuspsi   :      3.87s CPU      3.88s WALL (    1983 calls)

     General routines
     calbec       :      4.02s CPU      4.07s WALL (    2183 calls)
     fft          :      5.45s CPU      5.59s WALL (    6296 calls)
     fftw         :     55.89s CPU     56.79s WALL (  118816 calls)
     davcio       :      0.66s CPU      4.40s WALL (    5576 calls)
 
     Parallel routines
     fft_scatter  :     14.14s CPU     13.69s WALL (  125112 calls)
 
     PWSCF        :  2m 3.41s CPU     2m14.85s WALL

 
   This run was terminated on:   1:29:15   4Aug2017            

=------------------------------------------------------------------------------=
   JOB DONE.
=------------------------------------------------------------------------------=
