
     Program PWSCF v.6.0 (svn rev. 13079) starts on  7Feb2018 at  1:17: 1 

     This program is part of the open-source Quantum ESPRESSO suite
     for quantum simulation of materials; please cite
         "P. Giannozzi et al., J. Phys.:Condens. Matter 21 395502 (2009);
          URL http://www.quantum-espresso.org", 
     in publications or presentations arising from this work. More details at
     http://www.quantum-espresso.org/quote

     Parallel version (MPI), running on    28 processors
     R & G space division:  proc/nbgrp/npool/nimage =      28
     Reading input from inputs/rand-water-2/9765.in
Warning: card &IONS ignored
Warning: card     POT_EXTRAPOLATION='SECOND-ORDER' ignored
Warning: card     WFC_EXTRAPOLATION='SECOND-ORDER' ignored
Warning: card     ION_TEMPERATURE = 'ANDERSEN' ignored
Warning: card     TEMPW = 1000 ignored
Warning: card / ignored

     Current dimensions of program PWSCF are:
     Max number of different atomic species (ntypx) = 10
     Max number of k-points (npk) =  40000
     Max angular momentum in pseudopotentials (lmaxx) =  3

     Subspace diagonalization in iterative solution of the eigenvalue problem:
     a serial algorithm will be used

 
     Parallelization info
     --------------------
     sticks:   dense  smooth     PW     G-vecs:    dense   smooth      PW
     Min         136     136     33                 6338     6338     787
     Max         137     137     34                 6341     6341     792
     Sum        3809    3809    949               177509   177509   22119
 


     bravais-lattice index     =            1
     lattice parameter (alat)  =      20.0000  a.u.
     unit-cell volume          =    8000.0000 (a.u.)^3
     number of atoms/cell      =            6
     number of atomic types    =            2
     number of electrons       =        16.00
     number of Kohn-Sham states=           12
     kinetic-energy cutoff     =      30.0000  Ry
     charge density cutoff     =     120.0000  Ry
     convergence threshold     =      1.0E-08
     mixing beta               =       0.7000
     number of iterations used =            8  plain     mixing
     Exchange-correlation      = BLYP ( 1  3  1  3 0 0)

     celldm(1)=  20.000000  celldm(2)=   0.000000  celldm(3)=   0.000000
     celldm(4)=   0.000000  celldm(5)=   0.000000  celldm(6)=   0.000000

     crystal axes: (cart. coord. in units of alat)
               a(1) = (   1.000000   0.000000   0.000000 )  
               a(2) = (   0.000000   1.000000   0.000000 )  
               a(3) = (   0.000000   0.000000   1.000000 )  

     reciprocal axes: (cart. coord. in units 2 pi/alat)
               b(1) = (  1.000000  0.000000  0.000000 )  
               b(2) = (  0.000000  1.000000  0.000000 )  
               b(3) = (  0.000000  0.000000  1.000000 )  


     PseudoPot. # 1 for  H read from file:
     ./H.blyp-hgh.UPF
     MD5 check sum: c576e69559cde411e611be972c763230
     Pseudo is Norm-conserving, Zval =  1.0
     Generated in analytical, separable form
     Using radial grid of  929 points,  0 beta functions with: 

     PseudoPot. # 2 for  O read from file:
     ./O.blyp-hgh.UPF
     MD5 check sum: d0b7156309aa9befef28faac7bc56342
     Pseudo is Norm-conserving, Zval =  6.0
     Generated in analytical, separable form
     Using radial grid of 1095 points,  1 beta functions with: 
                l(1) =   0

     atomic species   valence    mass     pseudopotential
        H              1.00     1.01000      H( 1.00)
        O              6.00    16.00000      O( 1.00)

     No symmetry found



   Cartesian axes

     site n.     atom                  positions (alat units)
         1           H   tau(   1) = (   0.1032236   0.2949614   0.7290848  )
         2           H   tau(   2) = (   0.9091763   0.6332106   0.2518546  )
         3           H   tau(   3) = (   0.4400658   0.1400570   0.0275155  )
         4           H   tau(   4) = (   0.1768560   0.0228477   0.9626746  )
         5           O   tau(   5) = (   0.1316682   0.3517370   0.8022115  )
         6           O   tau(   6) = (   0.0036729   0.6649213   0.0825767  )

     number of k points=     1  Marzari-Vanderbilt smearing, width (Ry)=  0.0250
                       cart. coord. in units 2pi/alat
        k(    1) = (   0.0000000   0.0000000   0.0000000), wk =   2.0000000

     Dense  grid:   177509 G-vectors     FFT dimensions: (  72,  72,  72)

     Estimated max dynamical RAM per process >       6.09Mb

     Estimated total allocated dynamical RAM >     170.64Mb

     Initial potential from superposition of free atoms
     Check: negative starting charge=   -0.440274

     starting charge   15.99996, renormalised to   16.00000

     negative rho (up, down):  4.403E-01 0.000E+00
     Starting wfc are   12 randomized atomic wfcs

     total cpu time spent up to now is        0.2 secs

     per-process dynamical memory:    14.8 Mb

     Self-consistent Calculation

     iteration #  1     ecut=    30.00 Ry     beta=0.70
     Davidson diagonalization with overlap
     ethr =  1.00E-02,  avg # of iterations =  4.0

     negative rho (up, down):  1.070E-01 0.000E+00

     total cpu time spent up to now is        0.4 secs

     total energy              =     -56.59208349 Ry
     Harris-Foulkes estimate   =     -64.67115766 Ry
     estimated scf accuracy    <       9.20967529 Ry

     iteration #  2     ecut=    30.00 Ry     beta=0.70
     Davidson diagonalization with overlap
     ethr =  1.00E-02,  avg # of iterations =  4.0

     negative rho (up, down):  4.042E+00 0.000E+00

     total cpu time spent up to now is        0.4 secs

     total energy              =     -58.58578042 Ry
     Harris-Foulkes estimate   =     -76.60698578 Ry
     estimated scf accuracy    <      48.74582941 Ry

     iteration #  3     ecut=    30.00 Ry     beta=0.70
     Davidson diagonalization with overlap
     ethr =  1.00E-02,  avg # of iterations =  9.0

     negative rho (up, down):  3.552E+00 0.000E+00

     total cpu time spent up to now is        0.6 secs

     total energy              =     -65.20335145 Ry
     Harris-Foulkes estimate   =     -68.40121317 Ry
     estimated scf accuracy    <      13.12870536 Ry

     iteration #  4     ecut=    30.00 Ry     beta=0.70
     Davidson diagonalization with overlap
     ethr =  1.00E-02,  avg # of iterations =  2.0

     negative rho (up, down):  3.528E+00 0.000E+00

     total cpu time spent up to now is        0.7 secs

     total energy              =     -65.22829552 Ry
     Harris-Foulkes estimate   =     -65.41784121 Ry
     estimated scf accuracy    <       7.39658957 Ry

     iteration #  5     ecut=    30.00 Ry     beta=0.70
     Davidson diagonalization with overlap
     ethr =  1.00E-02,  avg # of iterations =  2.0

     negative rho (up, down):  3.404E+00 0.000E+00

     total cpu time spent up to now is        0.8 secs

     total energy              =     -64.95589268 Ry
     Harris-Foulkes estimate   =     -65.30601038 Ry
     estimated scf accuracy    <       7.32917048 Ry

     iteration #  6     ecut=    30.00 Ry     beta=0.70
     Davidson diagonalization with overlap
     ethr =  1.00E-02,  avg # of iterations =  3.0

     negative rho (up, down):  2.936E+00 0.000E+00

     total cpu time spent up to now is        0.9 secs

     total energy              =     -67.66107878 Ry
     Harris-Foulkes estimate   =     -65.36897057 Ry
     estimated scf accuracy    <       6.44884763 Ry

     iteration #  7     ecut=    30.00 Ry     beta=0.70
     Davidson diagonalization with overlap
     ethr =  1.00E-02,  avg # of iterations =  5.0

     negative rho (up, down):  2.851E+00 0.000E+00

     total cpu time spent up to now is        1.0 secs

     total energy              =     -20.17032185 Ry
     Harris-Foulkes estimate   =    -234.80623894 Ry
     estimated scf accuracy    <      18.78945274 Ry

     iteration #  8     ecut=    30.00 Ry     beta=0.70
     Davidson diagonalization with overlap
     ethr =  1.00E-02,  avg # of iterations =  5.0

     negative rho (up, down):  2.744E+00 0.000E+00

     total cpu time spent up to now is        1.1 secs

     total energy              =     -46.53421976 Ry
     Harris-Foulkes estimate   =     -66.08856733 Ry
     estimated scf accuracy    <       8.48392335 Ry

     iteration #  9     ecut=    30.00 Ry     beta=0.70
     Davidson diagonalization with overlap
     ethr =  1.00E-02,  avg # of iterations =  5.0

     negative rho (up, down):  2.591E+00 0.000E+00

     total cpu time spent up to now is        1.2 secs

     total energy              =     -41.26129968 Ry
     Harris-Foulkes estimate   =    -114.24109910 Ry
     estimated scf accuracy    <      12.19490764 Ry

     iteration # 10     ecut=    30.00 Ry     beta=0.70
     Davidson diagonalization with overlap
     ethr =  1.00E-02,  avg # of iterations =  5.0

     negative rho (up, down):  8.046E-01 0.000E+00

     total cpu time spent up to now is        1.3 secs

     total energy              =     -66.45752869 Ry
     Harris-Foulkes estimate   =     -72.04142967 Ry
     estimated scf accuracy    <      13.33824140 Ry

     iteration # 11     ecut=    30.00 Ry     beta=0.70
     Davidson diagonalization with overlap
     ethr =  1.00E-02,  avg # of iterations =  8.0

     negative rho (up, down):  7.509E-01 0.000E+00

     total cpu time spent up to now is        1.5 secs

     total energy              =     -75.64625286 Ry
     Harris-Foulkes estimate   =    -179.78377838 Ry
     estimated scf accuracy    <      72.30235739 Ry

     iteration # 12     ecut=    30.00 Ry     beta=0.70
     Davidson diagonalization with overlap
     ethr =  1.00E-02,  avg # of iterations =  7.0

     negative rho (up, down):  7.383E-01 0.000E+00

     total cpu time spent up to now is        1.6 secs

     total energy              =     -34.69385938 Ry
     Harris-Foulkes estimate   =    -363.16244766 Ry
     estimated scf accuracy    <      70.35639564 Ry

     iteration # 13     ecut=    30.00 Ry     beta=0.70
     Davidson diagonalization with overlap
     ethr =  1.00E-02,  avg # of iterations = 10.0

     negative rho (up, down):  1.021E+00 0.000E+00

     total cpu time spent up to now is        1.7 secs

     total energy              =    -161.02968875 Ry
     Harris-Foulkes estimate   =    -300.33340434 Ry
     estimated scf accuracy    <     140.72170348 Ry

     iteration # 14     ecut=    30.00 Ry     beta=0.70
     Davidson diagonalization with overlap
     ethr =  1.00E-02,  avg # of iterations =  8.0

     negative rho (up, down):  1.201E+00 0.000E+00

     total cpu time spent up to now is        1.8 secs

     total energy              =    -746.31538431 Ry
     Harris-Foulkes estimate   =   -1201.15779089 Ry
     estimated scf accuracy    <     132.37974743 Ry

     iteration # 15     ecut=    30.00 Ry     beta=0.70
     Davidson diagonalization with overlap
     ethr =  1.00E-02,  avg # of iterations =  8.0

     negative rho (up, down):  1.569E+00 0.000E+00

     total cpu time spent up to now is        2.0 secs

     total energy              =      67.27353974 Ry
     Harris-Foulkes estimate   =   -2690.72584432 Ry
     estimated scf accuracy    <     107.38600688 Ry

     iteration # 16     ecut=    30.00 Ry     beta=0.70
     Davidson diagonalization with overlap
     ethr =  1.00E-02,  avg # of iterations =  7.0

     negative rho (up, down):  1.573E+00 0.000E+00

     total cpu time spent up to now is        2.1 secs

     total energy              =  115554.69499447 Ry
     Harris-Foulkes estimate   =   -1570.23047732 Ry
     estimated scf accuracy    <     133.87086639 Ry

     iteration # 17     ecut=    30.00 Ry     beta=0.70
     Davidson diagonalization with overlap
     ethr =  1.00E-02,  avg # of iterations =  9.0

     negative rho (up, down):  2.394E+00 0.000E+00

     total cpu time spent up to now is        2.2 secs

     total energy              =    -501.62180182 Ry
     Harris-Foulkes estimate   =   -1252.47809475 Ry
     estimated scf accuracy    <     151.14048349 Ry

     iteration # 18     ecut=    30.00 Ry     beta=0.70
     Davidson diagonalization with overlap
     ethr =  1.00E-02,  avg # of iterations =  8.0

     negative rho (up, down):  2.180E+00 0.000E+00

     total cpu time spent up to now is        2.3 secs

     total energy              =      80.75904460 Ry
     Harris-Foulkes estimate   =   -3032.53332540 Ry
     estimated scf accuracy    <     110.11703968 Ry

     iteration # 19     ecut=    30.00 Ry     beta=0.70
     Davidson diagonalization with overlap
     ethr =  1.00E-02,  avg # of iterations =  8.0

     negative rho (up, down):  4.474E+00 0.000E+00

     total cpu time spent up to now is        2.5 secs

     total energy              =   -9622.27073706 Ry
     Harris-Foulkes estimate   =   -2725.11738954 Ry
     estimated scf accuracy    <     125.41624772 Ry

     iteration # 20     ecut=    30.00 Ry     beta=0.70
     Davidson diagonalization with overlap
     ethr =  1.00E-02,  avg # of iterations =  6.0

     negative rho (up, down):  6.240E+00 0.000E+00

     total cpu time spent up to now is        2.6 secs

     total energy              =   -1076.80008778 Ry
     Harris-Foulkes estimate   = -107312.24766249 Ry
     estimated scf accuracy    <     105.52436732 Ry

     iteration # 21     ecut=    30.00 Ry     beta=0.70
     Davidson diagonalization with overlap
     ethr =  1.00E-02,  avg # of iterations =  8.0

     negative rho (up, down):  4.381E+00 0.000E+00

     total cpu time spent up to now is        2.7 secs

     total energy              =   -1042.40628439 Ry
     Harris-Foulkes estimate   = -137094.99253203 Ry
     estimated scf accuracy    <      94.67819897 Ry

     iteration # 22     ecut=    30.00 Ry     beta=0.70
     Davidson diagonalization with overlap
     ethr =  1.00E-02,  avg # of iterations =  9.0

     negative rho (up, down):  1.697E+00 0.000E+00

     total cpu time spent up to now is        2.9 secs

     total energy              =     -53.56443415 Ry
     Harris-Foulkes estimate   =   -4890.83594937 Ry
     estimated scf accuracy    <      71.43985108 Ry

     iteration # 23     ecut=    30.00 Ry     beta=0.70
     Davidson diagonalization with overlap
     ethr =  1.00E-02,  avg # of iterations =  7.0

     negative rho (up, down):  1.320E+00 0.000E+00

     total cpu time spent up to now is        3.0 secs

     total energy              =    -527.66331989 Ry
     Harris-Foulkes estimate   =   -7693.16751736 Ry
     estimated scf accuracy    <      66.38765875 Ry

     iteration # 24     ecut=    30.00 Ry     beta=0.70
     Davidson diagonalization with overlap
     ethr =  1.00E-02,  avg # of iterations =  9.0

     negative rho (up, down):  1.264E+00 0.000E+00

     total cpu time spent up to now is        3.1 secs

     total energy              =    -852.00316136 Ry
     Harris-Foulkes estimate   =   -6239.72134694 Ry
     estimated scf accuracy    <      77.35006733 Ry

     iteration # 25     ecut=    30.00 Ry     beta=0.70
     Davidson diagonalization with overlap
     ethr =  1.00E-02,  avg # of iterations = 10.0

     negative rho (up, down):  1.045E+00 0.000E+00

     total cpu time spent up to now is        3.2 secs

     total energy              =     148.35234016 Ry
     Harris-Foulkes estimate   =  -10212.16880798 Ry
     estimated scf accuracy    <      58.57980080 Ry

     iteration # 26     ecut=    30.00 Ry     beta=0.70
     Davidson diagonalization with overlap
     ethr =  1.00E-02,  avg # of iterations =  9.0

     negative rho (up, down):  4.248E-01 0.000E+00

     total cpu time spent up to now is        3.4 secs

     total energy              =    1206.53506227 Ry
     Harris-Foulkes estimate   =   -2418.63370707 Ry
     estimated scf accuracy    <      50.08317506 Ry

     iteration # 27     ecut=    30.00 Ry     beta=0.70
     Davidson diagonalization with overlap
     ethr =  1.00E-02,  avg # of iterations = 12.0

     negative rho (up, down):  8.457E-02 0.000E+00

     total cpu time spent up to now is        3.5 secs

     total energy              =     191.75994432 Ry
     Harris-Foulkes estimate   =   -1436.38433793 Ry
     estimated scf accuracy    <      68.90339423 Ry

     iteration # 28     ecut=    30.00 Ry     beta=0.70
     Davidson diagonalization with overlap
     ethr =  1.00E-02,  avg # of iterations =  8.0

     negative rho (up, down):  1.547E-02 0.000E+00

     total cpu time spent up to now is        3.7 secs

     total energy              =     148.07868751 Ry
     Harris-Foulkes estimate   =    -946.32767018 Ry
     estimated scf accuracy    <      60.94937788 Ry

     iteration # 29     ecut=    30.00 Ry     beta=0.70
     Davidson diagonalization with overlap
     ethr =  1.00E-02,  avg # of iterations = 16.0

     negative rho (up, down):  1.223E-03 0.000E+00

     total cpu time spent up to now is        3.8 secs

     total energy              =    -115.96260331 Ry
     Harris-Foulkes estimate   =    -163.97630044 Ry
     estimated scf accuracy    <     155.87348113 Ry

     iteration # 30     ecut=    30.00 Ry     beta=0.70
     Davidson diagonalization with overlap
     ethr =  1.00E-02,  avg # of iterations =  5.0

     negative rho (up, down):  1.429E-02 0.000E+00

     total cpu time spent up to now is        3.9 secs

     total energy              =    -154.41939179 Ry
     Harris-Foulkes estimate   =    -150.35688663 Ry
     estimated scf accuracy    <     179.28461442 Ry

     iteration # 31     ecut=    30.00 Ry     beta=0.70
     Davidson diagonalization with overlap
     ethr =  1.00E-02,  avg # of iterations =  4.0

     negative rho (up, down):  4.226E-01 0.000E+00

     total cpu time spent up to now is        4.0 secs

     total energy              =    -121.10473437 Ry
     Harris-Foulkes estimate   =    -245.98147501 Ry
     estimated scf accuracy    <     145.98162169 Ry

     iteration # 32     ecut=    30.00 Ry     beta=0.70
     Davidson diagonalization with overlap
     ethr =  1.00E-02,  avg # of iterations =  5.0

     negative rho (up, down):  6.860E-01 0.000E+00

     total cpu time spent up to now is        4.1 secs

     total energy              =    -142.18175929 Ry
     Harris-Foulkes estimate   =    -217.80497291 Ry
     estimated scf accuracy    <     226.85335839 Ry

     iteration # 33     ecut=    30.00 Ry     beta=0.70
     Davidson diagonalization with overlap
     ethr =  1.00E-02,  avg # of iterations =  6.0

     negative rho (up, down):  1.068E+00 0.000E+00

     total cpu time spent up to now is        4.2 secs

     total energy              =    -141.43857276 Ry
     Harris-Foulkes estimate   =    -203.91792715 Ry
     estimated scf accuracy    <     223.97995588 Ry

     iteration # 34     ecut=    30.00 Ry     beta=0.70
     Davidson diagonalization with overlap
     ethr =  1.00E-02,  avg # of iterations =  8.0

     negative rho (up, down):  1.758E+00 0.000E+00

     total cpu time spent up to now is        4.4 secs

     total energy              =    -220.21040912 Ry
     Harris-Foulkes estimate   =    -289.54819459 Ry
     estimated scf accuracy    <     216.82834619 Ry

     iteration # 35     ecut=    30.00 Ry     beta=0.70
     Davidson diagonalization with overlap
     ethr =  1.00E-02,  avg # of iterations =  7.0

     negative rho (up, down):  2.087E+00 0.000E+00

     total cpu time spent up to now is        4.5 secs

     total energy              =    -210.10732877 Ry
     Harris-Foulkes estimate   =   -1633.92360446 Ry
     estimated scf accuracy    <     220.02899899 Ry

     iteration # 36     ecut=    30.00 Ry     beta=0.70
     Davidson diagonalization with overlap
     ethr =  1.00E-02,  avg # of iterations =  8.0

     negative rho (up, down):  3.829E+00 0.000E+00

     total cpu time spent up to now is        4.7 secs

     total energy              =   -1307.62780795 Ry
     Harris-Foulkes estimate   =   -4777.81110248 Ry
     estimated scf accuracy    <     235.83378652 Ry

     iteration # 37     ecut=    30.00 Ry     beta=0.70
     Davidson diagonalization with overlap
     ethr =  1.00E-02,  avg # of iterations =  8.0

     negative rho (up, down):  3.297E+00 0.000E+00

     total cpu time spent up to now is        4.8 secs

     total energy              =      82.88368189 Ry
     Harris-Foulkes estimate   =   -6039.27255356 Ry
     estimated scf accuracy    <     158.39816266 Ry

     iteration # 38     ecut=    30.00 Ry     beta=0.70
     Davidson diagonalization with overlap
     ethr =  1.00E-02,  avg # of iterations =  8.0

     negative rho (up, down):  3.599E+00 0.000E+00

     total cpu time spent up to now is        4.9 secs

     total energy              =    -134.70299417 Ry
     Harris-Foulkes estimate   =   -8467.40659045 Ry
     estimated scf accuracy    <     100.91538489 Ry

     iteration # 39     ecut=    30.00 Ry     beta=0.70
     Davidson diagonalization with overlap
     ethr =  1.00E-02,  avg # of iterations =  7.0

     negative rho (up, down):  5.116E+00 0.000E+00

     total cpu time spent up to now is        5.0 secs

     total energy              =      51.75549438 Ry
     Harris-Foulkes estimate   =   -5985.04613626 Ry
     estimated scf accuracy    <     121.25915769 Ry

     iteration # 40     ecut=    30.00 Ry     beta=0.70
     Davidson diagonalization with overlap
     ethr =  1.00E-02,  avg # of iterations =  8.0

     negative rho (up, down):  1.496E+00 0.000E+00

     total cpu time spent up to now is        5.2 secs

     total energy              =     188.94031610 Ry
     Harris-Foulkes estimate   =  -13056.63849395 Ry
     estimated scf accuracy    <      45.69476553 Ry

     iteration # 41     ecut=    30.00 Ry     beta=0.70
     Davidson diagonalization with overlap
     ethr =  1.00E-02,  avg # of iterations =  9.0

     negative rho (up, down):  2.048E+00 0.000E+00

     total cpu time spent up to now is        5.3 secs

     total energy              =    8415.13004890 Ry
     Harris-Foulkes estimate   =   -2870.38501638 Ry
     estimated scf accuracy    <      80.26937415 Ry

     iteration # 42     ecut=    30.00 Ry     beta=0.70
     Davidson diagonalization with overlap
     ethr =  1.00E-02,  avg # of iterations = 11.0

     negative rho (up, down):  1.233E+00 0.000E+00

     total cpu time spent up to now is        5.4 secs

     total energy              =     165.40422517 Ry
     Harris-Foulkes estimate   =   -5694.27297111 Ry
     estimated scf accuracy    <      51.23017053 Ry

     iteration # 43     ecut=    30.00 Ry     beta=0.70
     Davidson diagonalization with overlap
     ethr =  1.00E-02,  avg # of iterations =  8.0

     negative rho (up, down):  5.373E-01 0.000E+00

     total cpu time spent up to now is        5.6 secs

     total energy              =      33.02711783 Ry
     Harris-Foulkes estimate   =   -2551.26201143 Ry
     estimated scf accuracy    <      74.02444995 Ry

     iteration # 44     ecut=    30.00 Ry     beta=0.70
     Davidson diagonalization with overlap
     ethr =  1.00E-02,  avg # of iterations =  8.0

     negative rho (up, down):  7.640E-01 0.000E+00

     total cpu time spent up to now is        5.7 secs

     total energy              =   -1308.04393911 Ry
     Harris-Foulkes estimate   =   -1974.65628893 Ry
     estimated scf accuracy    <     122.85264613 Ry

     iteration # 45     ecut=    30.00 Ry     beta=0.70
     Davidson diagonalization with overlap
     ethr =  1.00E-02,  avg # of iterations = 11.0

     negative rho (up, down):  4.340E-01 0.000E+00

     total cpu time spent up to now is        5.9 secs

     total energy              =     191.88653810 Ry
     Harris-Foulkes estimate   =   -5956.70927052 Ry
     estimated scf accuracy    <     106.08511874 Ry

     iteration # 46     ecut=    30.00 Ry     beta=0.70
     Davidson diagonalization with overlap
     ethr =  1.00E-02,  avg # of iterations = 10.0

     negative rho (up, down):  5.685E-01 0.000E+00

     total cpu time spent up to now is        6.0 secs

     total energy              =   27690.99239820 Ry
     Harris-Foulkes estimate   =   -1162.09203987 Ry
     estimated scf accuracy    <      49.47627437 Ry

     iteration # 47     ecut=    30.00 Ry     beta=0.70
     Davidson diagonalization with overlap
     ethr =  1.00E-02,  avg # of iterations = 12.0

     negative rho (up, down):  4.351E-01 0.000E+00

     total cpu time spent up to now is        6.1 secs

     total energy              =     753.50115975 Ry
     Harris-Foulkes estimate   =   -2631.53909522 Ry
     estimated scf accuracy    <      64.27490096 Ry

     iteration # 48     ecut=    30.00 Ry     beta=0.70
     Davidson diagonalization with overlap
     ethr =  1.00E-02,  avg # of iterations =  8.0

     negative rho (up, down):  2.797E-01 0.000E+00

     total cpu time spent up to now is        6.3 secs

     total energy              =     106.65969248 Ry
     Harris-Foulkes estimate   =   -2136.68476454 Ry
     estimated scf accuracy    <      64.20664039 Ry

     iteration # 49     ecut=    30.00 Ry     beta=0.70
     Davidson diagonalization with overlap
     ethr =  1.00E-02,  avg # of iterations =  9.0

     negative rho (up, down):  7.738E-01 0.000E+00

     total cpu time spent up to now is        6.4 secs

     total energy              =    -139.05155751 Ry
     Harris-Foulkes estimate   =    -578.34786059 Ry
     estimated scf accuracy    <      72.10499487 Ry

     iteration # 50     ecut=    30.00 Ry     beta=0.70
     Davidson diagonalization with overlap
     ethr =  1.00E-02,  avg # of iterations =  9.0

     negative rho (up, down):  1.712E+00 0.000E+00

     total cpu time spent up to now is        6.5 secs

     total energy              =    -164.09524334 Ry
     Harris-Foulkes estimate   =   -3521.30727451 Ry
     estimated scf accuracy    <      97.60295288 Ry

     iteration # 51     ecut=    30.00 Ry     beta=0.70
     Davidson diagonalization with overlap
     ethr =  1.00E-02,  avg # of iterations =  7.0

     negative rho (up, down):  2.215E+00 0.000E+00

     total cpu time spent up to now is        6.7 secs

     total energy              =   18374.91388734 Ry
     Harris-Foulkes estimate   =  -11098.82495429 Ry
     estimated scf accuracy    <      75.99518100 Ry

     iteration # 52     ecut=    30.00 Ry     beta=0.70
     Davidson diagonalization with overlap
     ethr =  1.00E-02,  avg # of iterations = 10.0

     negative rho (up, down):  2.533E+00 0.000E+00

     total cpu time spent up to now is        6.8 secs

     total energy              =     119.68503840 Ry
     Harris-Foulkes estimate   =   -9171.28085762 Ry
     estimated scf accuracy    <      84.53025606 Ry

     iteration # 53     ecut=    30.00 Ry     beta=0.70
     Davidson diagonalization with overlap
     ethr =  1.00E-02,  avg # of iterations = 14.0

     negative rho (up, down):  2.802E-01 0.000E+00

     total cpu time spent up to now is        7.0 secs

     total energy              =      17.27320728 Ry
     Harris-Foulkes estimate   =   -3039.12876712 Ry
     estimated scf accuracy    <      45.79761297 Ry

     iteration # 54     ecut=    30.00 Ry     beta=0.70
     Davidson diagonalization with overlap
     ethr =  1.00E-02,  avg # of iterations =  8.0

     negative rho (up, down):  5.540E-01 0.000E+00

     total cpu time spent up to now is        7.1 secs

     total energy              =     127.30185973 Ry
     Harris-Foulkes estimate   =   -4949.30397893 Ry
     estimated scf accuracy    <      54.78918904 Ry

     iteration # 55     ecut=    30.00 Ry     beta=0.70
     Davidson diagonalization with overlap
     ethr =  1.00E-02,  avg # of iterations =  9.0

     negative rho (up, down):  5.759E-01 0.000E+00

     total cpu time spent up to now is        7.2 secs

     total energy              =    -216.44977951 Ry
     Harris-Foulkes estimate   =   -7579.67353357 Ry
     estimated scf accuracy    <      77.10914838 Ry

     iteration # 56     ecut=    30.00 Ry     beta=0.70
     Davidson diagonalization with overlap
     ethr =  1.00E-02,  avg # of iterations =  7.0

     negative rho (up, down):  9.366E-01 0.000E+00

     total cpu time spent up to now is        7.4 secs

     total energy              =      94.22716656 Ry
     Harris-Foulkes estimate   =   -2576.21816346 Ry
     estimated scf accuracy    <      68.30764233 Ry

     iteration # 57     ecut=    30.00 Ry     beta=0.70
     Davidson diagonalization with overlap
     ethr =  1.00E-02,  avg # of iterations = 10.0

     negative rho (up, down):  8.204E-01 0.000E+00

     total cpu time spent up to now is        7.5 secs

     total energy              =   -3527.02143310 Ry
     Harris-Foulkes estimate   =   -6337.61244052 Ry
     estimated scf accuracy    <      43.56338364 Ry

     iteration # 58     ecut=    30.00 Ry     beta=0.70
     Davidson diagonalization with overlap
     ethr =  1.00E-02,  avg # of iterations = 11.0

     negative rho (up, down):  3.436E-01 0.000E+00

     total cpu time spent up to now is        7.6 secs

     total energy              =     118.92087098 Ry
     Harris-Foulkes estimate   =  -11828.27100994 Ry
     estimated scf accuracy    <      45.26823089 Ry

     iteration # 59     ecut=    30.00 Ry     beta=0.70
     Davidson diagonalization with overlap
     ethr =  1.00E-02,  avg # of iterations =  8.0

     negative rho (up, down):  8.031E-02 0.000E+00

     total cpu time spent up to now is        7.8 secs

     total energy              =     197.22284379 Ry
     Harris-Foulkes estimate   =   -6095.51841356 Ry
     estimated scf accuracy    <      46.45049506 Ry

     iteration # 60     ecut=    30.00 Ry     beta=0.70
     Davidson diagonalization with overlap
     ethr =  1.00E-02,  avg # of iterations = 10.0

     negative rho (up, down):  4.237E-02 0.000E+00

     total cpu time spent up to now is        7.9 secs

     total energy              =    -131.52094000 Ry
     Harris-Foulkes estimate   =    -508.22586338 Ry
     estimated scf accuracy    <      95.08637385 Ry

     iteration # 61     ecut=    30.00 Ry     beta=0.70
     Davidson diagonalization with overlap
     ethr =  1.00E-02,  avg # of iterations =  9.0

     negative rho (up, down):  1.195E-04 0.000E+00

     total cpu time spent up to now is        8.0 secs

     total energy              =      73.43848106 Ry
     Harris-Foulkes estimate   =   -1933.24378209 Ry
     estimated scf accuracy    <      50.05585422 Ry

     iteration # 62     ecut=    30.00 Ry     beta=0.70
     Davidson diagonalization with overlap
     ethr =  1.00E-02,  avg # of iterations =  9.0

     negative rho (up, down):  5.131E-03 0.000E+00

     total cpu time spent up to now is        8.1 secs

     total energy              =    -121.14141195 Ry
     Harris-Foulkes estimate   =    -129.16582491 Ry
     estimated scf accuracy    <     146.05957135 Ry

     iteration # 63     ecut=    30.00 Ry     beta=0.70
     Davidson diagonalization with overlap
     ethr =  1.00E-02,  avg # of iterations =  7.0

     negative rho (up, down):  8.337E-02 0.000E+00

     total cpu time spent up to now is        8.2 secs

     total energy              =       2.06720499 Ry
     Harris-Foulkes estimate   =    -348.16625595 Ry
     estimated scf accuracy    <      68.13454508 Ry

     iteration # 64     ecut=    30.00 Ry     beta=0.70
     Davidson diagonalization with overlap
     ethr =  1.00E-02,  avg # of iterations =  8.0

     negative rho (up, down):  2.942E-01 0.000E+00

     total cpu time spent up to now is        8.4 secs

     total energy              =    -106.29560861 Ry
     Harris-Foulkes estimate   =    -126.87423983 Ry
     estimated scf accuracy    <     103.74361521 Ry

     iteration # 65     ecut=    30.00 Ry     beta=0.70
     Davidson diagonalization with overlap
     ethr =  1.00E-02,  avg # of iterations =  7.0

     negative rho (up, down):  4.957E-01 0.000E+00

     total cpu time spent up to now is        8.5 secs

     total energy              =     -57.64768744 Ry
     Harris-Foulkes estimate   =   -5464.76105167 Ry
     estimated scf accuracy    <      45.49228014 Ry

     iteration # 66     ecut=    30.00 Ry     beta=0.70
     Davidson diagonalization with overlap
     ethr =  1.00E-02,  avg # of iterations =  5.0

     negative rho (up, down):  8.997E-01 0.000E+00

     total cpu time spent up to now is        8.6 secs

     total energy              =      65.36182291 Ry
     Harris-Foulkes estimate   =   -4163.04343639 Ry
     estimated scf accuracy    <      50.12221301 Ry

     iteration # 67     ecut=    30.00 Ry     beta=0.70
     Davidson diagonalization with overlap
     ethr =  1.00E-02,  avg # of iterations =  7.0

     negative rho (up, down):  8.667E-01 0.000E+00

     total cpu time spent up to now is        8.7 secs

     total energy              =      37.86921906 Ry
     Harris-Foulkes estimate   =    -594.76966155 Ry
     estimated scf accuracy    <      39.56195225 Ry

     iteration # 68     ecut=    30.00 Ry     beta=0.70
     Davidson diagonalization with overlap
     ethr =  1.00E-02,  avg # of iterations = 10.0

     negative rho (up, down):  6.688E-01 0.000E+00

     total cpu time spent up to now is        8.9 secs

     total energy              =      21.45511323 Ry
     Harris-Foulkes estimate   =   -3615.23051185 Ry
     estimated scf accuracy    <      30.20278871 Ry

     iteration # 69     ecut=    30.00 Ry     beta=0.70
     Davidson diagonalization with overlap
     ethr =  1.00E-02,  avg # of iterations =  8.0

     negative rho (up, down):  1.725E-01 0.000E+00

     total cpu time spent up to now is        9.0 secs

     total energy              =      19.56954473 Ry
     Harris-Foulkes estimate   =    -634.41695695 Ry
     estimated scf accuracy    <      27.40488930 Ry

     iteration # 70     ecut=    30.00 Ry     beta=0.70
     Davidson diagonalization with overlap
     ethr =  1.00E-02,  avg # of iterations =  6.0

     negative rho (up, down):  9.889E-02 0.000E+00

     total cpu time spent up to now is        9.1 secs

     total energy              =      79.34779587 Ry
     Harris-Foulkes estimate   =    -795.06801537 Ry
     estimated scf accuracy    <      39.91333536 Ry

     iteration # 71     ecut=    30.00 Ry     beta=0.70
     Davidson diagonalization with overlap
     ethr =  1.00E-02,  avg # of iterations =  8.0

     negative rho (up, down):  2.408E-02 0.000E+00

     total cpu time spent up to now is        9.3 secs

     total energy              =      84.64565668 Ry
     Harris-Foulkes estimate   =    -583.31924990 Ry
     estimated scf accuracy    <      27.84169172 Ry

     iteration # 72     ecut=    30.00 Ry     beta=0.70
     Davidson diagonalization with overlap
     ethr =  1.00E-02,  avg # of iterations =  8.0

     negative rho (up, down):  1.192E-04 0.000E+00

     total cpu time spent up to now is        9.4 secs

     total energy              =      21.69706229 Ry
     Harris-Foulkes estimate   =    -344.23061529 Ry
     estimated scf accuracy    <      27.25790274 Ry

     iteration # 73     ecut=    30.00 Ry     beta=0.70
     Davidson diagonalization with overlap
     ethr =  1.00E-02,  avg # of iterations =  4.0

     negative rho (up, down):  4.478E-05 0.000E+00

     total cpu time spent up to now is        9.5 secs

     total energy              =     -85.71351098 Ry
     Harris-Foulkes estimate   =     -88.66716153 Ry
     estimated scf accuracy    <      49.23066296 Ry

     iteration # 74     ecut=    30.00 Ry     beta=0.70
     Davidson diagonalization with overlap
     ethr =  1.00E-02,  avg # of iterations =  2.0

     negative rho (up, down):  1.154E-01 0.000E+00

     total cpu time spent up to now is        9.6 secs

     total energy              =     -79.42010741 Ry
     Harris-Foulkes estimate   =     -85.77731671 Ry
     estimated scf accuracy    <      44.87064469 Ry

     iteration # 75     ecut=    30.00 Ry     beta=0.70
     Davidson diagonalization with overlap
     ethr =  1.00E-02,  avg # of iterations =  1.0

     negative rho (up, down):  1.900E+00 0.000E+00

     total cpu time spent up to now is        9.7 secs

     total energy              =     -52.58186538 Ry
     Harris-Foulkes estimate   =     -79.46139923 Ry
     estimated scf accuracy    <      36.85627856 Ry

     iteration # 76     ecut=    30.00 Ry     beta=0.70
     Davidson diagonalization with overlap
     ethr =  1.00E-02,  avg # of iterations =  8.0

     negative rho (up, down):  1.737E+00 0.000E+00

     total cpu time spent up to now is        9.8 secs

     total energy              =     797.74574868 Ry
     Harris-Foulkes estimate   =   -1630.44009249 Ry
     estimated scf accuracy    <     146.81374637 Ry

     iteration # 77     ecut=    30.00 Ry     beta=0.70
     Davidson diagonalization with overlap
     ethr =  1.00E-02,  avg # of iterations =  9.0

     negative rho (up, down):  5.684E-01 0.000E+00

     total cpu time spent up to now is        9.9 secs

     total energy              =    -161.08634679 Ry
     Harris-Foulkes estimate   =    -681.51014597 Ry
     estimated scf accuracy    <     119.10363806 Ry

     iteration # 78     ecut=    30.00 Ry     beta=0.70
     Davidson diagonalization with overlap
     ethr =  1.00E-02,  avg # of iterations = 11.0

     negative rho (up, down):  5.211E-01 0.000E+00

     total cpu time spent up to now is       10.1 secs

     total energy              =     -66.52586424 Ry
     Harris-Foulkes estimate   =    -976.30156473 Ry
     estimated scf accuracy    <      45.92705859 Ry

     iteration # 79     ecut=    30.00 Ry     beta=0.70
     Davidson diagonalization with overlap
     ethr =  1.00E-02,  avg # of iterations =  6.0

     negative rho (up, down):  6.695E-01 0.000E+00

     total cpu time spent up to now is       10.2 secs

     total energy              =     -62.76161358 Ry
     Harris-Foulkes estimate   =    -485.20168995 Ry
     estimated scf accuracy    <      68.34544039 Ry

     iteration # 80     ecut=    30.00 Ry     beta=0.70
     Davidson diagonalization with overlap
     ethr =  1.00E-02,  avg # of iterations =  7.0

     negative rho (up, down):  7.734E-01 0.000E+00

     total cpu time spent up to now is       10.3 secs

     total energy              =     -52.16593538 Ry
     Harris-Foulkes estimate   =    -179.11834834 Ry
     estimated scf accuracy    <      63.81970895 Ry

     iteration # 81     ecut=    30.00 Ry     beta=0.70
     Davidson diagonalization with overlap
     ethr =  1.00E-02,  avg # of iterations =  5.0

     negative rho (up, down):  2.858E-01 0.000E+00

     total cpu time spent up to now is       10.4 secs

     total energy              =     -48.84296545 Ry
     Harris-Foulkes estimate   =    -456.49769692 Ry
     estimated scf accuracy    <      41.87150460 Ry

     iteration # 82     ecut=    30.00 Ry     beta=0.70
     Davidson diagonalization with overlap
     ethr =  1.00E-02,  avg # of iterations =  6.0

     negative rho (up, down):  4.413E-01 0.000E+00

     total cpu time spent up to now is       10.5 secs

     total energy              =    -695.20982146 Ry
     Harris-Foulkes estimate   =   -1909.20742923 Ry
     estimated scf accuracy    <      95.73929571 Ry

     iteration # 83     ecut=    30.00 Ry     beta=0.70
     Davidson diagonalization with overlap
     ethr =  1.00E-02,  avg # of iterations =  6.0

     negative rho (up, down):  5.301E-01 0.000E+00

     total cpu time spent up to now is       10.6 secs

     total energy              =    -674.68174362 Ry
     Harris-Foulkes estimate   =   -1581.63733796 Ry
     estimated scf accuracy    <      67.85959928 Ry

     iteration # 84     ecut=    30.00 Ry     beta=0.70
     Davidson diagonalization with overlap
     ethr =  1.00E-02,  avg # of iterations =  5.0

     negative rho (up, down):  1.752E+00 0.000E+00

     total cpu time spent up to now is       10.8 secs

     total energy              =    -138.23575776 Ry
     Harris-Foulkes estimate   =   -1816.32499004 Ry
     estimated scf accuracy    <      82.28999732 Ry

     iteration # 85     ecut=    30.00 Ry     beta=0.70
     Davidson diagonalization with overlap
     ethr =  1.00E-02,  avg # of iterations =  9.0

     negative rho (up, down):  1.979E+00 0.000E+00

     total cpu time spent up to now is       10.9 secs

     total energy              =      89.70819295 Ry
     Harris-Foulkes estimate   =   -2548.96336635 Ry
     estimated scf accuracy    <      97.57532140 Ry

     iteration # 86     ecut=    30.00 Ry     beta=0.70
     Davidson diagonalization with overlap
     ethr =  1.00E-02,  avg # of iterations =  7.0

     negative rho (up, down):  2.089E+00 0.000E+00

     total cpu time spent up to now is       11.0 secs

     total energy              =    -852.40646574 Ry
     Harris-Foulkes estimate   =   -2906.83875887 Ry
     estimated scf accuracy    <      79.89850093 Ry

     iteration # 87     ecut=    30.00 Ry     beta=0.70
     Davidson diagonalization with overlap
     ethr =  1.00E-02,  avg # of iterations =  8.0

     negative rho (up, down):  2.648E+00 0.000E+00

     total cpu time spent up to now is       11.2 secs

     total energy              =     210.68780474 Ry
     Harris-Foulkes estimate   =   -8501.39799958 Ry
     estimated scf accuracy    <     104.00087976 Ry

     iteration # 88     ecut=    30.00 Ry     beta=0.70
     Davidson diagonalization with overlap
     ethr =  1.00E-02,  avg # of iterations = 13.0

     negative rho (up, down):  3.060E+00 0.000E+00

     total cpu time spent up to now is       11.3 secs

     total energy              =     154.92623159 Ry
     Harris-Foulkes estimate   =   -1489.89779610 Ry
     estimated scf accuracy    <      64.07802534 Ry

     iteration # 89     ecut=    30.00 Ry     beta=0.70
     Davidson diagonalization with overlap
     ethr =  1.00E-02,  avg # of iterations = 10.0

     negative rho (up, down):  3.719E+00 0.000E+00

     total cpu time spent up to now is       11.5 secs

     total energy              =  -35788.93014342 Ry
     Harris-Foulkes estimate   =   -1677.51763566 Ry
     estimated scf accuracy    <     102.76424454 Ry

     iteration # 90     ecut=    30.00 Ry     beta=0.70
     Davidson diagonalization with overlap
     ethr =  1.00E-02,  avg # of iterations =  6.0

     negative rho (up, down):  3.438E+00 0.000E+00

     total cpu time spent up to now is       11.6 secs

     total energy              =   -6180.83844192 Ry
     Harris-Foulkes estimate   =  -82152.80867283 Ry
     estimated scf accuracy    <      96.68833870 Ry

     iteration # 91     ecut=    30.00 Ry     beta=0.70
     Davidson diagonalization with overlap
     ethr =  1.00E-02,  avg # of iterations =  9.0

     negative rho (up, down):  1.349E+00 0.000E+00

     total cpu time spent up to now is       11.7 secs

     total energy              =    -294.95081454 Ry
     Harris-Foulkes estimate   =  -22918.90268251 Ry
     estimated scf accuracy    <      66.90469575 Ry

     iteration # 92     ecut=    30.00 Ry     beta=0.70
     Davidson diagonalization with overlap
     ethr =  1.00E-02,  avg # of iterations =  7.0

     negative rho (up, down):  8.231E-01 0.000E+00

     total cpu time spent up to now is       11.8 secs

     total energy              =     -28.92253910 Ry
     Harris-Foulkes estimate   =  -25442.21774534 Ry
     estimated scf accuracy    <      48.28445980 Ry

     iteration # 93     ecut=    30.00 Ry     beta=0.70
     Davidson diagonalization with overlap
     ethr =  1.00E-02,  avg # of iterations =  6.0

     negative rho (up, down):  1.100E+00 0.000E+00

     total cpu time spent up to now is       12.0 secs

     total energy              =     257.18142089 Ry
     Harris-Foulkes estimate   =  -14873.06114674 Ry
     estimated scf accuracy    <      38.90596651 Ry

     iteration # 94     ecut=    30.00 Ry     beta=0.70
     Davidson diagonalization with overlap
     ethr =  1.00E-02,  avg # of iterations =  7.0

     negative rho (up, down):  1.248E+00 0.000E+00

     total cpu time spent up to now is       12.1 secs

     total energy              =     189.93656956 Ry
     Harris-Foulkes estimate   =   -1236.11781950 Ry
     estimated scf accuracy    <      55.36259152 Ry

     iteration # 95     ecut=    30.00 Ry     beta=0.70
     Davidson diagonalization with overlap
     ethr =  1.00E-02,  avg # of iterations = 14.0

     negative rho (up, down):  9.935E-01 0.000E+00

     total cpu time spent up to now is       12.2 secs

     total energy              =     -95.58316501 Ry
     Harris-Foulkes estimate   =   -1549.56394850 Ry
     estimated scf accuracy    <      58.71410145 Ry

     iteration # 96     ecut=    30.00 Ry     beta=0.70
     Davidson diagonalization with overlap
     ethr =  1.00E-02,  avg # of iterations =  8.0

     negative rho (up, down):  5.876E-01 0.000E+00

     total cpu time spent up to now is       12.4 secs

     total energy              =     -65.97737428 Ry
     Harris-Foulkes estimate   =   -2816.28320102 Ry
     estimated scf accuracy    <      57.07061686 Ry

     iteration # 97     ecut=    30.00 Ry     beta=0.70
     Davidson diagonalization with overlap
     ethr =  1.00E-02,  avg # of iterations = 11.0

     negative rho (up, down):  3.103E-01 0.000E+00

     total cpu time spent up to now is       12.5 secs

     total energy              =      78.95839062 Ry
     Harris-Foulkes estimate   =   -1532.26132166 Ry
     estimated scf accuracy    <      48.00576352 Ry

     iteration # 98     ecut=    30.00 Ry     beta=0.70
     Davidson diagonalization with overlap
     ethr =  1.00E-02,  avg # of iterations =  8.0

     negative rho (up, down):  4.538E-03 0.000E+00

     total cpu time spent up to now is       12.7 secs

     total energy              =     169.31469587 Ry
     Harris-Foulkes estimate   =   -2364.52312810 Ry
     estimated scf accuracy    <      55.94913145 Ry

     iteration # 99     ecut=    30.00 Ry     beta=0.70
     Davidson diagonalization with overlap
     ethr =  1.00E-02,  avg # of iterations = 18.0

     negative rho (up, down):  3.390E-03 0.000E+00

     total cpu time spent up to now is       12.9 secs

     total energy              =    -143.17601560 Ry
     Harris-Foulkes estimate   =    -163.86559563 Ry
     estimated scf accuracy    <     166.01938492 Ry

     iteration #100     ecut=    30.00 Ry     beta=0.70
     Davidson diagonalization with overlap
     ethr =  1.00E-02,  avg # of iterations =  2.0

     negative rho (up, down):  1.354E-01 0.000E+00

     total cpu time spent up to now is       13.0 secs

     total energy              =    -132.26080607 Ry
     Harris-Foulkes estimate   =    -143.46363050 Ry
     estimated scf accuracy    <     136.32303565 Ry

     End of self-consistent calculation

     convergence NOT achieved after 100 iterations: stopping

     Writing output data file pwscf.save
 
     init_run     :      0.10s CPU      0.14s WALL (       1 calls)
     electrons    :      6.80s CPU     12.80s WALL (       1 calls)

     Called by init_run:
     wfcinit      :      0.02s CPU      0.05s WALL (       1 calls)
     potinit      :      0.02s CPU      0.02s WALL (       1 calls)

     Called by electrons:
     c_bands      :      4.25s CPU      5.04s WALL (     100 calls)
     sum_band     :      0.37s CPU      0.41s WALL (     100 calls)
     v_of_rho     :      1.00s CPU      1.09s WALL (     101 calls)
     mix_rho      :      1.10s CPU      5.43s WALL (     100 calls)

     Called by c_bands:
     init_us_2    :      0.01s CPU      0.02s WALL (     201 calls)
     cegterg      :      4.21s CPU      4.33s WALL (     100 calls)

     Called by sum_band:

     Called by *egterg:
     h_psi        :      3.34s CPU      3.43s WALL (     880 calls)
     g_psi        :      0.04s CPU      0.04s WALL (     779 calls)
     cdiaghg      :      0.37s CPU      0.38s WALL (     879 calls)

     Called by h_psi:
     h_psi:pot    :      3.32s CPU      3.41s WALL (     880 calls)
     h_psi:calbec :      0.10s CPU      0.10s WALL (     880 calls)
     vloc_psi     :      3.20s CPU      3.29s WALL (     880 calls)
     add_vuspsi   :      0.02s CPU      0.02s WALL (     880 calls)

     General routines
     calbec       :      0.09s CPU      0.10s WALL (     880 calls)
     fft          :      0.57s CPU      0.64s WALL (    1111 calls)
     fftw         :      3.17s CPU      3.28s WALL (   15210 calls)
     davcio       :      0.12s CPU      4.07s WALL (    1928 calls)
 
     Parallel routines
     fft_scatter  :      1.43s CPU      1.54s WALL (   16321 calls)
 
     PWSCF        :     6.99s CPU        13.15s WALL

 
   This run was terminated on:   1:17:14   7Feb2018            

=------------------------------------------------------------------------------=
   JOB DONE.
=------------------------------------------------------------------------------=
