
     Program PWSCF v.6.0 (svn rev. 13079) starts on 23Jan2018 at 21:39:25 

     This program is part of the open-source Quantum ESPRESSO suite
     for quantum simulation of materials; please cite
         "P. Giannozzi et al., J. Phys.:Condens. Matter 21 395502 (2009);
          URL http://www.quantum-espresso.org", 
     in publications or presentations arising from this work. More details at
     http://www.quantum-espresso.org/quote

     Parallel version (MPI), running on    10 processors
     R & G space division:  proc/nbgrp/npool/nimage =      10
     Reading input from inputs/CO2-100.in

     Current dimensions of program PWSCF are:
     Max number of different atomic species (ntypx) = 10
     Max number of k-points (npk) =  40000
     Max angular momentum in pseudopotentials (lmaxx) =  3

     Subspace diagonalization in iterative solution of the eigenvalue problem:
     a serial algorithm will be used

 
     Parallelization info
     --------------------
     sticks:   dense  smooth     PW     G-vecs:    dense   smooth      PW
     Min         380     380     94                17748    17748    2208
     Max         381     381     95                17753    17753    2213
     Sum        3809    3809    949               177509   177509   22119
 


     bravais-lattice index     =            1
     lattice parameter (alat)  =      20.0000  a.u.
     unit-cell volume          =    8000.0000 (a.u.)^3
     number of atoms/cell      =            3
     number of atomic types    =            2
     number of electrons       =        16.00
     number of Kohn-Sham states=           12
     kinetic-energy cutoff     =      30.0000  Ry
     charge density cutoff     =     120.0000  Ry
     convergence threshold     =      1.0E-08
     mixing beta               =       0.7000
     number of iterations used =            8  plain     mixing
     Exchange-correlation      = BLYP ( 1  3  1  3 0 0)
     nstep                     =         5000


     celldm(1)=  20.000000  celldm(2)=   0.000000  celldm(3)=   0.000000
     celldm(4)=   0.000000  celldm(5)=   0.000000  celldm(6)=   0.000000

     crystal axes: (cart. coord. in units of alat)
               a(1) = (   1.000000   0.000000   0.000000 )  
               a(2) = (   0.000000   1.000000   0.000000 )  
               a(3) = (   0.000000   0.000000   1.000000 )  

     reciprocal axes: (cart. coord. in units 2 pi/alat)
               b(1) = (  1.000000  0.000000  0.000000 )  
               b(2) = (  0.000000  1.000000  0.000000 )  
               b(3) = (  0.000000  0.000000  1.000000 )  


     PseudoPot. # 1 for  C read from file:
     ./C.blyp-hgh.UPF
     MD5 check sum: 40075daedda6aecb39abd2ed8496c111
     Pseudo is Norm-conserving, Zval =  4.0
     Generated in analytical, separable form
     Using radial grid of 1073 points,  1 beta functions with: 
                l(1) =   0

     PseudoPot. # 2 for  O read from file:
     ./O.blyp-hgh.UPF
     MD5 check sum: d0b7156309aa9befef28faac7bc56342
     Pseudo is Norm-conserving, Zval =  6.0
     Generated in analytical, separable form
     Using radial grid of 1095 points,  1 beta functions with: 
                l(1) =   0

     atomic species   valence    mass     pseudopotential
        C              4.00    12.01000      C( 1.00)
        O              6.00    16.00000      O( 1.00)

     No symmetry found



   Cartesian axes

     site n.     atom                  positions (alat units)
         1           C   tau(   1) = (   0.0000000   0.0000000   0.0000000  )
         2           O   tau(   2) = (   0.0000000   0.3000000   0.1500000  )
         3           O   tau(   3) = (   0.1500000   0.1500000   0.0000000  )

     number of k points=     1  Marzari-Vanderbilt smearing, width (Ry)=  0.0250
                       cart. coord. in units 2pi/alat
        k(    1) = (   0.0000000   0.0000000   0.0000000), wk =   2.0000000

     Dense  grid:   177509 G-vectors     FFT dimensions: (  72,  72,  72)

     Estimated max dynamical RAM per process >       8.10Mb

     Estimated total allocated dynamical RAM >      80.99Mb

     Initial potential from superposition of free atoms
     Check: negative starting charge=   -0.484361

     starting charge   15.99995, renormalised to   16.00000

     negative rho (up, down):  4.844E-01 0.000E+00
     Starting wfc are   12 randomized atomic wfcs

     total cpu time spent up to now is        0.2 secs

     per-process dynamical memory:    24.7 Mb

     Self-consistent Calculation

     iteration #  1     ecut=    30.00 Ry     beta=0.70
     Davidson diagonalization with overlap
     ethr =  1.00E-02,  avg # of iterations =  2.0

     negative rho (up, down):  1.230E-01 0.000E+00

     total cpu time spent up to now is        0.3 secs

     total energy              =     -69.26691793 Ry
     Harris-Foulkes estimate   =     -71.11859416 Ry
     estimated scf accuracy    <       1.78961174 Ry

     iteration #  2     ecut=    30.00 Ry     beta=0.70
     Davidson diagonalization with overlap
     ethr =  1.00E-02,  avg # of iterations =  2.0

     negative rho (up, down):  9.277E-02 0.000E+00

     total cpu time spent up to now is        0.4 secs

     total energy              =     -69.47939625 Ry
     Harris-Foulkes estimate   =     -71.60603744 Ry
     estimated scf accuracy    <       5.87531293 Ry

     iteration #  3     ecut=    30.00 Ry     beta=0.70
     Davidson diagonalization with overlap
     ethr =  1.00E-02,  avg # of iterations =  2.0

     negative rho (up, down):  5.770E-02 0.000E+00

     total cpu time spent up to now is        0.5 secs

     total energy              =     -69.34700973 Ry
     Harris-Foulkes estimate   =     -70.20285617 Ry
     estimated scf accuracy    <       4.71690683 Ry

     iteration #  4     ecut=    30.00 Ry     beta=0.70
     Davidson diagonalization with overlap
     ethr =  1.00E-02,  avg # of iterations =  1.0

     negative rho (up, down):  4.040E-02 0.000E+00

     total cpu time spent up to now is        0.6 secs

     total energy              =     -70.18848366 Ry
     Harris-Foulkes estimate   =     -70.39252005 Ry
     estimated scf accuracy    <       1.73818081 Ry

     iteration #  5     ecut=    30.00 Ry     beta=0.70
     Davidson diagonalization with overlap
     ethr =  1.00E-02,  avg # of iterations =  1.0

     negative rho (up, down):  2.101E-02 0.000E+00

     total cpu time spent up to now is        0.7 secs

     total energy              =     -70.16911385 Ry
     Harris-Foulkes estimate   =     -70.32748362 Ry
     estimated scf accuracy    <       1.91103002 Ry

     iteration #  6     ecut=    30.00 Ry     beta=0.70
     Davidson diagonalization with overlap
     ethr =  1.00E-02,  avg # of iterations =  1.0

     negative rho (up, down):  9.405E-03 0.000E+00

     total cpu time spent up to now is        0.7 secs

     total energy              =     -70.12903440 Ry
     Harris-Foulkes estimate   =     -70.19475227 Ry
     estimated scf accuracy    <       0.84125736 Ry

     iteration #  7     ecut=    30.00 Ry     beta=0.70
     Davidson diagonalization with overlap
     ethr =  5.26E-03,  avg # of iterations =  1.0

     negative rho (up, down):  4.985E-03 0.000E+00

     total cpu time spent up to now is        0.8 secs

     total energy              =     -70.13156444 Ry
     Harris-Foulkes estimate   =     -70.14581250 Ry
     estimated scf accuracy    <       0.22202148 Ry

     iteration #  8     ecut=    30.00 Ry     beta=0.70
     Davidson diagonalization with overlap
     ethr =  1.39E-03,  avg # of iterations =  1.0

     negative rho (up, down):  2.563E-04 0.000E+00

     total cpu time spent up to now is        0.9 secs

     total energy              =     -70.13935124 Ry
     Harris-Foulkes estimate   =     -70.13766638 Ry
     estimated scf accuracy    <       0.02062708 Ry

     iteration #  9     ecut=    30.00 Ry     beta=0.70
     Davidson diagonalization with overlap
     ethr =  1.29E-04,  avg # of iterations =  1.0

     negative rho (up, down):  2.530E-04 0.000E+00

     total cpu time spent up to now is        1.0 secs

     total energy              =     -70.14217623 Ry
     Harris-Foulkes estimate   =     -70.14384207 Ry
     estimated scf accuracy    <       0.14075479 Ry

     iteration # 10     ecut=    30.00 Ry     beta=0.70
     Davidson diagonalization with overlap
     ethr =  1.29E-04,  avg # of iterations =  1.0

     negative rho (up, down):  6.586E-05 0.000E+00

     total cpu time spent up to now is        1.1 secs

     total energy              =     -70.13815166 Ry
     Harris-Foulkes estimate   =     -70.14245360 Ry
     estimated scf accuracy    <       0.06836833 Ry

     iteration # 11     ecut=    30.00 Ry     beta=0.70
     Davidson diagonalization with overlap
     ethr =  1.29E-04,  avg # of iterations =  1.0

     negative rho (up, down):  7.776E-07 0.000E+00

     total cpu time spent up to now is        1.2 secs

     total energy              =     -70.14086552 Ry
     Harris-Foulkes estimate   =     -70.14085410 Ry
     estimated scf accuracy    <       0.00158920 Ry

     iteration # 12     ecut=    30.00 Ry     beta=0.70
     Davidson diagonalization with overlap
     ethr =  9.93E-06,  avg # of iterations =  1.0

     negative rho (up, down):  1.825E-06 0.000E+00

     total cpu time spent up to now is        1.3 secs

     total energy              =     -70.14078091 Ry
     Harris-Foulkes estimate   =     -70.14087810 Ry
     estimated scf accuracy    <       0.00178541 Ry

     iteration # 13     ecut=    30.00 Ry     beta=0.70
     Davidson diagonalization with overlap
     ethr =  9.93E-06,  avg # of iterations =  1.0

     total cpu time spent up to now is        1.3 secs

     total energy              =     -70.14080907 Ry
     Harris-Foulkes estimate   =     -70.14081319 Ry
     estimated scf accuracy    <       0.00039900 Ry

     iteration # 14     ecut=    30.00 Ry     beta=0.70
     Davidson diagonalization with overlap
     ethr =  2.49E-06,  avg # of iterations =  1.0

     total cpu time spent up to now is        1.4 secs

     total energy              =     -70.14080423 Ry
     Harris-Foulkes estimate   =     -70.14081100 Ry
     estimated scf accuracy    <       0.00020742 Ry

     iteration # 15     ecut=    30.00 Ry     beta=0.70
     Davidson diagonalization with overlap
     ethr =  1.30E-06,  avg # of iterations =  1.0

     total cpu time spent up to now is        1.5 secs

     total energy              =     -70.14080561 Ry
     Harris-Foulkes estimate   =     -70.14080632 Ry
     estimated scf accuracy    <       0.00005296 Ry

     iteration # 16     ecut=    30.00 Ry     beta=0.70
     Davidson diagonalization with overlap
     ethr =  3.31E-07,  avg # of iterations =  1.0

     total cpu time spent up to now is        1.6 secs

     total energy              =     -70.14080528 Ry
     Harris-Foulkes estimate   =     -70.14080574 Ry
     estimated scf accuracy    <       0.00003148 Ry

     iteration # 17     ecut=    30.00 Ry     beta=0.70
     Davidson diagonalization with overlap
     ethr =  1.97E-07,  avg # of iterations =  1.0

     total cpu time spent up to now is        1.7 secs

     total energy              =     -70.14080429 Ry
     Harris-Foulkes estimate   =     -70.14080531 Ry
     estimated scf accuracy    <       0.00002193 Ry

     iteration # 18     ecut=    30.00 Ry     beta=0.70
     Davidson diagonalization with overlap
     ethr =  1.37E-07,  avg # of iterations =  1.0

     total cpu time spent up to now is        1.8 secs

     total energy              =     -70.14080421 Ry
     Harris-Foulkes estimate   =     -70.14080457 Ry
     estimated scf accuracy    <       0.00000380 Ry

     iteration # 19     ecut=    30.00 Ry     beta=0.70
     Davidson diagonalization with overlap
     ethr =  2.38E-08,  avg # of iterations =  1.0

     total cpu time spent up to now is        1.9 secs

     total energy              =     -70.14080435 Ry
     Harris-Foulkes estimate   =     -70.14080441 Ry
     estimated scf accuracy    <       0.00000012 Ry

     iteration # 20     ecut=    30.00 Ry     beta=0.70
     Davidson diagonalization with overlap
     ethr =  7.27E-10,  avg # of iterations =  1.0

     total cpu time spent up to now is        1.9 secs

     End of self-consistent calculation

          k = 0.0000 0.0000 0.0000 ( 22119 PWs)   bands (ev):

   -24.1843 -23.6096 -15.4083  -8.4912  -8.0279  -7.6267  -6.9772  -6.9320
    -6.7967  -6.3543  -6.3067  -4.9090

     the Fermi energy is    -6.7822 ev

!    total energy              =     -70.14080433 Ry
     Harris-Foulkes estimate   =     -70.14080435 Ry
     estimated scf accuracy    <          3.7E-09 Ry

     convergence has been achieved in  20 iterations

     Forces acting on atoms (Ry/au):

     atom    1 type  1   force =     0.13191636    0.13704077    0.00275256
     atom    2 type  2   force =     0.01873749   -0.02438175   -0.02209694
     atom    3 type  2   force =    -0.15065385   -0.11265902    0.01934438

     Total force =     0.270899     Total SCF correction =     0.000052

     Molecular Dynamics Calculation

     Starting temperature  =   100.00 K

     temperature is controlled by Andersen thermostat
     Collision frequency = 1.0000/timestep
     mass C                =    12.01
     mass O                =    16.00
     Time step             =   100.00 a.u.,  4.8378 femto-seconds

     Entering Dynamics:    iteration =     1
                           time      =   0.0048 pico-seconds


     Andersen thermostat:    3 collisions

ATOMIC_POSITIONS (bohr)
C        0.070464218   0.075167393  -0.015852274
O       -0.005157623   5.996583427   2.977435992
O        2.952265419   2.946994049   0.034463121


     kinetic energy (Ekin) =     0.00130991 Ry
     temperature           =    68.93942678 K 
     Ekin + Etot (const)   =   -70.13949442 Ry

     Linear momentum :    0.0000000000    0.0000000000    0.0000000000

     Writing output data file pwscf.save
     Check: negative starting charge=   -0.484361
     NEW-OLD atomic charge density approx. for the potential
     Check: negative starting charge=   -0.483986

     negative rho (up, down):  1.515E-01 0.000E+00

     total cpu time spent up to now is        2.2 secs

     per-process dynamical memory:    34.2 Mb

     Self-consistent Calculation

     iteration #  1     ecut=    30.00 Ry     beta=0.70
     Davidson diagonalization with overlap
     ethr =  1.00E-06,  avg # of iterations =  5.0

     negative rho (up, down):  3.925E-02 0.000E+00

     total cpu time spent up to now is        2.3 secs

     total energy              =     -70.13416784 Ry
     Harris-Foulkes estimate   =     -70.10458910 Ry
     estimated scf accuracy    <       0.01759944 Ry

     iteration #  2     ecut=    30.00 Ry     beta=0.70
     Davidson diagonalization with overlap
     ethr =  1.10E-04,  avg # of iterations =  2.0

     negative rho (up, down):  3.614E-02 0.000E+00

     total cpu time spent up to now is        2.4 secs

     total energy              =     -70.10292002 Ry
     Harris-Foulkes estimate   =     -70.19832628 Ry
     estimated scf accuracy    <       0.79582716 Ry

     iteration #  3     ecut=    30.00 Ry     beta=0.70
     Davidson diagonalization with overlap
     ethr =  1.10E-04,  avg # of iterations =  2.0

     negative rho (up, down):  1.260E-02 0.000E+00

     total cpu time spent up to now is        2.5 secs

     total energy              =     -70.16598153 Ry
     Harris-Foulkes estimate   =     -70.14548635 Ry
     estimated scf accuracy    <       0.00498218 Ry

     iteration #  4     ecut=    30.00 Ry     beta=0.70
     Davidson diagonalization with overlap
     ethr =  3.11E-05,  avg # of iterations =  1.0

     negative rho (up, down):  1.018E-02 0.000E+00

     total cpu time spent up to now is        2.6 secs

     total energy              =     -70.16392629 Ry
     Harris-Foulkes estimate   =     -70.17014777 Ry
     estimated scf accuracy    <       0.11246925 Ry

     iteration #  5     ecut=    30.00 Ry     beta=0.70
     Davidson diagonalization with overlap
     ethr =  3.11E-05,  avg # of iterations =  1.0

     negative rho (up, down):  2.797E-03 0.000E+00

     total cpu time spent up to now is        2.7 secs

     total energy              =     -70.17630991 Ry
     Harris-Foulkes estimate   =     -70.16925346 Ry
     estimated scf accuracy    <       0.00215544 Ry

     iteration #  6     ecut=    30.00 Ry     beta=0.70
     Davidson diagonalization with overlap
     ethr =  1.35E-05,  avg # of iterations =  1.0

     negative rho (up, down):  2.752E-04 0.000E+00

     total cpu time spent up to now is        2.7 secs

     total energy              =     -70.17805471 Ry
     Harris-Foulkes estimate   =     -70.17643097 Ry
     estimated scf accuracy    <       0.00022872 Ry

     iteration #  7     ecut=    30.00 Ry     beta=0.70
     Davidson diagonalization with overlap
     ethr =  1.43E-06,  avg # of iterations =  2.0

     negative rho (up, down):  1.552E-05 0.000E+00

     total cpu time spent up to now is        2.8 secs

     total energy              =     -70.17808928 Ry
     Harris-Foulkes estimate   =     -70.17807554 Ry
     estimated scf accuracy    <       0.00002514 Ry

     iteration #  8     ecut=    30.00 Ry     beta=0.70
     Davidson diagonalization with overlap
     ethr =  1.57E-07,  avg # of iterations =  2.0

     negative rho (up, down):  9.900E-07 0.000E+00

     total cpu time spent up to now is        2.9 secs

     total energy              =     -70.17809555 Ry
     Harris-Foulkes estimate   =     -70.17809194 Ry
     estimated scf accuracy    <       0.00000517 Ry

     iteration #  9     ecut=    30.00 Ry     beta=0.70
     Davidson diagonalization with overlap
     ethr =  3.23E-08,  avg # of iterations =  1.0

     total cpu time spent up to now is        3.0 secs

     total energy              =     -70.17809753 Ry
     Harris-Foulkes estimate   =     -70.17809592 Ry
     estimated scf accuracy    <       0.00000077 Ry

     iteration # 10     ecut=    30.00 Ry     beta=0.70
     Davidson diagonalization with overlap
     ethr =  4.80E-09,  avg # of iterations =  2.0

     total cpu time spent up to now is        3.1 secs

     total energy              =     -70.17809812 Ry
     Harris-Foulkes estimate   =     -70.17809782 Ry
     estimated scf accuracy    <       0.00000151 Ry

     iteration # 11     ecut=    30.00 Ry     beta=0.70
     Davidson diagonalization with overlap
     ethr =  4.80E-09,  avg # of iterations =  1.0

     total cpu time spent up to now is        3.2 secs

     total energy              =     -70.17809812 Ry
     Harris-Foulkes estimate   =     -70.17809818 Ry
     estimated scf accuracy    <       0.00000014 Ry

     iteration # 12     ecut=    30.00 Ry     beta=0.70
     Davidson diagonalization with overlap
     ethr =  8.67E-10,  avg # of iterations =  1.0

     total cpu time spent up to now is        3.3 secs

     total energy              =     -70.17809781 Ry
     Harris-Foulkes estimate   =     -70.17809812 Ry
     estimated scf accuracy    <       0.00000005 Ry

     iteration # 13     ecut=    30.00 Ry     beta=0.70
     Davidson diagonalization with overlap
     ethr =  3.16E-10,  avg # of iterations =  1.0

     total cpu time spent up to now is        3.3 secs

     End of self-consistent calculation

          k = 0.0000 0.0000 0.0000 ( 22119 PWs)   bands (ev):

   -24.2916 -23.5944 -15.3842  -8.6392  -8.1140  -7.7544  -6.9615  -6.9233
    -6.8016  -6.2532  -6.2057  -4.5595

     the Fermi energy is    -6.7726 ev

!    total energy              =     -70.17809778 Ry
     Harris-Foulkes estimate   =     -70.17809781 Ry
     estimated scf accuracy    <          2.5E-09 Ry

     convergence has been achieved in  13 iterations

     Forces acting on atoms (Ry/au):

     atom    1 type  1   force =     0.16330587    0.16729207    0.00479907
     atom    2 type  2   force =     0.01775899   -0.02318330   -0.02064651
     atom    3 type  2   force =    -0.18106486   -0.14410878    0.01584744

     Total force =     0.331301     Total SCF correction =     0.000629

     Entering Dynamics:    iteration =     2
                           time      =   0.0097 pico-seconds


     Andersen thermostat:    3 collisions

ATOMIC_POSITIONS (bohr)
C        0.223064709   0.235251604  -0.005420341
O        0.010797721   5.958121180   2.969881178
O        2.821764332   2.865293085   0.034187466


     kinetic energy (Ekin) =     0.01237620 Ry
     temperature           =   651.34812836 K 
     Ekin + Etot (const)   =   -70.16572159 Ry
     Message from routine dynamics:
     Total linear momentum <> 0

     Linear momentum :    0.0031522419    0.1976018037    0.0831958010

     Writing output data file pwscf.save

     first order wave-functions extrapolation
     Check: negative starting charge=   -0.483986
     first order charge density extrapolation
     Check: negative starting charge=   -0.480882

     negative rho (up, down):  2.625E-01 0.000E+00

     total cpu time spent up to now is        3.6 secs

     per-process dynamical memory:    34.2 Mb

     Self-consistent Calculation

     iteration #  1     ecut=    30.00 Ry     beta=0.70
     Davidson diagonalization with overlap
     ethr =  1.00E-06,  avg # of iterations =  5.0

     negative rho (up, down):  7.006E-02 0.000E+00

     total cpu time spent up to now is        3.8 secs

     total energy              =     -70.16315894 Ry
     Harris-Foulkes estimate   =     -70.35885502 Ry
     estimated scf accuracy    <       0.05155942 Ry

     iteration #  2     ecut=    30.00 Ry     beta=0.70
     Davidson diagonalization with overlap
     ethr =  3.22E-04,  avg # of iterations =  3.0

     negative rho (up, down):  6.126E-02 0.000E+00

     total cpu time spent up to now is        3.9 secs

     total energy              =     -70.16572122 Ry
     Harris-Foulkes estimate   =     -70.35407461 Ry
     estimated scf accuracy    <       1.01066370 Ry

     iteration #  3     ecut=    30.00 Ry     beta=0.70
     Davidson diagonalization with overlap
     ethr =  3.22E-04,  avg # of iterations =  2.0

     negative rho (up, down):  5.414E-02 0.000E+00

     total cpu time spent up to now is        4.0 secs

     total energy              =     -70.21988380 Ry
     Harris-Foulkes estimate   =     -70.24662365 Ry
     estimated scf accuracy    <       0.18788146 Ry

     iteration #  4     ecut=    30.00 Ry     beta=0.70
     Davidson diagonalization with overlap
     ethr =  3.22E-04,  avg # of iterations =  1.0

     negative rho (up, down):  2.208E-02 0.000E+00

     total cpu time spent up to now is        4.1 secs

     total energy              =     -70.26537285 Ry
     Harris-Foulkes estimate   =     -70.24070388 Ry
     estimated scf accuracy    <       0.01860670 Ry

     iteration #  5     ecut=    30.00 Ry     beta=0.70
     Davidson diagonalization with overlap
     ethr =  1.16E-04,  avg # of iterations =  1.0

     negative rho (up, down):  6.308E-03 0.000E+00

     total cpu time spent up to now is        4.2 secs

     total energy              =     -70.28144844 Ry
     Harris-Foulkes estimate   =     -70.26640911 Ry
     estimated scf accuracy    <       0.00100162 Ry

     iteration #  6     ecut=    30.00 Ry     beta=0.70
     Davidson diagonalization with overlap
     ethr =  6.26E-06,  avg # of iterations =  3.0

     negative rho (up, down):  1.151E-03 0.000E+00

     total cpu time spent up to now is        4.3 secs

     total energy              =     -70.28647556 Ry
     Harris-Foulkes estimate   =     -70.28167586 Ry
     estimated scf accuracy    <       0.00037190 Ry

     iteration #  7     ecut=    30.00 Ry     beta=0.70
     Davidson diagonalization with overlap
     ethr =  2.32E-06,  avg # of iterations =  2.0

     negative rho (up, down):  1.002E-04 0.000E+00

     total cpu time spent up to now is        4.4 secs

     total energy              =     -70.28677584 Ry
     Harris-Foulkes estimate   =     -70.28653151 Ry
     estimated scf accuracy    <       0.00004733 Ry

     iteration #  8     ecut=    30.00 Ry     beta=0.70
     Davidson diagonalization with overlap
     ethr =  2.96E-07,  avg # of iterations =  2.0

     negative rho (up, down):  2.150E-07 0.000E+00

     total cpu time spent up to now is        4.5 secs

     total energy              =     -70.28679752 Ry
     Harris-Foulkes estimate   =     -70.28678859 Ry
     estimated scf accuracy    <       0.00002326 Ry

     iteration #  9     ecut=    30.00 Ry     beta=0.70
     Davidson diagonalization with overlap
     ethr =  1.45E-07,  avg # of iterations =  1.0

     negative rho (up, down):  6.831E-08 0.000E+00

     total cpu time spent up to now is        4.6 secs

     total energy              =     -70.28679782 Ry
     Harris-Foulkes estimate   =     -70.28679967 Ry
     estimated scf accuracy    <       0.00000025 Ry

     iteration # 10     ecut=    30.00 Ry     beta=0.70
     Davidson diagonalization with overlap
     ethr =  1.57E-09,  avg # of iterations =  3.0

     total cpu time spent up to now is        4.7 secs

     total energy              =     -70.28680007 Ry
     Harris-Foulkes estimate   =     -70.28679796 Ry
     estimated scf accuracy    <       0.00000013 Ry

     iteration # 11     ecut=    30.00 Ry     beta=0.70
     Davidson diagonalization with overlap
     ethr =  8.10E-10,  avg # of iterations =  2.0

     total cpu time spent up to now is        4.8 secs

     total energy              =     -70.28680009 Ry
     Harris-Foulkes estimate   =     -70.28680011 Ry
     estimated scf accuracy    <       0.00000002 Ry

     iteration # 12     ecut=    30.00 Ry     beta=0.70
     Davidson diagonalization with overlap
     ethr =  1.49E-10,  avg # of iterations =  2.0

     total cpu time spent up to now is        4.8 secs

     End of self-consistent calculation

          k = 0.0000 0.0000 0.0000 ( 22119 PWs)   bands (ev):

   -24.5976 -23.6192 -15.2717  -9.0174  -8.3683  -8.0653  -6.9788  -6.9537
    -6.8472  -5.9046  -5.8608  -3.3960

     the Fermi energy is    -6.8028 ev

!    total energy              =     -70.28679982 Ry
     Harris-Foulkes estimate   =     -70.28680009 Ry
     estimated scf accuracy    <          4.5E-09 Ry

     convergence has been achieved in  12 iterations

     Forces acting on atoms (Ry/au):

     atom    1 type  1   force =     0.23131203    0.23763444    0.00509417
     atom    2 type  2   force =     0.01491582   -0.01992260   -0.01805655
     atom    3 type  2   force =    -0.24622784   -0.21771184    0.01296238

     Total force =     0.468125     Total SCF correction =     0.000288

     Entering Dynamics:    iteration =     3
                           time      =   0.0145 pico-seconds


     Andersen thermostat:    3 collisions

ATOMIC_POSITIONS (bohr)
C        0.441933857   0.436446759   0.001015830
O        0.018740198   5.961302589   2.978509431
O        2.649533200   2.711089562   0.020728062


     kinetic energy (Ekin) =     0.02279000 Ry
     temperature           =  1199.41713736 K 
     Ekin + Etot (const)   =   -70.26400982 Ry
     Message from routine dynamics:
     Total linear momentum <> 0

     Linear momentum :    0.1962788007   -0.1790199317    0.0327947079

     Writing output data file pwscf.save

     second order wave-functions extrapolation
     Check: negative starting charge=   -0.480882
     second order charge density extrapolation
     Check: negative starting charge=   -0.484468

     negative rho (up, down):  5.972E-01 0.000E+00

     total cpu time spent up to now is        5.2 secs

     per-process dynamical memory:    34.2 Mb

     Self-consistent Calculation

     iteration #  1     ecut=    30.00 Ry     beta=0.70
     Davidson diagonalization with overlap
     c_bands:  1 eigenvalues not converged
     ethr =  1.00E-06,  avg # of iterations = 20.0

     negative rho (up, down):  1.569E-01 0.000E+00

     total cpu time spent up to now is        5.5 secs

     total energy              =     -62.42513510 Ry
     Harris-Foulkes estimate   =     -71.92005349 Ry
     estimated scf accuracy    <       4.63804679 Ry

     iteration #  2     ecut=    30.00 Ry     beta=0.70
     Davidson diagonalization with overlap
     ethr =  1.00E-02,  avg # of iterations =  5.0

     negative rho (up, down):  1.149E-01 0.000E+00

     total cpu time spent up to now is        5.6 secs

     total energy              =     -70.10135150 Ry
     Harris-Foulkes estimate   =     -75.77450199 Ry
     estimated scf accuracy    <      14.44454994 Ry

     iteration #  3     ecut=    30.00 Ry     beta=0.70
     Davidson diagonalization with overlap
     ethr =  1.00E-02,  avg # of iterations =  3.0

     negative rho (up, down):  1.035E-01 0.000E+00

     total cpu time spent up to now is        5.7 secs

     total energy              =     -70.11244149 Ry
     Harris-Foulkes estimate   =     -71.45745077 Ry
     estimated scf accuracy    <       6.62141611 Ry

     iteration #  4     ecut=    30.00 Ry     beta=0.70
     Davidson diagonalization with overlap
     ethr =  1.00E-02,  avg # of iterations =  1.0

     negative rho (up, down):  7.407E-02 0.000E+00

     total cpu time spent up to now is        5.8 secs

     total energy              =     -70.53325106 Ry
     Harris-Foulkes estimate   =     -70.88680992 Ry
     estimated scf accuracy    <       1.18111611 Ry

     iteration #  5     ecut=    30.00 Ry     beta=0.70
     Davidson diagonalization with overlap
     ethr =  7.38E-03,  avg # of iterations =  1.0

     negative rho (up, down):  6.597E-02 0.000E+00

     total cpu time spent up to now is        5.8 secs

     total energy              =     -70.56268946 Ry
     Harris-Foulkes estimate   =     -70.62029824 Ry
     estimated scf accuracy    <       0.66681924 Ry

     iteration #  6     ecut=    30.00 Ry     beta=0.70
     Davidson diagonalization with overlap
     ethr =  4.17E-03,  avg # of iterations =  1.0

     negative rho (up, down):  5.004E-02 0.000E+00

     total cpu time spent up to now is        5.9 secs

     total energy              =     -70.52178100 Ry
     Harris-Foulkes estimate   =     -70.56786975 Ry
     estimated scf accuracy    <       0.36987403 Ry

     iteration #  7     ecut=    30.00 Ry     beta=0.70
     Davidson diagonalization with overlap
     ethr =  2.31E-03,  avg # of iterations =  1.0

     negative rho (up, down):  4.224E-02 0.000E+00

     total cpu time spent up to now is        6.0 secs

     total energy              =     -70.42390109 Ry
     Harris-Foulkes estimate   =     -70.54198266 Ry
     estimated scf accuracy    <       1.59650365 Ry

     iteration #  8     ecut=    30.00 Ry     beta=0.70
     Davidson diagonalization with overlap
     ethr =  2.31E-03,  avg # of iterations =  1.0

     negative rho (up, down):  3.094E-02 0.000E+00

     total cpu time spent up to now is        6.1 secs

     total energy              =     -70.45922677 Ry
     Harris-Foulkes estimate   =     -70.48112747 Ry
     estimated scf accuracy    <       0.14467909 Ry

     iteration #  9     ecut=    30.00 Ry     beta=0.70
     Davidson diagonalization with overlap
     ethr =  9.04E-04,  avg # of iterations =  1.0

     negative rho (up, down):  2.077E-02 0.000E+00

     total cpu time spent up to now is        6.2 secs

     total energy              =     -70.45111086 Ry
     Harris-Foulkes estimate   =     -70.46019703 Ry
     estimated scf accuracy    <       0.08023057 Ry

     iteration # 10     ecut=    30.00 Ry     beta=0.70
     Davidson diagonalization with overlap
     ethr =  5.01E-04,  avg # of iterations =  1.0

     negative rho (up, down):  1.613E-05 0.000E+00

     total cpu time spent up to now is        6.3 secs

     total energy              =     -70.46077564 Ry
     Harris-Foulkes estimate   =     -70.45184113 Ry
     estimated scf accuracy    <       0.03933160 Ry

     iteration # 11     ecut=    30.00 Ry     beta=0.70
     Davidson diagonalization with overlap
     ethr =  2.46E-04,  avg # of iterations =  2.0

     negative rho (up, down):  6.714E-08 0.000E+00

     total cpu time spent up to now is        6.4 secs

     total energy              =     -70.46433407 Ry
     Harris-Foulkes estimate   =     -70.46490233 Ry
     estimated scf accuracy    <       0.00690259 Ry

     iteration # 12     ecut=    30.00 Ry     beta=0.70
     Davidson diagonalization with overlap
     ethr =  4.31E-05,  avg # of iterations =  1.0

     total cpu time spent up to now is        6.4 secs

     total energy              =     -70.46464398 Ry
     Harris-Foulkes estimate   =     -70.46456579 Ry
     estimated scf accuracy    <       0.00383675 Ry

     iteration # 13     ecut=    30.00 Ry     beta=0.70
     Davidson diagonalization with overlap
     ethr =  2.40E-05,  avg # of iterations =  1.0

     total cpu time spent up to now is        6.5 secs

     total energy              =     -70.46445982 Ry
     Harris-Foulkes estimate   =     -70.46468557 Ry
     estimated scf accuracy    <       0.00446024 Ry

     iteration # 14     ecut=    30.00 Ry     beta=0.70
     Davidson diagonalization with overlap
     ethr =  2.40E-05,  avg # of iterations =  1.0

     total cpu time spent up to now is        6.6 secs

     total energy              =     -70.46438928 Ry
     Harris-Foulkes estimate   =     -70.46448336 Ry
     estimated scf accuracy    <       0.00315754 Ry

     iteration # 15     ecut=    30.00 Ry     beta=0.70
     Davidson diagonalization with overlap
     ethr =  1.97E-05,  avg # of iterations =  1.0

     total cpu time spent up to now is        6.7 secs

     total energy              =     -70.46431055 Ry
     Harris-Foulkes estimate   =     -70.46439428 Ry
     estimated scf accuracy    <       0.00285401 Ry

     iteration # 16     ecut=    30.00 Ry     beta=0.70
     Davidson diagonalization with overlap
     ethr =  1.78E-05,  avg # of iterations =  1.0

     total cpu time spent up to now is        6.8 secs

     total energy              =     -70.46323581 Ry
     Harris-Foulkes estimate   =     -70.46431664 Ry
     estimated scf accuracy    <       0.00236019 Ry

     iteration # 17     ecut=    30.00 Ry     beta=0.70
     Davidson diagonalization with overlap
     ethr =  1.48E-05,  avg # of iterations =  2.0

     total cpu time spent up to now is        6.9 secs

     total energy              =     -70.46372973 Ry
     Harris-Foulkes estimate   =     -70.46393444 Ry
     estimated scf accuracy    <       0.00066535 Ry

     iteration # 18     ecut=    30.00 Ry     beta=0.70
     Davidson diagonalization with overlap
     ethr =  4.16E-06,  avg # of iterations =  2.0

     total cpu time spent up to now is        7.0 secs

     total energy              =     -70.46382851 Ry
     Harris-Foulkes estimate   =     -70.46383068 Ry
     estimated scf accuracy    <       0.00000775 Ry

     iteration # 19     ecut=    30.00 Ry     beta=0.70
     Davidson diagonalization with overlap
     ethr =  4.84E-08,  avg # of iterations =  2.0

     total cpu time spent up to now is        7.1 secs

     total energy              =     -70.46382948 Ry
     Harris-Foulkes estimate   =     -70.46383005 Ry
     estimated scf accuracy    <       0.00000251 Ry

     iteration # 20     ecut=    30.00 Ry     beta=0.70
     Davidson diagonalization with overlap
     ethr =  1.57E-08,  avg # of iterations =  1.0

     total cpu time spent up to now is        7.1 secs

     total energy              =     -70.46382958 Ry
     Harris-Foulkes estimate   =     -70.46382973 Ry
     estimated scf accuracy    <       0.00000020 Ry

     iteration # 21     ecut=    30.00 Ry     beta=0.70
     Davidson diagonalization with overlap
     ethr =  1.26E-09,  avg # of iterations =  1.0

     total cpu time spent up to now is        7.2 secs

     total energy              =     -70.46382961 Ry
     Harris-Foulkes estimate   =     -70.46382960 Ry
     estimated scf accuracy    <       0.00000002 Ry

     iteration # 22     ecut=    30.00 Ry     beta=0.70
     Davidson diagonalization with overlap
     ethr =  1.06E-10,  avg # of iterations =  2.0

     total cpu time spent up to now is        7.3 secs

     total energy              =     -70.46382963 Ry
     Harris-Foulkes estimate   =     -70.46382962 Ry
     estimated scf accuracy    <       0.00000002 Ry

     iteration # 23     ecut=    30.00 Ry     beta=0.70
     Davidson diagonalization with overlap
     ethr =  9.99E-11,  avg # of iterations =  1.0

     total cpu time spent up to now is        7.4 secs

     End of self-consistent calculation

          k = 0.0000 0.0000 0.0000 ( 22119 PWs)   bands (ev):

   -25.3980 -23.9162 -14.9090  -9.2800  -8.9070  -8.6866  -7.2517  -7.2397
    -7.1582  -4.9880  -4.9655  -0.9445

     the Fermi energy is    -7.0930 ev

!    total energy              =     -70.46382962 Ry
     Harris-Foulkes estimate   =     -70.46382963 Ry
     estimated scf accuracy    <          8.0E-10 Ry

     convergence has been achieved in  23 iterations

     Forces acting on atoms (Ry/au):

     atom    1 type  1   force =     0.23612869    0.24601380    0.00345215
     atom    2 type  2   force =     0.00647139   -0.00964710   -0.00889240
     atom    3 type  2   force =    -0.24260008   -0.23636670    0.00544026

     Total force =     0.480894     Total SCF correction =     0.000066

     Entering Dynamics:    iteration =     4
                           time      =   0.0194 pico-seconds


     Andersen thermostat:    3 collisions

ATOMIC_POSITIONS (bohr)
C        0.648670091   0.649862177   0.007289374
O       -0.002340599   5.927891898   2.969230461
O        2.515432612   2.584305306   0.025297953


     kinetic energy (Ekin) =     0.01591976 Ry
     temperature           =   837.84251504 K 
     Ekin + Etot (const)   =   -70.44790986 Ry
     Message from routine dynamics:
     Total linear momentum <> 0

     Linear momentum :    0.2268589954    0.0897366017   -0.1818425028

     Writing output data file pwscf.save

     second order wave-functions extrapolation
     Check: negative starting charge=   -0.484468
     second order charge density extrapolation
     Check: negative starting charge=   -0.484000

     negative rho (up, down):  5.707E-01 0.000E+00

     total cpu time spent up to now is        7.7 secs

     per-process dynamical memory:    34.2 Mb

     Self-consistent Calculation

     iteration #  1     ecut=    30.00 Ry     beta=0.70
     Davidson diagonalization with overlap
     ethr =  1.00E-06,  avg # of iterations = 12.0

     negative rho (up, down):  1.531E-01 0.000E+00

     total cpu time spent up to now is        7.9 secs

     total energy              =     -70.29886201 Ry
     Harris-Foulkes estimate   =     -71.51376215 Ry
     estimated scf accuracy    <       0.06313836 Ry

     iteration #  2     ecut=    30.00 Ry     beta=0.70
     Davidson diagonalization with overlap
     ethr =  3.95E-04,  avg # of iterations =  9.0

     negative rho (up, down):  9.792E-02 0.000E+00

     total cpu time spent up to now is        8.1 secs

     total energy              =     -70.57655691 Ry
     Harris-Foulkes estimate   =     -70.59020217 Ry
     estimated scf accuracy    <       0.06991450 Ry

     iteration #  3     ecut=    30.00 Ry     beta=0.70
     Davidson diagonalization with overlap
     ethr =  3.95E-04,  avg # of iterations =  1.0

     negative rho (up, down):  6.089E-02 0.000E+00

     total cpu time spent up to now is        8.1 secs

     total energy              =     -70.60136450 Ry
     Harris-Foulkes estimate   =     -70.58775438 Ry
     estimated scf accuracy    <       0.02093260 Ry

     iteration #  4     ecut=    30.00 Ry     beta=0.70
     Davidson diagonalization with overlap
     ethr =  1.31E-04,  avg # of iterations =  3.0

     negative rho (up, down):  2.744E-02 0.000E+00

     total cpu time spent up to now is        8.2 secs

     total energy              =     -70.63111925 Ry
     Harris-Foulkes estimate   =     -70.60612763 Ry
     estimated scf accuracy    <       0.00783536 Ry

     iteration #  5     ecut=    30.00 Ry     beta=0.70
     Davidson diagonalization with overlap
     ethr =  4.90E-05,  avg # of iterations =  3.0

     negative rho (up, down):  1.044E-02 0.000E+00

     total cpu time spent up to now is        8.3 secs

     total energy              =     -70.64799431 Ry
     Harris-Foulkes estimate   =     -70.63312926 Ry
     estimated scf accuracy    <       0.00675095 Ry

     iteration #  6     ecut=    30.00 Ry     beta=0.70
     Davidson diagonalization with overlap
     ethr =  4.22E-05,  avg # of iterations =  3.0

     negative rho (up, down):  6.807E-04 0.000E+00

     total cpu time spent up to now is        8.4 secs

     total energy              =     -70.65760484 Ry
     Harris-Foulkes estimate   =     -70.64874445 Ry
     estimated scf accuracy    <       0.00029011 Ry

     iteration #  7     ecut=    30.00 Ry     beta=0.70
     Davidson diagonalization with overlap
     ethr =  1.81E-06,  avg # of iterations =  8.0

     negative rho (up, down):  2.851E-05 0.000E+00

     total cpu time spent up to now is        8.5 secs

     total energy              =     -70.65772233 Ry
     Harris-Foulkes estimate   =     -70.65768982 Ry
     estimated scf accuracy    <       0.00014624 Ry

     iteration #  8     ecut=    30.00 Ry     beta=0.70
     Davidson diagonalization with overlap
     ethr =  9.14E-07,  avg # of iterations =  4.0

     total cpu time spent up to now is        8.6 secs

     total energy              =     -70.65773498 Ry
     Harris-Foulkes estimate   =     -70.65773614 Ry
     estimated scf accuracy    <       0.00000187 Ry

     iteration #  9     ecut=    30.00 Ry     beta=0.70
     Davidson diagonalization with overlap
     ethr =  1.17E-08,  avg # of iterations =  3.0

     negative rho (up, down):  1.430E-08 0.000E+00

     total cpu time spent up to now is        8.7 secs

     total energy              =     -70.65773526 Ry
     Harris-Foulkes estimate   =     -70.65773563 Ry
     estimated scf accuracy    <       0.00000094 Ry

     iteration # 10     ecut=    30.00 Ry     beta=0.70
     Davidson diagonalization with overlap
     ethr =  5.88E-09,  avg # of iterations =  1.0

     total cpu time spent up to now is        8.8 secs

     total energy              =     -70.65773359 Ry
     Harris-Foulkes estimate   =     -70.65773539 Ry
     estimated scf accuracy    <       0.00000022 Ry

     iteration # 11     ecut=    30.00 Ry     beta=0.70
     Davidson diagonalization with overlap
     ethr =  1.38E-09,  avg # of iterations =  2.0

     total cpu time spent up to now is        8.9 secs

     total energy              =     -70.65773316 Ry
     Harris-Foulkes estimate   =     -70.65773364 Ry
     estimated scf accuracy    <       0.00000002 Ry

     iteration # 12     ecut=    30.00 Ry     beta=0.70
     Davidson diagonalization with overlap
     ethr =  1.37E-10,  avg # of iterations =  2.0

     total cpu time spent up to now is        9.0 secs

     End of self-consistent calculation

          k = 0.0000 0.0000 0.0000 ( 22119 PWs)   bands (ev):

   -27.0262 -24.3426 -14.6116  -9.7801  -9.6197  -9.1093  -7.6500  -7.6438
    -7.5817  -3.6094  -3.5990  -0.2321

     the Fermi energy is    -7.5019 ev

!    total energy              =     -70.65773281 Ry
     Harris-Foulkes estimate   =     -70.65773316 Ry
     estimated scf accuracy    <          3.8E-09 Ry

     convergence has been achieved in  12 iterations

     Forces acting on atoms (Ry/au):

     atom    1 type  1   force =     0.30708743    0.31820771    0.00351631
     atom    2 type  2   force =     0.00212360   -0.00365424   -0.00377597
     atom    3 type  2   force =    -0.30921103   -0.31455347    0.00025966

     Total force =     0.624627     Total SCF correction =     0.000570

     Entering Dynamics:    iteration =     5
                           time      =   0.0242 pico-seconds


     Andersen thermostat:    3 collisions

ATOMIC_POSITIONS (bohr)
C        0.922412953   0.956834920   0.041969014
O       -0.034108987   5.931759056   2.948472114
O        2.341722764   2.350016732   0.020024895


     kinetic energy (Ekin) =     0.04083178 Ry
     temperature           =  2148.94030014 K 
     Ekin + Etot (const)   =   -70.61690102 Ry
     Message from routine dynamics:
     Total linear momentum <> 0

     Linear momentum :   -0.0432122868    0.1155668449   -0.0696749475

     Writing output data file pwscf.save

     second order wave-functions extrapolation
     Check: negative starting charge=   -0.484000
     second order charge density extrapolation
     Check: negative starting charge=   -0.490656

     negative rho (up, down):  7.744E-01 0.000E+00

     total cpu time spent up to now is        9.3 secs

     per-process dynamical memory:    34.2 Mb

     Self-consistent Calculation

     iteration #  1     ecut=    30.00 Ry     beta=0.70
     Davidson diagonalization with overlap
     ethr =  1.00E-06,  avg # of iterations = 18.0

     negative rho (up, down):  2.040E-01 0.000E+00

     total cpu time spent up to now is        9.6 secs

     total energy              =     -45.50211698 Ry
     Harris-Foulkes estimate   =     -85.51981849 Ry
     estimated scf accuracy    <       7.67512292 Ry

     iteration #  2     ecut=    30.00 Ry     beta=0.70
     Davidson diagonalization with overlap
     ethr =  1.00E-02,  avg # of iterations =  6.0

     negative rho (up, down):  1.481E-01 0.000E+00

     total cpu time spent up to now is        9.7 secs

     total energy              =     -69.39521820 Ry
     Harris-Foulkes estimate   =     -78.74176408 Ry
     estimated scf accuracy    <      23.85115679 Ry

     iteration #  3     ecut=    30.00 Ry     beta=0.70
     Davidson diagonalization with overlap
     ethr =  1.00E-02,  avg # of iterations =  3.0

     negative rho (up, down):  1.252E-01 0.000E+00

     total cpu time spent up to now is        9.8 secs

     total energy              =     -70.21390227 Ry
     Harris-Foulkes estimate   =     -71.54924696 Ry
     estimated scf accuracy    <       5.59195706 Ry

     iteration #  4     ecut=    30.00 Ry     beta=0.70
     Davidson diagonalization with overlap
     ethr =  1.00E-02,  avg # of iterations =  2.0

     negative rho (up, down):  9.083E-02 0.000E+00

     total cpu time spent up to now is        9.9 secs

     total energy              =     -70.71636172 Ry
     Harris-Foulkes estimate   =     -71.18669834 Ry
     estimated scf accuracy    <       1.69493318 Ry

     iteration #  5     ecut=    30.00 Ry     beta=0.70
     Davidson diagonalization with overlap
     ethr =  1.00E-02,  avg # of iterations =  1.0

     negative rho (up, down):  7.497E-02 0.000E+00

     total cpu time spent up to now is       10.0 secs

     total energy              =     -70.68200721 Ry
     Harris-Foulkes estimate   =     -70.77214340 Ry
     estimated scf accuracy    <       0.68183601 Ry

     iteration #  6     ecut=    30.00 Ry     beta=0.70
     Davidson diagonalization with overlap
     ethr =  4.26E-03,  avg # of iterations =  1.0

     negative rho (up, down):  4.828E-02 0.000E+00

     total cpu time spent up to now is       10.1 secs

     total energy              =     -70.61965016 Ry
     Harris-Foulkes estimate   =     -70.69328957 Ry
     estimated scf accuracy    <       0.48225497 Ry

     iteration #  7     ecut=    30.00 Ry     beta=0.70
     Davidson diagonalization with overlap
     ethr =  3.01E-03,  avg # of iterations =  1.0

     negative rho (up, down):  2.657E-02 0.000E+00

     total cpu time spent up to now is       10.2 secs

     total energy              =     -70.43887559 Ry
     Harris-Foulkes estimate   =     -70.71750470 Ry
     estimated scf accuracy    <       3.61600169 Ry

     iteration #  8     ecut=    30.00 Ry     beta=0.70
     Davidson diagonalization with overlap
     ethr =  3.01E-03,  avg # of iterations =  1.0

     negative rho (up, down):  2.400E-02 0.000E+00

     total cpu time spent up to now is       10.3 secs

     total energy              =     -70.58936193 Ry
     Harris-Foulkes estimate   =     -70.58996730 Ry
     estimated scf accuracy    <       0.08562880 Ry

     iteration #  9     ecut=    30.00 Ry     beta=0.70
     Davidson diagonalization with overlap
     ethr =  5.35E-04,  avg # of iterations =  3.0

     negative rho (up, down):  1.085E-02 0.000E+00

     total cpu time spent up to now is       10.4 secs

     total energy              =     -70.59583720 Ry
     Harris-Foulkes estimate   =     -70.58974991 Ry
     estimated scf accuracy    <       0.07070339 Ry

     iteration # 10     ecut=    30.00 Ry     beta=0.70
     Davidson diagonalization with overlap
     ethr =  4.42E-04,  avg # of iterations =  1.0

     total cpu time spent up to now is       10.4 secs

     total energy              =     -70.60547546 Ry
     Harris-Foulkes estimate   =     -70.59756107 Ry
     estimated scf accuracy    <       0.02998280 Ry

     iteration # 11     ecut=    30.00 Ry     beta=0.70
     Davidson diagonalization with overlap
     ethr =  1.87E-04,  avg # of iterations =  4.0

     total cpu time spent up to now is       10.5 secs

     total energy              =     -70.60809922 Ry
     Harris-Foulkes estimate   =     -70.60822357 Ry
     estimated scf accuracy    <       0.00366183 Ry

     iteration # 12     ecut=    30.00 Ry     beta=0.70
     Davidson diagonalization with overlap
     ethr =  2.29E-05,  avg # of iterations =  2.0

     total cpu time spent up to now is       10.6 secs

     total energy              =     -70.60789391 Ry
     Harris-Foulkes estimate   =     -70.60819503 Ry
     estimated scf accuracy    <       0.00308095 Ry

     iteration # 13     ecut=    30.00 Ry     beta=0.70
     Davidson diagonalization with overlap
     ethr =  1.93E-05,  avg # of iterations =  1.0

     total cpu time spent up to now is       10.7 secs

     total energy              =     -70.60788356 Ry
     Harris-Foulkes estimate   =     -70.60793224 Ry
     estimated scf accuracy    <       0.00224878 Ry

     iteration # 14     ecut=    30.00 Ry     beta=0.70
     Davidson diagonalization with overlap
     ethr =  1.41E-05,  avg # of iterations =  1.0

     total cpu time spent up to now is       10.8 secs

     total energy              =     -70.60779464 Ry
     Harris-Foulkes estimate   =     -70.60788953 Ry
     estimated scf accuracy    <       0.00207589 Ry

     iteration # 15     ecut=    30.00 Ry     beta=0.70
     Davidson diagonalization with overlap
     ethr =  1.30E-05,  avg # of iterations =  1.0

     total cpu time spent up to now is       10.9 secs

     total energy              =     -70.60770505 Ry
     Harris-Foulkes estimate   =     -70.60779743 Ry
     estimated scf accuracy    <       0.00178770 Ry

     iteration # 16     ecut=    30.00 Ry     beta=0.70
     Davidson diagonalization with overlap
     ethr =  1.12E-05,  avg # of iterations =  1.0

     total cpu time spent up to now is       11.0 secs

     total energy              =     -70.60691765 Ry
     Harris-Foulkes estimate   =     -70.60770802 Ry
     estimated scf accuracy    <       0.00149668 Ry

     iteration # 17     ecut=    30.00 Ry     beta=0.70
     Davidson diagonalization with overlap
     ethr =  9.35E-06,  avg # of iterations =  2.0

     total cpu time spent up to now is       11.1 secs

     total energy              =     -70.60713657 Ry
     Harris-Foulkes estimate   =     -70.60717244 Ry
     estimated scf accuracy    <       0.00012711 Ry

     iteration # 18     ecut=    30.00 Ry     beta=0.70
     Davidson diagonalization with overlap
     ethr =  7.94E-07,  avg # of iterations =  3.0

     total cpu time spent up to now is       11.2 secs

     total energy              =     -70.60711954 Ry
     Harris-Foulkes estimate   =     -70.60714175 Ry
     estimated scf accuracy    <       0.00004389 Ry

     iteration # 19     ecut=    30.00 Ry     beta=0.70
     Davidson diagonalization with overlap
     ethr =  2.74E-07,  avg # of iterations =  2.0

     total cpu time spent up to now is       11.3 secs

     total energy              =     -70.60712253 Ry
     Harris-Foulkes estimate   =     -70.60712419 Ry
     estimated scf accuracy    <       0.00000393 Ry

     iteration # 20     ecut=    30.00 Ry     beta=0.70
     Davidson diagonalization with overlap
     ethr =  2.46E-08,  avg # of iterations =  2.0

     total cpu time spent up to now is       11.3 secs

     total energy              =     -70.60712303 Ry
     Harris-Foulkes estimate   =     -70.60712326 Ry
     estimated scf accuracy    <       0.00000130 Ry

     iteration # 21     ecut=    30.00 Ry     beta=0.70
     Davidson diagonalization with overlap
     ethr =  8.10E-09,  avg # of iterations =  1.0

     total cpu time spent up to now is       11.4 secs

     total energy              =     -70.60712303 Ry
     Harris-Foulkes estimate   =     -70.60712325 Ry
     estimated scf accuracy    <       0.00000069 Ry

     iteration # 22     ecut=    30.00 Ry     beta=0.70
     Davidson diagonalization with overlap
     ethr =  4.29E-09,  avg # of iterations =  1.0

     total cpu time spent up to now is       11.5 secs

     total energy              =     -70.60712306 Ry
     Harris-Foulkes estimate   =     -70.60712311 Ry
     estimated scf accuracy    <       0.00000010 Ry

     iteration # 23     ecut=    30.00 Ry     beta=0.70
     Davidson diagonalization with overlap
     ethr =  6.51E-10,  avg # of iterations =  1.0

     total cpu time spent up to now is       11.6 secs

     End of self-consistent calculation

          k = 0.0000 0.0000 0.0000 ( 22119 PWs)   bands (ev):

   -31.2185 -24.6824 -14.0807 -12.2465 -12.2035  -8.5044  -7.9819  -7.9805
    -7.9242  -0.5460  -0.5316  -0.2117

     the Fermi energy is    -7.8462 ev

!    total energy              =     -70.60712306 Ry
     Harris-Foulkes estimate   =     -70.60712307 Ry
     estimated scf accuracy    <          5.1E-09 Ry

     convergence has been achieved in  23 iterations

     Forces acting on atoms (Ry/au):

     atom    1 type  1   force =    -0.76738880   -0.74967866    0.01319552
     atom    2 type  2   force =    -0.00281748    0.00199950    0.00169446
     atom    3 type  2   force =     0.77020628    0.74767917   -0.01488999

     Total force =     1.517747     Total SCF correction =     0.000061

     Entering Dynamics:    iteration =     6
                           time      =   0.0290 pico-seconds


     Andersen thermostat:    3 collisions

ATOMIC_POSITIONS (bohr)
C        0.226914015   0.234603007   0.041703050
O       -0.057389466   5.932584346   2.976646242
O        2.887062133   2.891316772  -0.007949595


     kinetic energy (Ekin) =     0.26249333 Ry
     temperature           = 13814.78961346 K 
     Ekin + Etot (const)   =   -70.34462973 Ry
     Message from routine dynamics:
     Total linear momentum <> 0

     Linear momentum :   -0.0728710399   -0.1815155162   -0.0331075270

     Writing output data file pwscf.save

     second order wave-functions extrapolation
     Check: negative starting charge=   -0.490656
     second order charge density extrapolation
     Check: negative starting charge=   -0.484807

     negative rho (up, down):  6.876E-01 0.000E+00

     total cpu time spent up to now is       11.9 secs

     per-process dynamical memory:    34.2 Mb

     Self-consistent Calculation

     iteration #  1     ecut=    30.00 Ry     beta=0.70
     Davidson diagonalization with overlap
     ethr =  1.00E-06,  avg # of iterations = 13.0

     negative rho (up, down):  1.755E-01 0.000E+00

     total cpu time spent up to now is       12.1 secs

     total energy              =     -33.86078783 Ry
     Harris-Foulkes estimate   =    -206.26851035 Ry
     estimated scf accuracy    <       6.99512827 Ry

     iteration #  2     ecut=    30.00 Ry     beta=0.70
     Davidson diagonalization with overlap
     ethr =  1.00E-02,  avg # of iterations = 12.0

     negative rho (up, down):  5.329E-02 0.000E+00

     total cpu time spent up to now is       12.2 secs

     total energy              =     -68.24570918 Ry
     Harris-Foulkes estimate   =     -80.20434129 Ry
     estimated scf accuracy    <      34.14718385 Ry

     iteration #  3     ecut=    30.00 Ry     beta=0.70
     Davidson diagonalization with overlap
     ethr =  1.00E-02,  avg # of iterations =  6.0

     negative rho (up, down):  7.930E-02 0.000E+00

     total cpu time spent up to now is       12.4 secs

     total energy              =     -70.04135028 Ry
     Harris-Foulkes estimate   =     -71.38770924 Ry
     estimated scf accuracy    <       5.77092588 Ry

     iteration #  4     ecut=    30.00 Ry     beta=0.70
     Davidson diagonalization with overlap
     ethr =  1.00E-02,  avg # of iterations =  2.0

     negative rho (up, down):  5.097E-02 0.000E+00

     total cpu time spent up to now is       12.4 secs

     total energy              =     -70.24843893 Ry
     Harris-Foulkes estimate   =     -70.47791122 Ry
     estimated scf accuracy    <       1.01255860 Ry

     iteration #  5     ecut=    30.00 Ry     beta=0.70
     Davidson diagonalization with overlap
     ethr =  6.33E-03,  avg # of iterations =  1.0

     negative rho (up, down):  5.300E-02 0.000E+00

     total cpu time spent up to now is       12.5 secs

     total energy              =     -70.24750337 Ry
     Harris-Foulkes estimate   =     -70.46289932 Ry
     estimated scf accuracy    <       3.21371320 Ry

     iteration #  6     ecut=    30.00 Ry     beta=0.70
     Davidson diagonalization with overlap
     ethr =  6.33E-03,  avg # of iterations =  1.0

     negative rho (up, down):  4.039E-02 0.000E+00

     total cpu time spent up to now is       12.6 secs

     total energy              =     -70.25652672 Ry
     Harris-Foulkes estimate   =     -70.30573326 Ry
     estimated scf accuracy    <       0.59551240 Ry

     iteration #  7     ecut=    30.00 Ry     beta=0.70
     Davidson diagonalization with overlap
     ethr =  3.72E-03,  avg # of iterations =  1.0

     negative rho (up, down):  3.189E-02 0.000E+00

     total cpu time spent up to now is       12.7 secs

     total energy              =     -70.20997561 Ry
     Harris-Foulkes estimate   =     -70.26054853 Ry
     estimated scf accuracy    <       0.44652670 Ry

     iteration #  8     ecut=    30.00 Ry     beta=0.70
     Davidson diagonalization with overlap
     ethr =  2.79E-03,  avg # of iterations =  1.0

     negative rho (up, down):  3.155E-02 0.000E+00

     total cpu time spent up to now is       12.8 secs

     total energy              =     -70.23201583 Ry
     Harris-Foulkes estimate   =     -70.23194393 Ry
     estimated scf accuracy    <       0.05540503 Ry

     iteration #  9     ecut=    30.00 Ry     beta=0.70
     Davidson diagonalization with overlap
     ethr =  3.46E-04,  avg # of iterations =  5.0

     negative rho (up, down):  3.158E-02 0.000E+00

     total cpu time spent up to now is       12.9 secs

     total energy              =     -70.23243560 Ry
     Harris-Foulkes estimate   =     -70.23248055 Ry
     estimated scf accuracy    <       0.05553575 Ry

     iteration # 10     ecut=    30.00 Ry     beta=0.70
     Davidson diagonalization with overlap
     ethr =  3.46E-04,  avg # of iterations =  1.0

     negative rho (up, down):  7.931E-02 0.000E+00

     total cpu time spent up to now is       13.0 secs

     total energy              =     -70.26325720 Ry
     Harris-Foulkes estimate   =     -70.23247283 Ry
     estimated scf accuracy    <       0.05415696 Ry

     iteration # 11     ecut=    30.00 Ry     beta=0.70
     Davidson diagonalization with overlap
     ethr =  3.38E-04,  avg # of iterations =  2.0

     negative rho (up, down):  2.041E-02 0.000E+00

     total cpu time spent up to now is       13.1 secs

     total energy              =     -70.23656999 Ry
     Harris-Foulkes estimate   =     -70.32350479 Ry
     estimated scf accuracy    <       2.73777576 Ry

     iteration # 12     ecut=    30.00 Ry     beta=0.70
     Davidson diagonalization with overlap
     ethr =  3.38E-04,  avg # of iterations =  2.0

     negative rho (up, down):  1.342E-02 0.000E+00

     total cpu time spent up to now is       13.2 secs

     total energy              =     -70.27457705 Ry
     Harris-Foulkes estimate   =     -70.28550238 Ry
     estimated scf accuracy    <       0.60846446 Ry

     iteration # 13     ecut=    30.00 Ry     beta=0.70
     Davidson diagonalization with overlap
     ethr =  3.38E-04,  avg # of iterations =  1.0

     negative rho (up, down):  6.800E-03 0.000E+00

     total cpu time spent up to now is       13.2 secs

     total energy              =     -70.27036943 Ry
     Harris-Foulkes estimate   =     -70.27956988 Ry
     estimated scf accuracy    <       0.34643490 Ry

     iteration # 14     ecut=    30.00 Ry     beta=0.70
     Davidson diagonalization with overlap
     ethr =  3.38E-04,  avg # of iterations =  1.0

     negative rho (up, down):  4.441E-03 0.000E+00

     total cpu time spent up to now is       13.3 secs

     total energy              =     -70.27027394 Ry
     Harris-Foulkes estimate   =     -70.27239307 Ry
     estimated scf accuracy    <       0.14855838 Ry

     iteration # 15     ecut=    30.00 Ry     beta=0.70
     Davidson diagonalization with overlap
     ethr =  3.38E-04,  avg # of iterations =  1.0

     negative rho (up, down):  4.254E-03 0.000E+00

     total cpu time spent up to now is       13.4 secs

     total energy              =     -70.27071396 Ry
     Harris-Foulkes estimate   =     -70.27052281 Ry
     estimated scf accuracy    <       0.10527578 Ry

     iteration # 16     ecut=    30.00 Ry     beta=0.70
     Davidson diagonalization with overlap
     ethr =  3.38E-04,  avg # of iterations =  1.0

     negative rho (up, down):  4.540E-05 0.000E+00

     total cpu time spent up to now is       13.5 secs

     total energy              =     -70.25414115 Ry
     Harris-Foulkes estimate   =     -70.27072098 Ry
     estimated scf accuracy    <       0.10845420 Ry

     iteration # 17     ecut=    30.00 Ry     beta=0.70
     Davidson diagonalization with overlap
     ethr =  3.38E-04,  avg # of iterations =  1.0

     negative rho (up, down):  2.048E-05 0.000E+00

     total cpu time spent up to now is       13.6 secs

     total energy              =     -70.26451036 Ry
     Harris-Foulkes estimate   =     -70.26687924 Ry
     estimated scf accuracy    <       0.02177295 Ry

     iteration # 18     ecut=    30.00 Ry     beta=0.70
     Davidson diagonalization with overlap
     ethr =  1.36E-04,  avg # of iterations =  1.0

     negative rho (up, down):  1.567E-05 0.000E+00

     total cpu time spent up to now is       13.7 secs

     total energy              =     -70.26489078 Ry
     Harris-Foulkes estimate   =     -70.26521584 Ry
     estimated scf accuracy    <       0.00273473 Ry

     iteration # 19     ecut=    30.00 Ry     beta=0.70
     Davidson diagonalization with overlap
     ethr =  1.71E-05,  avg # of iterations =  1.0

     negative rho (up, down):  2.094E-06 0.000E+00

     total cpu time spent up to now is       13.8 secs

     total energy              =     -70.26501384 Ry
     Harris-Foulkes estimate   =     -70.26503444 Ry
     estimated scf accuracy    <       0.00017183 Ry

     iteration # 20     ecut=    30.00 Ry     beta=0.70
     Davidson diagonalization with overlap
     ethr =  1.07E-06,  avg # of iterations =  1.0

     negative rho (up, down):  2.904E-07 0.000E+00

     total cpu time spent up to now is       13.9 secs

     total energy              =     -70.26501411 Ry
     Harris-Foulkes estimate   =     -70.26502411 Ry
     estimated scf accuracy    <       0.00006505 Ry

     iteration # 21     ecut=    30.00 Ry     beta=0.70
     Davidson diagonalization with overlap
     ethr =  4.07E-07,  avg # of iterations =  1.0

     total cpu time spent up to now is       13.9 secs

     total energy              =     -70.26501577 Ry
     Harris-Foulkes estimate   =     -70.26501936 Ry
     estimated scf accuracy    <       0.00002929 Ry

     iteration # 22     ecut=    30.00 Ry     beta=0.70
     Davidson diagonalization with overlap
     ethr =  1.83E-07,  avg # of iterations =  1.0

     total cpu time spent up to now is       14.0 secs

     total energy              =     -70.26501725 Ry
     Harris-Foulkes estimate   =     -70.26501746 Ry
     estimated scf accuracy    <       0.00000117 Ry

     iteration # 23     ecut=    30.00 Ry     beta=0.70
     Davidson diagonalization with overlap
     ethr =  7.33E-09,  avg # of iterations =  1.0

     total cpu time spent up to now is       14.2 secs

     total energy              =     -70.26501743 Ry
     Harris-Foulkes estimate   =     -70.26501733 Ry
     estimated scf accuracy    <       0.00000021 Ry

     iteration # 24     ecut=    30.00 Ry     beta=0.70
     Davidson diagonalization with overlap
     ethr =  1.32E-09,  avg # of iterations =  2.0

     total cpu time spent up to now is       14.3 secs

     total energy              =     -70.26501753 Ry
     Harris-Foulkes estimate   =     -70.26501748 Ry
     estimated scf accuracy    <       0.00000013 Ry

     iteration # 25     ecut=    30.00 Ry     beta=0.70
     Davidson diagonalization with overlap
     ethr =  8.39E-10,  avg # of iterations =  1.0

     total cpu time spent up to now is       14.3 secs

     End of self-consistent calculation

          k = 0.0000 0.0000 0.0000 ( 22119 PWs)   bands (ev):

   -24.5246 -23.6247 -15.3028  -8.9503  -8.2933  -8.0025  -6.9902  -6.9621
    -6.8567  -5.9822  -5.9396  -3.6334

     the Fermi energy is    -6.8125 ev

!    total energy              =     -70.26501751 Ry
     Harris-Foulkes estimate   =     -70.26501754 Ry
     estimated scf accuracy    <          5.0E-09 Ry

     convergence has been achieved in  25 iterations

     Forces acting on atoms (Ry/au):

     atom    1 type  1   force =     0.22686179    0.23087512   -0.00147755
     atom    2 type  2   force =     0.01142768   -0.01627160   -0.01477844
     atom    3 type  2   force =    -0.23828946   -0.21460353    0.01625599

     Total force =     0.456603     Total SCF correction =     0.000119

     Entering Dynamics:    iteration =     7
                           time      =   0.0339 pico-seconds


     Andersen thermostat:    3 collisions

ATOMIC_POSITIONS (bohr)
C        0.428725275   0.452405125   0.054018972
O       -0.054691474   5.911975489   2.973997553
O        2.732879565   2.748437914  -0.014545544


     kinetic energy (Ekin) =     0.02028941 Ry
     temperature           =  1067.81357396 K 
     Ekin + Etot (const)   =   -70.24472810 Ry
     Message from routine dynamics:
     Total linear momentum <> 0

     Linear momentum :    0.0483585777   -0.0417874454    0.2766236377

     Writing output data file pwscf.save

     second order wave-functions extrapolation
     Message from extrapolate_wfcs: 
     the matrix <psi(t-dt)|psi(t)> has  1 small (< 0.1) eigenvalues
     Check: negative starting charge=   -0.484807
     second order charge density extrapolation
     Check: negative starting charge=   -0.484718

     negative rho (up, down):  3.764E-01 0.000E+00

     total cpu time spent up to now is       14.6 secs

     per-process dynamical memory:    34.2 Mb

     Self-consistent Calculation

     iteration #  1     ecut=    30.00 Ry     beta=0.70
     Davidson diagonalization with overlap
     ethr =  1.00E-06,  avg # of iterations = 17.0

     negative rho (up, down):  1.012E-01 0.000E+00

     total cpu time spent up to now is       14.8 secs

     total energy              =     -70.28613061 Ry
     Harris-Foulkes estimate   =     -70.61242614 Ry
     estimated scf accuracy    <       0.12951771 Ry

     iteration #  2     ecut=    30.00 Ry     beta=0.70
     Davidson diagonalization with overlap
     ethr =  8.09E-04,  avg # of iterations =  3.0

     negative rho (up, down):  9.558E-02 0.000E+00

     total cpu time spent up to now is       14.9 secs

     total energy              =     -69.55385371 Ry
     Harris-Foulkes estimate   =     -70.69224001 Ry
     estimated scf accuracy    <      13.31074740 Ry

     iteration #  3     ecut=    30.00 Ry     beta=0.70
     Davidson diagonalization with overlap
     ethr =  8.09E-04,  avg # of iterations =  6.0

     negative rho (up, down):  7.934E-02 0.000E+00

     total cpu time spent up to now is       15.0 secs

     total energy              =     -70.32190502 Ry
     Harris-Foulkes estimate   =     -70.40692504 Ry
     estimated scf accuracy    <       0.39423027 Ry

     iteration #  4     ecut=    30.00 Ry     beta=0.70
     Davidson diagonalization with overlap
     ethr =  8.09E-04,  avg # of iterations =  3.0

     negative rho (up, down):  3.230E-02 0.000E+00

     total cpu time spent up to now is       15.1 secs

     total energy              =     -70.39599378 Ry
     Harris-Foulkes estimate   =     -70.37980427 Ry
     estimated scf accuracy    <       0.11189635 Ry

     iteration #  5     ecut=    30.00 Ry     beta=0.70
     Davidson diagonalization with overlap
     ethr =  6.99E-04,  avg # of iterations =  1.0

     negative rho (up, down):  1.171E-02 0.000E+00

     total cpu time spent up to now is       15.2 secs

     total energy              =     -70.42564349 Ry
     Harris-Foulkes estimate   =     -70.40811171 Ry
     estimated scf accuracy    <       0.02193137 Ry

     iteration #  6     ecut=    30.00 Ry     beta=0.70
     Davidson diagonalization with overlap
     ethr =  1.37E-04,  avg # of iterations =  3.0

     negative rho (up, down):  1.646E-03 0.000E+00

     total cpu time spent up to now is       15.3 secs

     total energy              =     -70.43567477 Ry
     Harris-Foulkes estimate   =     -70.42663432 Ry
     estimated scf accuracy    <       0.01009249 Ry

     iteration #  7     ecut=    30.00 Ry     beta=0.70
     Davidson diagonalization with overlap
     ethr =  6.31E-05,  avg # of iterations = 10.0

     negative rho (up, down):  1.023E-04 0.000E+00

     total cpu time spent up to now is       15.4 secs

     total energy              =     -70.43597898 Ry
     Harris-Foulkes estimate   =     -70.43586219 Ry
     estimated scf accuracy    <       0.00660708 Ry

     iteration #  8     ecut=    30.00 Ry     beta=0.70
     Davidson diagonalization with overlap
     ethr =  4.13E-05,  avg # of iterations =  1.0

     negative rho (up, down):  2.516E-07 0.000E+00

     total cpu time spent up to now is       15.5 secs

     total energy              =     -70.43575915 Ry
     Harris-Foulkes estimate   =     -70.43606461 Ry
     estimated scf accuracy    <       0.00382812 Ry

     iteration #  9     ecut=    30.00 Ry     beta=0.70
     Davidson diagonalization with overlap
     ethr =  2.39E-05,  avg # of iterations =  1.0

     negative rho (up, down):  2.296E-07 0.000E+00

     total cpu time spent up to now is       15.6 secs

     total energy              =     -70.43543013 Ry
     Harris-Foulkes estimate   =     -70.43579977 Ry
     estimated scf accuracy    <       0.00212082 Ry

     iteration # 10     ecut=    30.00 Ry     beta=0.70
     Davidson diagonalization with overlap
     ethr =  1.33E-05,  avg # of iterations =  1.0

     negative rho (up, down):  2.293E-08 0.000E+00

     total cpu time spent up to now is       15.7 secs

     total energy              =     -70.43545211 Ry
     Harris-Foulkes estimate   =     -70.43550793 Ry
     estimated scf accuracy    <       0.00050546 Ry

     iteration # 11     ecut=    30.00 Ry     beta=0.70
     Davidson diagonalization with overlap
     ethr =  3.16E-06,  avg # of iterations =  3.0

     total cpu time spent up to now is       15.7 secs

     total energy              =     -70.43538169 Ry
     Harris-Foulkes estimate   =     -70.43546046 Ry
     estimated scf accuracy    <       0.00024070 Ry

     iteration # 12     ecut=    30.00 Ry     beta=0.70
     Davidson diagonalization with overlap
     ethr =  1.50E-06,  avg # of iterations =  1.0

     total cpu time spent up to now is       15.8 secs

     total energy              =     -70.43541362 Ry
     Harris-Foulkes estimate   =     -70.43541550 Ry
     estimated scf accuracy    <       0.00000226 Ry

     iteration # 13     ecut=    30.00 Ry     beta=0.70
     Davidson diagonalization with overlap
     ethr =  1.42E-08,  avg # of iterations =  2.0

     total cpu time spent up to now is       15.9 secs

     total energy              =     -70.43541442 Ry
     Harris-Foulkes estimate   =     -70.43541416 Ry
     estimated scf accuracy    <       0.00000005 Ry

     iteration # 14     ecut=    30.00 Ry     beta=0.70
     Davidson diagonalization with overlap
     ethr =  2.88E-10,  avg # of iterations =  2.0

     total cpu time spent up to now is       16.0 secs

     End of self-consistent calculation

          k = 0.0000 0.0000 0.0000 ( 22119 PWs)   bands (ev):

   -25.2128 -23.8653 -14.9748  -9.2786  -8.7917  -8.5628  -7.2080  -7.1932
    -7.1075  -5.1699  -5.1445  -1.3776

     the Fermi energy is    -7.0460 ev

!    total energy              =     -70.43541464 Ry
     Harris-Foulkes estimate   =     -70.43541443 Ry
     estimated scf accuracy    <          7.5E-09 Ry

     convergence has been achieved in  14 iterations

     Forces acting on atoms (Ry/au):

     atom    1 type  1   force =     0.23521611    0.23750160   -0.00457105
     atom    2 type  2   force =     0.00599105   -0.00920698   -0.00871858
     atom    3 type  2   force =    -0.24120716   -0.22829462    0.01328963

     Total force =     0.471622     Total SCF correction =     0.000523

     Entering Dynamics:    iteration =     8
                           time      =   0.0387 pico-seconds


     Andersen thermostat:    3 collisions

ATOMIC_POSITIONS (bohr)
C        0.653188444   0.654810915   0.046019274
O       -0.066045579   5.927286421   2.952953360
O        2.575746003   2.581196136   0.012503422


     kinetic energy (Ekin) =     0.02362102 Ry
     temperature           =  1243.15297581 K 
     Ekin + Etot (const)   =   -70.41179363 Ry
     Message from routine dynamics:
     Total linear momentum <> 0

     Linear momentum :    0.1096664564   -0.1339520780   -0.2578280717

     Writing output data file pwscf.save

     second order wave-functions extrapolation
     Check: negative starting charge=   -0.484718
     second order charge density extrapolation
     Check: negative starting charge=   -0.487468

     negative rho (up, down):  4.094E-01 0.000E+00

     total cpu time spent up to now is       16.3 secs

     per-process dynamical memory:    34.2 Mb

     Self-consistent Calculation

     iteration #  1     ecut=    30.00 Ry     beta=0.70
     Davidson diagonalization with overlap
     ethr =  1.00E-06,  avg # of iterations = 12.0

     negative rho (up, down):  1.109E-01 0.000E+00

     total cpu time spent up to now is       16.5 secs

     total energy              =     -70.53703905 Ry
     Harris-Foulkes estimate   =     -70.89850887 Ry
     estimated scf accuracy    <       0.06275460 Ry

     iteration #  2     ecut=    30.00 Ry     beta=0.70
     Davidson diagonalization with overlap
     ethr =  3.92E-04,  avg # of iterations =  3.0

     negative rho (up, down):  7.810E-02 0.000E+00

     total cpu time spent up to now is       16.6 secs

     total energy              =     -70.55978026 Ry
     Harris-Foulkes estimate   =     -70.58552941 Ry
     estimated scf accuracy    <       0.12289489 Ry

     iteration #  3     ecut=    30.00 Ry     beta=0.70
     Davidson diagonalization with overlap
     ethr =  3.92E-04,  avg # of iterations =  2.0

     negative rho (up, down):  3.809E-02 0.000E+00

     total cpu time spent up to now is       16.7 secs

     total energy              =     -70.60277103 Ry
     Harris-Foulkes estimate   =     -70.58321635 Ry
     estimated scf accuracy    <       0.02656595 Ry

     iteration #  4     ecut=    30.00 Ry     beta=0.70
     Davidson diagonalization with overlap
     ethr =  1.66E-04,  avg # of iterations =  2.0

     negative rho (up, down):  1.722E-02 0.000E+00

     total cpu time spent up to now is       16.8 secs

     total energy              =     -70.62556843 Ry
     Harris-Foulkes estimate   =     -70.60905079 Ry
     estimated scf accuracy    <       0.00640116 Ry

     iteration #  5     ecut=    30.00 Ry     beta=0.70
     Davidson diagonalization with overlap
     ethr =  4.00E-05,  avg # of iterations =  4.0

     negative rho (up, down):  2.590E-03 0.000E+00

     total cpu time spent up to now is       16.9 secs

     total energy              =     -70.64113830 Ry
     Harris-Foulkes estimate   =     -70.62700098 Ry
     estimated scf accuracy    <       0.00118951 Ry

     iteration #  6     ecut=    30.00 Ry     beta=0.70
     Davidson diagonalization with overlap
     ethr =  7.43E-06,  avg # of iterations =  6.0

     negative rho (up, down):  2.568E-07 0.000E+00

     total cpu time spent up to now is       17.0 secs

     total energy              =     -70.64272571 Ry
     Harris-Foulkes estimate   =     -70.64137110 Ry
     estimated scf accuracy    <       0.00004469 Ry

     iteration #  7     ecut=    30.00 Ry     beta=0.70
     Davidson diagonalization with overlap
     ethr =  2.79E-07,  avg # of iterations =  8.0

     negative rho (up, down):  1.259E-07 0.000E+00

     total cpu time spent up to now is       17.1 secs

     total energy              =     -70.64273360 Ry
     Harris-Foulkes estimate   =     -70.64274303 Ry
     estimated scf accuracy    <       0.00000665 Ry

     iteration #  8     ecut=    30.00 Ry     beta=0.70
     Davidson diagonalization with overlap
     ethr =  4.16E-08,  avg # of iterations =  1.0

     total cpu time spent up to now is       17.2 secs

     total energy              =     -70.64273216 Ry
     Harris-Foulkes estimate   =     -70.64273491 Ry
     estimated scf accuracy    <       0.00000174 Ry

     iteration #  9     ecut=    30.00 Ry     beta=0.70
     Davidson diagonalization with overlap
     ethr =  1.09E-08,  avg # of iterations =  1.0

     total cpu time spent up to now is       17.2 secs

     total energy              =     -70.64273132 Ry
     Harris-Foulkes estimate   =     -70.64273236 Ry
     estimated scf accuracy    <       0.00000040 Ry

     iteration # 10     ecut=    30.00 Ry     beta=0.70
     Davidson diagonalization with overlap
     ethr =  2.53E-09,  avg # of iterations =  2.0

     total cpu time spent up to now is       17.3 secs

     total energy              =     -70.64273116 Ry
     Harris-Foulkes estimate   =     -70.64273140 Ry
     estimated scf accuracy    <       0.00000002 Ry

     iteration # 11     ecut=    30.00 Ry     beta=0.70
     Davidson diagonalization with overlap
     ethr =  1.34E-10,  avg # of iterations =  2.0

     total cpu time spent up to now is       17.4 secs

     total energy              =     -70.64273079 Ry
     Harris-Foulkes estimate   =     -70.64273116 Ry
     estimated scf accuracy    <       0.00000002 Ry

     iteration # 12     ecut=    30.00 Ry     beta=0.70
     Davidson diagonalization with overlap
     ethr =  1.23E-10,  avg # of iterations =  2.0

     total cpu time spent up to now is       17.5 secs

     End of self-consistent calculation

          k = 0.0000 0.0000 0.0000 ( 22119 PWs)   bands (ev):

   -26.8653 -24.3413 -14.6169  -9.6864  -9.5276  -9.1111  -7.6517  -7.6450
    -7.5846  -3.7162  -3.7062  -0.2348

     the Fermi energy is    -7.5038 ev

!    total energy              =     -70.64273083 Ry
     Harris-Foulkes estimate   =     -70.64273079 Ry
[...]

     total energy              =    -106.39643796 Ry
     Harris-Foulkes estimate   =    -114.44463404 Ry
     estimated scf accuracy    <      65.73606164 Ry

     iteration # 59     ecut=    30.00 Ry     beta=0.70
     Davidson diagonalization with overlap
     ethr =  1.00E-02,  avg # of iterations =  4.0

     negative rho (up, down):  2.886E-01 0.000E+00

     total cpu time spent up to now is       74.9 secs

     total energy              =     -60.67410680 Ry
     Harris-Foulkes estimate   =   -3555.06505356 Ry
     estimated scf accuracy    <      37.57885534 Ry

     iteration # 60     ecut=    30.00 Ry     beta=0.70
     Davidson diagonalization with overlap
     ethr =  1.00E-02,  avg # of iterations =  8.0

     negative rho (up, down):  4.858E-05 0.000E+00

     total cpu time spent up to now is       75.0 secs

     total energy              =      44.01150706 Ry
     Harris-Foulkes estimate   =    -254.82736273 Ry
     estimated scf accuracy    <      37.17802048 Ry

     iteration # 61     ecut=    30.00 Ry     beta=0.70
     Davidson diagonalization with overlap
     ethr =  1.00E-02,  avg # of iterations =  8.0

     negative rho (up, down):  7.633E-04 0.000E+00

     total cpu time spent up to now is       75.2 secs

     total energy              =    -100.65448355 Ry
     Harris-Foulkes estimate   =    -108.11881969 Ry
     estimated scf accuracy    <      58.13527043 Ry

     iteration # 62     ecut=    30.00 Ry     beta=0.70
     Davidson diagonalization with overlap
     ethr =  1.00E-02,  avg # of iterations =  2.0

     negative rho (up, down):  2.891E-02 0.000E+00

     total cpu time spent up to now is       75.3 secs

     total energy              =     -93.74065668 Ry
     Harris-Foulkes estimate   =    -100.71847596 Ry
     estimated scf accuracy    <      48.93504049 Ry

     iteration # 63     ecut=    30.00 Ry     beta=0.70
     Davidson diagonalization with overlap
     ethr =  1.00E-02,  avg # of iterations =  5.0

     negative rho (up, down):  2.779E-01 0.000E+00

     total cpu time spent up to now is       75.4 secs

     total energy              =    -108.20677041 Ry
     Harris-Foulkes estimate   =    -148.62032138 Ry
     estimated scf accuracy    <      27.34482026 Ry

     iteration # 64     ecut=    30.00 Ry     beta=0.70
     Davidson diagonalization with overlap
     ethr =  1.00E-02,  avg # of iterations = 13.0

     negative rho (up, down):  2.151E-01 0.000E+00

     total cpu time spent up to now is       75.6 secs

     total energy              =     -12.91172677 Ry
     Harris-Foulkes estimate   =    -300.76599029 Ry
     estimated scf accuracy    <      52.25263332 Ry

     iteration # 65     ecut=    30.00 Ry     beta=0.70
     Davidson diagonalization with overlap
     ethr =  1.00E-02,  avg # of iterations =  7.0

     negative rho (up, down):  2.123E-01 0.000E+00

     total cpu time spent up to now is       75.7 secs

     total energy              =     120.53073316 Ry
     Harris-Foulkes estimate   =    -367.49543122 Ry
     estimated scf accuracy    <      88.86679344 Ry

     iteration # 66     ecut=    30.00 Ry     beta=0.70
     Davidson diagonalization with overlap
     ethr =  1.00E-02,  avg # of iterations = 12.0

     negative rho (up, down):  1.883E-01 0.000E+00

     total cpu time spent up to now is       75.9 secs

     total energy              =     160.47742489 Ry
     Harris-Foulkes estimate   =    -682.88179314 Ry
     estimated scf accuracy    <      84.65048729 Ry

     iteration # 67     ecut=    30.00 Ry     beta=0.70
     Davidson diagonalization with overlap
     ethr =  1.00E-02,  avg # of iterations = 11.0

     negative rho (up, down):  2.379E-01 0.000E+00

     total cpu time spent up to now is       76.1 secs

     total energy              =      -5.72948804 Ry
     Harris-Foulkes estimate   =    -229.69735880 Ry
     estimated scf accuracy    <      53.80740718 Ry

     iteration # 68     ecut=    30.00 Ry     beta=0.70
     Davidson diagonalization with overlap
     ethr =  1.00E-02,  avg # of iterations =  4.0

     negative rho (up, down):  3.811E-01 0.000E+00

     total cpu time spent up to now is       76.2 secs

     total energy              =     -44.93571637 Ry
     Harris-Foulkes estimate   =   -3781.72757461 Ry
     estimated scf accuracy    <      24.45962879 Ry

     iteration # 69     ecut=    30.00 Ry     beta=0.70
     Davidson diagonalization with overlap
     ethr =  1.00E-02,  avg # of iterations =  6.0

     negative rho (up, down):  6.114E-01 0.000E+00

     total cpu time spent up to now is       76.3 secs

     total energy              =    -551.36296334 Ry
     Harris-Foulkes estimate   =   -1186.62147459 Ry
     estimated scf accuracy    <      28.41926136 Ry

     iteration # 70     ecut=    30.00 Ry     beta=0.70
     Davidson diagonalization with overlap
     ethr =  1.00E-02,  avg # of iterations =  5.0

     negative rho (up, down):  7.599E-01 0.000E+00

     total cpu time spent up to now is       76.5 secs

     total energy              =     -51.58133412 Ry
     Harris-Foulkes estimate   =  -10023.06842320 Ry
     estimated scf accuracy    <     103.09504965 Ry

     iteration # 71     ecut=    30.00 Ry     beta=0.70
     Davidson diagonalization with overlap
     ethr =  1.00E-02,  avg # of iterations =  6.0

     negative rho (up, down):  1.717E-01 0.000E+00

     total cpu time spent up to now is       76.6 secs

     total energy              =     124.16026366 Ry
     Harris-Foulkes estimate   =   -1847.39665076 Ry
     estimated scf accuracy    <     106.45781470 Ry

     iteration # 72     ecut=    30.00 Ry     beta=0.70
     Davidson diagonalization with overlap
     ethr =  1.00E-02,  avg # of iterations =  9.0

     negative rho (up, down):  5.063E-01 0.000E+00

     total cpu time spent up to now is       76.8 secs

     total energy              =   -1692.34250125 Ry
     Harris-Foulkes estimate   =   -1561.61545957 Ry
     estimated scf accuracy    <      88.57582490 Ry

     iteration # 73     ecut=    30.00 Ry     beta=0.70
     Davidson diagonalization with overlap
     ethr =  1.00E-02,  avg # of iterations =  7.0

     negative rho (up, down):  8.725E-01 0.000E+00

     total cpu time spent up to now is       77.0 secs

     total energy              =      67.80522621 Ry
     Harris-Foulkes estimate   =   -7437.02951199 Ry
     estimated scf accuracy    <     105.52749782 Ry

     iteration # 74     ecut=    30.00 Ry     beta=0.70
     Davidson diagonalization with overlap
     ethr =  1.00E-02,  avg # of iterations =  7.0

     negative rho (up, down):  8.835E-01 0.000E+00

     total cpu time spent up to now is       77.1 secs

     total energy              =     -30.31185306 Ry
     Harris-Foulkes estimate   =  -11126.02059523 Ry
     estimated scf accuracy    <      69.41573585 Ry

     iteration # 75     ecut=    30.00 Ry     beta=0.70
     Davidson diagonalization with overlap
     ethr =  1.00E-02,  avg # of iterations =  7.0

     negative rho (up, down):  7.405E-01 0.000E+00

     total cpu time spent up to now is       77.3 secs

     total energy              =      36.27677496 Ry
     Harris-Foulkes estimate   =   -5398.97011987 Ry
     estimated scf accuracy    <      86.25858005 Ry

     iteration # 76     ecut=    30.00 Ry     beta=0.70
     Davidson diagonalization with overlap
     ethr =  1.00E-02,  avg # of iterations =  8.0

     negative rho (up, down):  7.631E-01 0.000E+00

     total cpu time spent up to now is       77.5 secs

     total energy              =   -1208.28491052 Ry
     Harris-Foulkes estimate   =  -12210.54395685 Ry
     estimated scf accuracy    <      69.11052511 Ry

     iteration # 77     ecut=    30.00 Ry     beta=0.70
     Davidson diagonalization with overlap
     ethr =  1.00E-02,  avg # of iterations =  7.0

     negative rho (up, down):  1.238E+00 0.000E+00

     total cpu time spent up to now is       77.6 secs

     total energy              =     -99.23256751 Ry
     Harris-Foulkes estimate   =   -3867.03372824 Ry
     estimated scf accuracy    <     118.93394122 Ry

     iteration # 78     ecut=    30.00 Ry     beta=0.70
     Davidson diagonalization with overlap
     ethr =  1.00E-02,  avg # of iterations =  8.0

     negative rho (up, down):  8.604E-01 0.000E+00

     total cpu time spent up to now is       77.8 secs

     total energy              =   -2901.26220883 Ry
     Harris-Foulkes estimate   =   -1319.86167291 Ry
     estimated scf accuracy    <      65.96176614 Ry

     iteration # 79     ecut=    30.00 Ry     beta=0.70
     Davidson diagonalization with overlap
     ethr =  1.00E-02,  avg # of iterations =  7.0

     negative rho (up, down):  5.351E-01 0.000E+00

     total cpu time spent up to now is       77.9 secs

     total energy              =     209.24853898 Ry
     Harris-Foulkes estimate   =   -8102.55788944 Ry
     estimated scf accuracy    <      68.00563972 Ry

     iteration # 80     ecut=    30.00 Ry     beta=0.70
     Davidson diagonalization with overlap
     ethr =  1.00E-02,  avg # of iterations =  8.0

     negative rho (up, down):  7.738E-01 0.000E+00

     total cpu time spent up to now is       78.1 secs

     total energy              =      20.47872323 Ry
     Harris-Foulkes estimate   =   -2290.16970832 Ry
     estimated scf accuracy    <      78.36124618 Ry

     iteration # 81     ecut=    30.00 Ry     beta=0.70
     Davidson diagonalization with overlap
     ethr =  1.00E-02,  avg # of iterations =  5.0

     negative rho (up, down):  6.398E-01 0.000E+00

     total cpu time spent up to now is       78.2 secs

     total energy              =     -47.45122474 Ry
     Harris-Foulkes estimate   =    -718.15828641 Ry
     estimated scf accuracy    <      61.08442211 Ry

     iteration # 82     ecut=    30.00 Ry     beta=0.70
     Davidson diagonalization with overlap
     ethr =  1.00E-02,  avg # of iterations =  7.0

     negative rho (up, down):  3.380E-01 0.000E+00

     total cpu time spent up to now is       78.4 secs

     total energy              =       1.99833269 Ry
     Harris-Foulkes estimate   =   -1020.27897402 Ry
     estimated scf accuracy    <      58.59471655 Ry

     iteration # 83     ecut=    30.00 Ry     beta=0.70
     Davidson diagonalization with overlap
     ethr =  1.00E-02,  avg # of iterations =  7.0

     negative rho (up, down):  4.497E-01 0.000E+00

     total cpu time spent up to now is       78.5 secs

     total energy              =       0.20346018 Ry
     Harris-Foulkes estimate   =   -1098.69149464 Ry
     estimated scf accuracy    <      53.65883980 Ry

     iteration # 84     ecut=    30.00 Ry     beta=0.70
     Davidson diagonalization with overlap
     ethr =  1.00E-02,  avg # of iterations = 14.0

     negative rho (up, down):  4.409E-01 0.000E+00

     total cpu time spent up to now is       78.7 secs

     total energy              =    -388.24202736 Ry
     Harris-Foulkes estimate   =    -880.89796445 Ry
     estimated scf accuracy    <      52.51449536 Ry

     iteration # 85     ecut=    30.00 Ry     beta=0.70
     Davidson diagonalization with overlap
     ethr =  1.00E-02,  avg # of iterations =  6.0

     negative rho (up, down):  5.961E-01 0.000E+00

     total cpu time spent up to now is       78.8 secs

     total energy              =   12114.74989041 Ry
     Harris-Foulkes estimate   =   -5945.08126626 Ry
     estimated scf accuracy    <      95.29008264 Ry

     iteration # 86     ecut=    30.00 Ry     beta=0.70
     Davidson diagonalization with overlap
     ethr =  1.00E-02,  avg # of iterations = 14.0

     negative rho (up, down):  5.442E-03 0.000E+00

     total cpu time spent up to now is       79.0 secs

     total energy              =     102.89268143 Ry
     Harris-Foulkes estimate   =    -297.34147250 Ry
     estimated scf accuracy    <      26.48843006 Ry

     iteration # 87     ecut=    30.00 Ry     beta=0.70
     Davidson diagonalization with overlap
     ethr =  1.00E-02,  avg # of iterations =  9.0

     negative rho (up, down):  7.343E-02 0.000E+00

     total cpu time spent up to now is       79.2 secs

     total energy              =     -68.68419616 Ry
     Harris-Foulkes estimate   =    -136.81796148 Ry
     estimated scf accuracy    <      55.21539035 Ry

     iteration # 88     ecut=    30.00 Ry     beta=0.70
     Davidson diagonalization with overlap
     ethr =  1.00E-02,  avg # of iterations =  5.0

     negative rho (up, down):  2.433E-01 0.000E+00

     total cpu time spent up to now is       79.3 secs

     total energy              =      27.23203742 Ry
     Harris-Foulkes estimate   =    -637.30209540 Ry
     estimated scf accuracy    <      40.24048736 Ry

     iteration # 89     ecut=    30.00 Ry     beta=0.70
     Davidson diagonalization with overlap
     ethr =  1.00E-02,  avg # of iterations =  8.0

     negative rho (up, down):  2.905E-01 0.000E+00

     total cpu time spent up to now is       79.5 secs

     total energy              =       0.28791660 Ry
     Harris-Foulkes estimate   =    -290.19684856 Ry
     estimated scf accuracy    <      46.52874993 Ry

     iteration # 90     ecut=    30.00 Ry     beta=0.70
     Davidson diagonalization with overlap
     ethr =  1.00E-02,  avg # of iterations =  7.0

     negative rho (up, down):  2.891E-01 0.000E+00

     total cpu time spent up to now is       79.6 secs

     total energy              =      47.85716842 Ry
     Harris-Foulkes estimate   =    -223.27422723 Ry
     estimated scf accuracy    <      34.75556339 Ry

     iteration # 91     ecut=    30.00 Ry     beta=0.70
     Davidson diagonalization with overlap
     ethr =  1.00E-02,  avg # of iterations =  9.0

     negative rho (up, down):  8.793E-02 0.000E+00

     total cpu time spent up to now is       79.8 secs

     total energy              =     105.62466145 Ry
     Harris-Foulkes estimate   =   -1479.16345823 Ry
     estimated scf accuracy    <      29.98151880 Ry

     iteration # 92     ecut=    30.00 Ry     beta=0.70
     Davidson diagonalization with overlap
     ethr =  1.00E-02,  avg # of iterations =  7.0

     negative rho (up, down):  1.172E-01 0.000E+00

     total cpu time spent up to now is       79.9 secs

     total energy              =     -63.55894513 Ry
     Harris-Foulkes estimate   =    -168.23855084 Ry
     estimated scf accuracy    <      47.98431490 Ry

     iteration # 93     ecut=    30.00 Ry     beta=0.70
     Davidson diagonalization with overlap
     ethr =  1.00E-02,  avg # of iterations =  5.0

     negative rho (up, down):  1.485E-01 0.000E+00

     total cpu time spent up to now is       80.0 secs

     total energy              =       0.04176246 Ry
     Harris-Foulkes estimate   =    -389.33945608 Ry
     estimated scf accuracy    <      34.71121969 Ry

     iteration # 94     ecut=    30.00 Ry     beta=0.70
     Davidson diagonalization with overlap
     ethr =  1.00E-02,  avg # of iterations =  6.0

     negative rho (up, down):  2.055E-01 0.000E+00

     total cpu time spent up to now is       80.2 secs

     total energy              =    -114.44519817 Ry
     Harris-Foulkes estimate   =   -1601.23611695 Ry
     estimated scf accuracy    <      33.12536969 Ry

     iteration # 95     ecut=    30.00 Ry     beta=0.70
     Davidson diagonalization with overlap
     ethr =  1.00E-02,  avg # of iterations =  5.0

     negative rho (up, down):  3.411E-01 0.000E+00

     total cpu time spent up to now is       80.3 secs

     total energy              =     -79.37631190 Ry
     Harris-Foulkes estimate   =    -307.32321351 Ry
     estimated scf accuracy    <      37.42855310 Ry

     iteration # 96     ecut=    30.00 Ry     beta=0.70
     Davidson diagonalization with overlap
     ethr =  1.00E-02,  avg # of iterations =  8.0

     negative rho (up, down):  3.981E-02 0.000E+00

     total cpu time spent up to now is       80.5 secs

     total energy              =     241.34638504 Ry
     Harris-Foulkes estimate   =   -6999.49272360 Ry
     estimated scf accuracy    <      60.60090219 Ry

     iteration # 97     ecut=    30.00 Ry     beta=0.70
     Davidson diagonalization with overlap
     ethr =  1.00E-02,  avg # of iterations = 13.0

     negative rho (up, down):  1.277E-01 0.000E+00

     total cpu time spent up to now is       80.7 secs

     total energy              =     -33.18572243 Ry
     Harris-Foulkes estimate   =    -788.99181226 Ry
     estimated scf accuracy    <      22.41676758 Ry

     iteration # 98     ecut=    30.00 Ry     beta=0.70
     Davidson diagonalization with overlap
     ethr =  1.00E-02,  avg # of iterations =  7.0

     total cpu time spent up to now is       80.8 secs

     total energy              =      23.54448757 Ry
     Harris-Foulkes estimate   =    -893.77912759 Ry
     estimated scf accuracy    <      44.33186333 Ry

     iteration # 99     ecut=    30.00 Ry     beta=0.70
     Davidson diagonalization with overlap
     ethr =  1.00E-02,  avg # of iterations =  9.0

     negative rho (up, down):  1.392E-02 0.000E+00

     total cpu time spent up to now is       81.0 secs

     total energy              =     -94.48298504 Ry
     Harris-Foulkes estimate   =     -98.32502789 Ry
     estimated scf accuracy    <      40.98310557 Ry

     iteration #100     ecut=    30.00 Ry     beta=0.70
     Davidson diagonalization with overlap
     ethr =  1.00E-02,  avg # of iterations =  4.0

     negative rho (up, down):  1.391E-01 0.000E+00

     total cpu time spent up to now is       81.1 secs

     total energy              =     -48.22883608 Ry
     Harris-Foulkes estimate   =    -452.62757787 Ry
     estimated scf accuracy    <      28.75806780 Ry

     End of self-consistent calculation

     convergence NOT achieved after 100 iterations: stopping

     Writing output data file pwscf.save
 
     init_run     :      0.12s CPU      0.14s WALL (       1 calls)
     electrons    :     62.39s CPU     71.87s WALL (      32 calls)
     update_pot   :      4.74s CPU      6.20s WALL (      31 calls)
     forces       :      1.17s CPU      1.19s WALL (      31 calls)

     Called by init_run:
     wfcinit      :      0.02s CPU      0.03s WALL (       1 calls)
     potinit      :      0.04s CPU      0.04s WALL (       1 calls)

     Called by electrons:
     c_bands      :     34.13s CPU     35.04s WALL (     652 calls)
     sum_band     :      6.41s CPU      6.69s WALL (     652 calls)
     v_of_rho     :     13.04s CPU     13.31s WALL (     684 calls)
     mix_rho      :      8.23s CPU     14.53s WALL (     652 calls)

     Called by c_bands:
     init_us_2    :      0.24s CPU      0.28s WALL (    1305 calls)
     cegterg      :     33.83s CPU     34.30s WALL (     654 calls)

     Called by sum_band:

     Called by *egterg:
     h_psi        :     28.50s CPU     28.90s WALL (    3038 calls)
     g_psi        :      0.33s CPU      0.33s WALL (    2383 calls)
     cdiaghg      :      1.08s CPU      1.09s WALL (    3004 calls)

     Called by h_psi:
     h_psi:pot    :     28.20s CPU     28.61s WALL (    3038 calls)
     h_psi:calbec :      0.26s CPU      0.27s WALL (    3038 calls)
     vloc_psi     :     27.75s CPU     28.15s WALL (    3038 calls)
     add_vuspsi   :      0.17s CPU      0.17s WALL (    3038 calls)

     General routines
     calbec       :      0.40s CPU      0.46s WALL (    3192 calls)
     fft          :      8.24s CPU      8.64s WALL (    7586 calls)
     fftw         :     28.66s CPU     29.14s WALL (   57046 calls)
     davcio       :      1.27s CPU      5.64s WALL (   10205 calls)
 
     Parallel routines
     fft_scatter  :     10.36s CPU     10.89s WALL (   64632 calls)
 
     PWSCF        :  1m 9.37s CPU     1m21.17s WALL

 
   This run was terminated on:  21:40:46  23Jan2018            

=------------------------------------------------------------------------------=
   JOB DONE.
=------------------------------------------------------------------------------=
