
     Program PWSCF v.6.0 (svn rev. 13079) starts on 23Jan2018 at 21:38:47 

     This program is part of the open-source Quantum ESPRESSO suite
     for quantum simulation of materials; please cite
         "P. Giannozzi et al., J. Phys.:Condens. Matter 21 395502 (2009);
          URL http://www.quantum-espresso.org", 
     in publications or presentations arising from this work. More details at
     http://www.quantum-espresso.org/quote

     Parallel version (MPI), running on    10 processors
     R & G space division:  proc/nbgrp/npool/nimage =      10
     Reading input from inputs/CO2-1000.in

     Current dimensions of program PWSCF are:
     Max number of different atomic species (ntypx) = 10
     Max number of k-points (npk) =  40000
     Max angular momentum in pseudopotentials (lmaxx) =  3

     Subspace diagonalization in iterative solution of the eigenvalue problem:
     a serial algorithm will be used

 
     Parallelization info
     --------------------
     sticks:   dense  smooth     PW     G-vecs:    dense   smooth      PW
     Min         380     380     94                17748    17748    2208
     Max         381     381     95                17753    17753    2213
     Sum        3809    3809    949               177509   177509   22119
 


     bravais-lattice index     =            1
     lattice parameter (alat)  =      20.0000  a.u.
     unit-cell volume          =    8000.0000 (a.u.)^3
     number of atoms/cell      =            3
     number of atomic types    =            2
     number of electrons       =        16.00
     number of Kohn-Sham states=           12
     kinetic-energy cutoff     =      30.0000  Ry
     charge density cutoff     =     120.0000  Ry
     convergence threshold     =      1.0E-08
     mixing beta               =       0.7000
     number of iterations used =            8  plain     mixing
     Exchange-correlation      = BLYP ( 1  3  1  3 0 0)
     nstep                     =         5000


     celldm(1)=  20.000000  celldm(2)=   0.000000  celldm(3)=   0.000000
     celldm(4)=   0.000000  celldm(5)=   0.000000  celldm(6)=   0.000000

     crystal axes: (cart. coord. in units of alat)
               a(1) = (   1.000000   0.000000   0.000000 )  
               a(2) = (   0.000000   1.000000   0.000000 )  
               a(3) = (   0.000000   0.000000   1.000000 )  

     reciprocal axes: (cart. coord. in units 2 pi/alat)
               b(1) = (  1.000000  0.000000  0.000000 )  
               b(2) = (  0.000000  1.000000  0.000000 )  
               b(3) = (  0.000000  0.000000  1.000000 )  


     PseudoPot. # 1 for  C read from file:
     ./C.blyp-hgh.UPF
     MD5 check sum: 40075daedda6aecb39abd2ed8496c111
     Pseudo is Norm-conserving, Zval =  4.0
     Generated in analytical, separable form
     Using radial grid of 1073 points,  1 beta functions with: 
                l(1) =   0

     PseudoPot. # 2 for  O read from file:
     ./O.blyp-hgh.UPF
     MD5 check sum: d0b7156309aa9befef28faac7bc56342
     Pseudo is Norm-conserving, Zval =  6.0
     Generated in analytical, separable form
     Using radial grid of 1095 points,  1 beta functions with: 
                l(1) =   0

     atomic species   valence    mass     pseudopotential
        C              4.00    12.01000      C( 1.00)
        O              6.00    16.00000      O( 1.00)

     No symmetry found



   Cartesian axes

     site n.     atom                  positions (alat units)
         1           C   tau(   1) = (   0.0000000   0.0000000   0.0000000  )
         2           O   tau(   2) = (   0.0000000   0.3000000   0.1500000  )
         3           O   tau(   3) = (   0.1500000   0.1500000   0.0000000  )

     number of k points=     1  Marzari-Vanderbilt smearing, width (Ry)=  0.0250
                       cart. coord. in units 2pi/alat
        k(    1) = (   0.0000000   0.0000000   0.0000000), wk =   2.0000000

     Dense  grid:   177509 G-vectors     FFT dimensions: (  72,  72,  72)

     Estimated max dynamical RAM per process >       8.10Mb

     Estimated total allocated dynamical RAM >      80.99Mb

     Initial potential from superposition of free atoms
     Check: negative starting charge=   -0.484361

     starting charge   15.99995, renormalised to   16.00000

     negative rho (up, down):  4.844E-01 0.000E+00
     Starting wfc are   12 randomized atomic wfcs

     total cpu time spent up to now is        0.2 secs

     per-process dynamical memory:    24.7 Mb

     Self-consistent Calculation

     iteration #  1     ecut=    30.00 Ry     beta=0.70
     Davidson diagonalization with overlap
     ethr =  1.00E-02,  avg # of iterations =  2.0

     negative rho (up, down):  1.230E-01 0.000E+00

     total cpu time spent up to now is        0.3 secs

     total energy              =     -69.26691793 Ry
     Harris-Foulkes estimate   =     -71.11859416 Ry
     estimated scf accuracy    <       1.78961174 Ry

     iteration #  2     ecut=    30.00 Ry     beta=0.70
     Davidson diagonalization with overlap
     ethr =  1.00E-02,  avg # of iterations =  2.0

     negative rho (up, down):  9.277E-02 0.000E+00

     total cpu time spent up to now is        0.4 secs

     total energy              =     -69.47939625 Ry
     Harris-Foulkes estimate   =     -71.60603744 Ry
     estimated scf accuracy    <       5.87531293 Ry

     iteration #  3     ecut=    30.00 Ry     beta=0.70
     Davidson diagonalization with overlap
     ethr =  1.00E-02,  avg # of iterations =  2.0

     negative rho (up, down):  5.770E-02 0.000E+00

     total cpu time spent up to now is        0.5 secs

     total energy              =     -69.34700973 Ry
     Harris-Foulkes estimate   =     -70.20285617 Ry
     estimated scf accuracy    <       4.71690683 Ry

     iteration #  4     ecut=    30.00 Ry     beta=0.70
     Davidson diagonalization with overlap
     ethr =  1.00E-02,  avg # of iterations =  1.0

     negative rho (up, down):  4.040E-02 0.000E+00

     total cpu time spent up to now is        0.6 secs

     total energy              =     -70.18848366 Ry
     Harris-Foulkes estimate   =     -70.39252005 Ry
     estimated scf accuracy    <       1.73818081 Ry

     iteration #  5     ecut=    30.00 Ry     beta=0.70
     Davidson diagonalization with overlap
     ethr =  1.00E-02,  avg # of iterations =  1.0

     negative rho (up, down):  2.101E-02 0.000E+00

     total cpu time spent up to now is        0.7 secs

     total energy              =     -70.16911385 Ry
     Harris-Foulkes estimate   =     -70.32748362 Ry
     estimated scf accuracy    <       1.91103002 Ry

     iteration #  6     ecut=    30.00 Ry     beta=0.70
     Davidson diagonalization with overlap
     ethr =  1.00E-02,  avg # of iterations =  1.0

     negative rho (up, down):  9.405E-03 0.000E+00

     total cpu time spent up to now is        0.8 secs

     total energy              =     -70.12903440 Ry
     Harris-Foulkes estimate   =     -70.19475227 Ry
     estimated scf accuracy    <       0.84125736 Ry

     iteration #  7     ecut=    30.00 Ry     beta=0.70
     Davidson diagonalization with overlap
     ethr =  5.26E-03,  avg # of iterations =  1.0

     negative rho (up, down):  4.985E-03 0.000E+00

     total cpu time spent up to now is        0.9 secs

     total energy              =     -70.13156444 Ry
     Harris-Foulkes estimate   =     -70.14581250 Ry
     estimated scf accuracy    <       0.22202148 Ry

     iteration #  8     ecut=    30.00 Ry     beta=0.70
     Davidson diagonalization with overlap
     ethr =  1.39E-03,  avg # of iterations =  1.0

     negative rho (up, down):  2.563E-04 0.000E+00

     total cpu time spent up to now is        1.0 secs

     total energy              =     -70.13935124 Ry
     Harris-Foulkes estimate   =     -70.13766638 Ry
     estimated scf accuracy    <       0.02062708 Ry

     iteration #  9     ecut=    30.00 Ry     beta=0.70
     Davidson diagonalization with overlap
     ethr =  1.29E-04,  avg # of iterations =  1.0

     negative rho (up, down):  2.530E-04 0.000E+00

     total cpu time spent up to now is        1.1 secs

     total energy              =     -70.14217623 Ry
     Harris-Foulkes estimate   =     -70.14384207 Ry
     estimated scf accuracy    <       0.14075479 Ry

     iteration # 10     ecut=    30.00 Ry     beta=0.70
     Davidson diagonalization with overlap
     ethr =  1.29E-04,  avg # of iterations =  1.0

     negative rho (up, down):  6.586E-05 0.000E+00

     total cpu time spent up to now is        1.2 secs

     total energy              =     -70.13815166 Ry
     Harris-Foulkes estimate   =     -70.14245360 Ry
     estimated scf accuracy    <       0.06836833 Ry

     iteration # 11     ecut=    30.00 Ry     beta=0.70
     Davidson diagonalization with overlap
     ethr =  1.29E-04,  avg # of iterations =  1.0

     negative rho (up, down):  7.776E-07 0.000E+00

     total cpu time spent up to now is        1.3 secs

     total energy              =     -70.14086552 Ry
     Harris-Foulkes estimate   =     -70.14085410 Ry
     estimated scf accuracy    <       0.00158920 Ry

     iteration # 12     ecut=    30.00 Ry     beta=0.70
     Davidson diagonalization with overlap
     ethr =  9.93E-06,  avg # of iterations =  1.0

     negative rho (up, down):  1.825E-06 0.000E+00

     total cpu time spent up to now is        1.4 secs

     total energy              =     -70.14078091 Ry
     Harris-Foulkes estimate   =     -70.14087810 Ry
     estimated scf accuracy    <       0.00178541 Ry

     iteration # 13     ecut=    30.00 Ry     beta=0.70
     Davidson diagonalization with overlap
     ethr =  9.93E-06,  avg # of iterations =  1.0

     total cpu time spent up to now is        1.5 secs

     total energy              =     -70.14080907 Ry
     Harris-Foulkes estimate   =     -70.14081319 Ry
     estimated scf accuracy    <       0.00039900 Ry

     iteration # 14     ecut=    30.00 Ry     beta=0.70
     Davidson diagonalization with overlap
     ethr =  2.49E-06,  avg # of iterations =  1.0

     total cpu time spent up to now is        1.6 secs

     total energy              =     -70.14080423 Ry
     Harris-Foulkes estimate   =     -70.14081100 Ry
     estimated scf accuracy    <       0.00020742 Ry

     iteration # 15     ecut=    30.00 Ry     beta=0.70
     Davidson diagonalization with overlap
     ethr =  1.30E-06,  avg # of iterations =  1.0

     total cpu time spent up to now is        1.7 secs

     total energy              =     -70.14080561 Ry
     Harris-Foulkes estimate   =     -70.14080632 Ry
     estimated scf accuracy    <       0.00005296 Ry

     iteration # 16     ecut=    30.00 Ry     beta=0.70
     Davidson diagonalization with overlap
     ethr =  3.31E-07,  avg # of iterations =  1.0

     total cpu time spent up to now is        1.8 secs

     total energy              =     -70.14080528 Ry
     Harris-Foulkes estimate   =     -70.14080574 Ry
     estimated scf accuracy    <       0.00003148 Ry

     iteration # 17     ecut=    30.00 Ry     beta=0.70
     Davidson diagonalization with overlap
     ethr =  1.97E-07,  avg # of iterations =  1.0

     total cpu time spent up to now is        1.9 secs

     total energy              =     -70.14080429 Ry
     Harris-Foulkes estimate   =     -70.14080531 Ry
     estimated scf accuracy    <       0.00002193 Ry

     iteration # 18     ecut=    30.00 Ry     beta=0.70
     Davidson diagonalization with overlap
     ethr =  1.37E-07,  avg # of iterations =  1.0

     total cpu time spent up to now is        2.0 secs

     total energy              =     -70.14080421 Ry
     Harris-Foulkes estimate   =     -70.14080457 Ry
     estimated scf accuracy    <       0.00000380 Ry

     iteration # 19     ecut=    30.00 Ry     beta=0.70
     Davidson diagonalization with overlap
     ethr =  2.38E-08,  avg # of iterations =  1.0

     total cpu time spent up to now is        2.1 secs

     total energy              =     -70.14080435 Ry
     Harris-Foulkes estimate   =     -70.14080441 Ry
     estimated scf accuracy    <       0.00000012 Ry

     iteration # 20     ecut=    30.00 Ry     beta=0.70
     Davidson diagonalization with overlap
     ethr =  7.27E-10,  avg # of iterations =  1.0

     total cpu time spent up to now is        2.2 secs

     End of self-consistent calculation

          k = 0.0000 0.0000 0.0000 ( 22119 PWs)   bands (ev):

   -24.1843 -23.6096 -15.4083  -8.4912  -8.0279  -7.6267  -6.9772  -6.9320
    -6.7967  -6.3543  -6.3067  -4.9090

     the Fermi energy is    -6.7822 ev

!    total energy              =     -70.14080433 Ry
     Harris-Foulkes estimate   =     -70.14080435 Ry
     estimated scf accuracy    <          3.7E-09 Ry

     convergence has been achieved in  20 iterations

     Forces acting on atoms (Ry/au):

     atom    1 type  1   force =     0.13191636    0.13704077    0.00275256
     atom    2 type  2   force =     0.01873749   -0.02438175   -0.02209694
     atom    3 type  2   force =    -0.15065385   -0.11265902    0.01934438

     Total force =     0.270899     Total SCF correction =     0.000052

     Molecular Dynamics Calculation

     Starting temperature  =  1000.00 K

     temperature is controlled by Andersen thermostat
     Collision frequency = 1.0000/timestep
     mass C                =    12.01
     mass O                =    16.00
     Time step             =   100.00 a.u.,  4.8378 femto-seconds

     Entering Dynamics:    iteration =     1
                           time      =   0.0048 pico-seconds


     Andersen thermostat:    3 collisions

ATOMIC_POSITIONS (bohr)
C        0.092538643   0.102350202  -0.052847889
O       -0.030201134   6.007271594   2.945028211
O        2.960739315   2.915901786   0.094640736


     kinetic energy (Ekin) =     0.01309911 Ry
     temperature           =   689.39426783 K 
     Ekin + Etot (const)   =   -70.12770523 Ry

     Linear momentum :   -0.0000000000   -0.0000000000    0.0000000000

     Writing output data file pwscf.save
     Check: negative starting charge=   -0.484361
     NEW-OLD atomic charge density approx. for the potential
     Check: negative starting charge=   -0.484100

     negative rho (up, down):  2.823E-01 0.000E+00

     total cpu time spent up to now is        2.6 secs

     per-process dynamical memory:    34.2 Mb

     Self-consistent Calculation

     iteration #  1     ecut=    30.00 Ry     beta=0.70
     Davidson diagonalization with overlap
     ethr =  1.00E-06,  avg # of iterations =  6.0

     negative rho (up, down):  7.544E-02 0.000E+00

     total cpu time spent up to now is        2.7 secs

     total energy              =     -70.10290348 Ry
     Harris-Foulkes estimate   =     -70.21845800 Ry
     estimated scf accuracy    <       0.05282747 Ry

     iteration #  2     ecut=    30.00 Ry     beta=0.70
     Davidson diagonalization with overlap
     ethr =  3.30E-04,  avg # of iterations =  2.0

     negative rho (up, down):  6.789E-02 0.000E+00

     total cpu time spent up to now is        2.8 secs

     total energy              =     -70.04926970 Ry
     Harris-Foulkes estimate   =     -70.26796874 Ry
     estimated scf accuracy    <       1.43025259 Ry

     iteration #  3     ecut=    30.00 Ry     beta=0.70
     Davidson diagonalization with overlap
     ethr =  3.30E-04,  avg # of iterations =  2.0

     negative rho (up, down):  4.179E-02 0.000E+00

     total cpu time spent up to now is        2.9 secs

     total energy              =     -70.14242086 Ry
     Harris-Foulkes estimate   =     -70.13525485 Ry
     estimated scf accuracy    <       0.02737957 Ry

     iteration #  4     ecut=    30.00 Ry     beta=0.70
     Davidson diagonalization with overlap
     ethr =  1.71E-04,  avg # of iterations =  2.0

     negative rho (up, down):  2.121E-02 0.000E+00

     total cpu time spent up to now is        3.0 secs

     total energy              =     -70.05443459 Ry
     Harris-Foulkes estimate   =     -70.20611758 Ry
     estimated scf accuracy    <       4.18017651 Ry

     iteration #  5     ecut=    30.00 Ry     beta=0.70
     Davidson diagonalization with overlap
     ethr =  1.71E-04,  avg # of iterations =  2.0

     negative rho (up, down):  7.349E-03 0.000E+00

     total cpu time spent up to now is        3.1 secs

     total energy              =     -70.18409945 Ry
     Harris-Foulkes estimate   =     -70.17132909 Ry
     estimated scf accuracy    <       0.01274312 Ry

     iteration #  6     ecut=    30.00 Ry     beta=0.70
     Davidson diagonalization with overlap
     ethr =  7.96E-05,  avg # of iterations =  1.0

     negative rho (up, down):  2.145E-03 0.000E+00

     total cpu time spent up to now is        3.2 secs

     total energy              =     -70.18918074 Ry
     Harris-Foulkes estimate   =     -70.18434276 Ry
     estimated scf accuracy    <       0.00734349 Ry

     iteration #  7     ecut=    30.00 Ry     beta=0.70
     Davidson diagonalization with overlap
     ethr =  4.59E-05,  avg # of iterations =  1.0

     negative rho (up, down):  4.997E-04 0.000E+00

     total cpu time spent up to now is        3.3 secs

     total energy              =     -70.19013994 Ry
     Harris-Foulkes estimate   =     -70.18924707 Ry
     estimated scf accuracy    <       0.00483212 Ry

     iteration #  8     ecut=    30.00 Ry     beta=0.70
     Davidson diagonalization with overlap
     ethr =  3.02E-05,  avg # of iterations =  1.0

     negative rho (up, down):  2.768E-04 0.000E+00

     total cpu time spent up to now is        3.4 secs

     total energy              =     -70.19008656 Ry
     Harris-Foulkes estimate   =     -70.19016344 Ry
     estimated scf accuracy    <       0.00296761 Ry

     iteration #  9     ecut=    30.00 Ry     beta=0.70
     Davidson diagonalization with overlap
     ethr =  1.85E-05,  avg # of iterations =  1.0

     negative rho (up, down):  1.014E-04 0.000E+00

     total cpu time spent up to now is        3.5 secs

     total energy              =     -70.19002699 Ry
     Harris-Foulkes estimate   =     -70.19009868 Ry
     estimated scf accuracy    <       0.00174490 Ry

     iteration # 10     ecut=    30.00 Ry     beta=0.70
     Davidson diagonalization with overlap
     ethr =  1.09E-05,  avg # of iterations =  1.0

     negative rho (up, down):  1.060E-05 0.000E+00

     total cpu time spent up to now is        3.6 secs

     total energy              =     -70.18998445 Ry
     Harris-Foulkes estimate   =     -70.19004113 Ry
     estimated scf accuracy    <       0.00068334 Ry

     iteration # 11     ecut=    30.00 Ry     beta=0.70
     Davidson diagonalization with overlap
     ethr =  4.27E-06,  avg # of iterations =  1.0

     negative rho (up, down):  4.961E-07 0.000E+00

     total cpu time spent up to now is        3.7 secs

     total energy              =     -70.19001673 Ry
     Harris-Foulkes estimate   =     -70.19001362 Ry
     estimated scf accuracy    <       0.00001411 Ry

     iteration # 12     ecut=    30.00 Ry     beta=0.70
     Davidson diagonalization with overlap
     ethr =  8.82E-08,  avg # of iterations =  1.0

     negative rho (up, down):  1.026E-07 0.000E+00

     total cpu time spent up to now is        3.8 secs

     total energy              =     -70.19002251 Ry
     Harris-Foulkes estimate   =     -70.19002070 Ry
     estimated scf accuracy    <       0.00001918 Ry

     iteration # 13     ecut=    30.00 Ry     beta=0.70
     Davidson diagonalization with overlap
     ethr =  8.82E-08,  avg # of iterations =  1.0

     total cpu time spent up to now is        3.9 secs

     total energy              =     -70.19002452 Ry
     Harris-Foulkes estimate   =     -70.19002285 Ry
     estimated scf accuracy    <       0.00000799 Ry

     iteration # 14     ecut=    30.00 Ry     beta=0.70
     Davidson diagonalization with overlap
     ethr =  4.99E-08,  avg # of iterations =  1.0

     total cpu time spent up to now is        4.0 secs

     total energy              =     -70.19002495 Ry
     Harris-Foulkes estimate   =     -70.19002505 Ry
     estimated scf accuracy    <       0.00000011 Ry

     iteration # 15     ecut=    30.00 Ry     beta=0.70
     Davidson diagonalization with overlap
     ethr =  7.11E-10,  avg # of iterations =  1.0

     total cpu time spent up to now is        4.1 secs

     total energy              =     -70.19002521 Ry
     Harris-Foulkes estimate   =     -70.19002496 Ry
     estimated scf accuracy    <       0.00000001 Ry

     iteration # 16     ecut=    30.00 Ry     beta=0.70
     Davidson diagonalization with overlap
     ethr =  6.50E-11,  avg # of iterations =  2.0

     total cpu time spent up to now is        4.1 secs

     End of self-consistent calculation

          k = 0.0000 0.0000 0.0000 ( 22119 PWs)   bands (ev):

   -24.3242 -23.5922 -15.3745  -8.6831  -8.1407  -7.7919  -6.9587  -6.9229
    -6.8045  -6.2185  -6.1718  -4.4402

     the Fermi energy is    -6.7721 ev

!    total energy              =     -70.19002561 Ry
     Harris-Foulkes estimate   =     -70.19002521 Ry
     estimated scf accuracy    <          1.7E-09 Ry

     convergence has been achieved in  16 iterations

     Forces acting on atoms (Ry/au):

     atom    1 type  1   force =     0.17536200    0.17619064    0.01030673
     atom    2 type  2   force =     0.01754510   -0.02307112   -0.01913208
     atom    3 type  2   force =    -0.19290710   -0.15311952    0.00882535

     Total force =     0.351915     Total SCF correction =     0.001021

     Entering Dynamics:    iteration =     2
                           time      =   0.0097 pico-seconds


     Andersen thermostat:    3 collisions

ATOMIC_POSITIONS (bohr)
C        0.263535509   0.286254056  -0.024307470
O       -0.006224326   5.920094729   2.952789416
O        2.808407984   2.865035820   0.065456378


     kinetic energy (Ekin) =     0.02412145 Ry
     temperature           =  1269.49053550 K 
     Ekin + Etot (const)   =   -70.16590416 Ry
     Message from routine dynamics:
     Total linear momentum <> 0

     Linear momentum :    0.0099682641    0.6248717695    0.2630882230

     Writing output data file pwscf.save

     first order wave-functions extrapolation
     Check: negative starting charge=   -0.484100
     first order charge density extrapolation
     Check: negative starting charge=   -0.479484

     negative rho (up, down):  4.847E-01 0.000E+00

     total cpu time spent up to now is        4.5 secs

     per-process dynamical memory:    34.2 Mb

     Self-consistent Calculation

     iteration #  1     ecut=    30.00 Ry     beta=0.70
     Davidson diagonalization with overlap
     ethr =  1.00E-06,  avg # of iterations =  6.0

     negative rho (up, down):  1.315E-01 0.000E+00

     total cpu time spent up to now is        4.7 secs

     total energy              =     -70.18861187 Ry
     Harris-Foulkes estimate   =     -70.76400077 Ry
     estimated scf accuracy    <       0.08921349 Ry

     iteration #  2     ecut=    30.00 Ry     beta=0.70
     Davidson diagonalization with overlap
     ethr =  5.58E-04,  avg # of iterations =  2.0

     negative rho (up, down):  1.123E-01 0.000E+00

     total cpu time spent up to now is        4.8 secs

     total energy              =     -70.14772496 Ry
     Harris-Foulkes estimate   =     -70.34384524 Ry
     estimated scf accuracy    <       0.89905677 Ry

     iteration #  3     ecut=    30.00 Ry     beta=0.70
     Davidson diagonalization with overlap
     ethr =  5.58E-04,  avg # of iterations =  2.0

     negative rho (up, down):  8.804E-02 0.000E+00

     total cpu time spent up to now is        4.8 secs

     total energy              =     -70.20551892 Ry
     Harris-Foulkes estimate   =     -70.24971678 Ry
     estimated scf accuracy    <       0.24347913 Ry

     iteration #  4     ecut=    30.00 Ry     beta=0.70
     Davidson diagonalization with overlap
     ethr =  5.58E-04,  avg # of iterations =  2.0

     negative rho (up, down):  2.515E-02 0.000E+00

     total cpu time spent up to now is        4.9 secs

     total energy              =     -70.26218938 Ry
     Harris-Foulkes estimate   =     -70.25781506 Ry
     estimated scf accuracy    <       0.26835670 Ry

     iteration #  5     ecut=    30.00 Ry     beta=0.70
     Davidson diagonalization with overlap
     ethr =  5.58E-04,  avg # of iterations =  1.0

     negative rho (up, down):  1.354E-02 0.000E+00

     total cpu time spent up to now is        5.1 secs

     total energy              =     -70.29997412 Ry
     Harris-Foulkes estimate   =     -70.29193845 Ry
     estimated scf accuracy    <       0.02994001 Ry

     iteration #  6     ecut=    30.00 Ry     beta=0.70
     Davidson diagonalization with overlap
     ethr =  1.87E-04,  avg # of iterations =  1.0

     negative rho (up, down):  6.124E-03 0.000E+00

     total cpu time spent up to now is        5.1 secs

     total energy              =     -70.30779355 Ry
     Harris-Foulkes estimate   =     -70.30107555 Ry
     estimated scf accuracy    <       0.00424833 Ry

     iteration #  7     ecut=    30.00 Ry     beta=0.70
     Davidson diagonalization with overlap
     ethr =  2.66E-05,  avg # of iterations =  1.0

     negative rho (up, down):  1.708E-03 0.000E+00

     total cpu time spent up to now is        5.2 secs

     total energy              =     -70.31231064 Ry
     Harris-Foulkes estimate   =     -70.30801707 Ry
     estimated scf accuracy    <       0.00028954 Ry

     iteration #  8     ecut=    30.00 Ry     beta=0.70
     Davidson diagonalization with overlap
     ethr =  1.81E-06,  avg # of iterations =  3.0

     negative rho (up, down):  1.571E-04 0.000E+00

     total cpu time spent up to now is        5.3 secs

     total energy              =     -70.31295072 Ry
     Harris-Foulkes estimate   =     -70.31234533 Ry
     estimated scf accuracy    <       0.00020065 Ry

     iteration #  9     ecut=    30.00 Ry     beta=0.70
     Davidson diagonalization with overlap
     ethr =  1.25E-06,  avg # of iterations =  1.0

     negative rho (up, down):  2.922E-06 0.000E+00

     total cpu time spent up to now is        5.4 secs

     total energy              =     -70.31297200 Ry
     Harris-Foulkes estimate   =     -70.31296210 Ry
     estimated scf accuracy    <       0.00005398 Ry

     iteration # 10     ecut=    30.00 Ry     beta=0.70
     Davidson diagonalization with overlap
     ethr =  3.37E-07,  avg # of iterations =  1.0

     negative rho (up, down):  1.428E-07 0.000E+00

     total cpu time spent up to now is        5.5 secs

     total energy              =     -70.31297903 Ry
     Harris-Foulkes estimate   =     -70.31297538 Ry
     estimated scf accuracy    <       0.00000203 Ry

     iteration # 11     ecut=    30.00 Ry     beta=0.70
     Davidson diagonalization with overlap
     ethr =  1.27E-08,  avg # of iterations =  2.0

     total cpu time spent up to now is        5.6 secs

     total energy              =     -70.31298227 Ry
     Harris-Foulkes estimate   =     -70.31297927 Ry
     estimated scf accuracy    <       0.00000046 Ry

     iteration # 12     ecut=    30.00 Ry     beta=0.70
     Davidson diagonalization with overlap
     ethr =  2.87E-09,  avg # of iterations =  2.0

     total cpu time spent up to now is        5.7 secs

     total energy              =     -70.31298282 Ry
     Harris-Foulkes estimate   =     -70.31298234 Ry
     estimated scf accuracy    <       0.00000002 Ry

     iteration # 13     ecut=    30.00 Ry     beta=0.70
     Davidson diagonalization with overlap
     ethr =  1.49E-10,  avg # of iterations =  2.0

     total cpu time spent up to now is        5.7 secs

     End of self-consistent calculation

          k = 0.0000 0.0000 0.0000 ( 22119 PWs)   bands (ev):

   -24.6904 -23.6239 -15.2405  -9.0982  -8.4592  -8.1479  -6.9801  -6.9553
    -6.8448  -5.8148  -5.7680  -3.1071

     the Fermi energy is    -6.8029 ev

!    total energy              =     -70.31298286 Ry
     Harris-Foulkes estimate   =     -70.31298282 Ry
     estimated scf accuracy    <          2.4E-09 Ry

     convergence has been achieved in  13 iterations

     Forces acting on atoms (Ry/au):

     atom    1 type  1   force =     0.23582963    0.24250338    0.00969519
     atom    2 type  2   force =     0.01602589   -0.02165675   -0.01982401
     atom    3 type  2   force =    -0.25185552   -0.22084663    0.01012882

     Total force =     0.477434     Total SCF correction =     0.000373

     Entering Dynamics:    iteration =     3
                           time      =   0.0145 pico-seconds


     Andersen thermostat:    3 collisions

ATOMIC_POSITIONS (bohr)
C        0.502871321   0.457531945  -0.009813923
O       -0.002462897   5.958505878   3.005635295
O        2.624995111   2.698059205   0.001731281


     kinetic energy (Ekin) =     0.03547494 Ry
     temperature           =  1867.01450737 K 
     Ekin + Etot (const)   =   -70.27750792 Ry
     Message from routine dynamics:
     Total linear momentum <> 0

     Linear momentum :    0.6206880666   -0.5661107306    0.1037059723

     Writing output data file pwscf.save

     second order wave-functions extrapolation
     Check: negative starting charge=   -0.479484
     second order charge density extrapolation
     Check: negative starting charge=   -0.485760

     negative rho (up, down):  7.063E-01 0.000E+00

     total cpu time spent up to now is        6.1 secs

     per-process dynamical memory:    34.2 Mb

     Self-consistent Calculation

     iteration #  1     ecut=    30.00 Ry     beta=0.70
     Davidson diagonalization with overlap
     ethr =  1.00E-06,  avg # of iterations = 20.0

     negative rho (up, down):  1.870E-01 0.000E+00

     total cpu time spent up to now is        6.4 secs

     total energy              =     -62.99883903 Ry
     Harris-Foulkes estimate   =     -73.21630592 Ry
     estimated scf accuracy    <       4.43384134 Ry

     iteration #  2     ecut=    30.00 Ry     beta=0.70
     Davidson diagonalization with overlap
     ethr =  1.00E-02,  avg # of iterations =  4.0

     negative rho (up, down):  1.364E-01 0.000E+00

     total cpu time spent up to now is        6.5 secs

     total energy              =     -69.84722893 Ry
     Harris-Foulkes estimate   =     -76.48069037 Ry
     estimated scf accuracy    <      18.38688230 Ry

     iteration #  3     ecut=    30.00 Ry     beta=0.70
     Davidson diagonalization with overlap
     ethr =  1.00E-02,  avg # of iterations =  4.0

     negative rho (up, down):  1.228E-01 0.000E+00

     total cpu time spent up to now is        6.6 secs

     total energy              =     -70.29109117 Ry
     Harris-Foulkes estimate   =     -71.73613485 Ry
     estimated scf accuracy    <       6.97928644 Ry

     iteration #  4     ecut=    30.00 Ry     beta=0.70
     Davidson diagonalization with overlap
     ethr =  1.00E-02,  avg # of iterations =  2.0

     negative rho (up, down):  9.191E-02 0.000E+00

     total cpu time spent up to now is        6.7 secs

     total energy              =     -70.09153988 Ry
     Harris-Foulkes estimate   =     -70.81565065 Ry
     estimated scf accuracy    <       3.11843021 Ry

     iteration #  5     ecut=    30.00 Ry     beta=0.70
     Davidson diagonalization with overlap
     ethr =  1.00E-02,  avg # of iterations =  1.0

     negative rho (up, down):  8.263E-02 0.000E+00

     total cpu time spent up to now is        6.8 secs

     total energy              =     -70.00380629 Ry
     Harris-Foulkes estimate   =     -70.66469630 Ry
     estimated scf accuracy    <       5.34062665 Ry

     iteration #  6     ecut=    30.00 Ry     beta=0.70
     Davidson diagonalization with overlap
     ethr =  1.00E-02,  avg # of iterations =  1.0

     negative rho (up, down):  6.852E-02 0.000E+00

     total cpu time spent up to now is        6.9 secs

     total energy              =     -70.51656539 Ry
     Harris-Foulkes estimate   =     -70.53169296 Ry
     estimated scf accuracy    <       0.26471765 Ry

     iteration #  7     ecut=    30.00 Ry     beta=0.70
     Davidson diagonalization with overlap
     ethr =  1.65E-03,  avg # of iterations =  3.0

     negative rho (up, down):  4.614E-02 0.000E+00

     total cpu time spent up to now is        7.0 secs

     total energy              =     -70.42803060 Ry
     Harris-Foulkes estimate   =     -70.55652142 Ry
     estimated scf accuracy    <       2.28232320 Ry

     iteration #  8     ecut=    30.00 Ry     beta=0.70
     Davidson diagonalization with overlap
     ethr =  1.65E-03,  avg # of iterations =  1.0

     negative rho (up, down):  3.906E-02 0.000E+00

     total cpu time spent up to now is        7.1 secs

     total energy              =     -70.47874065 Ry
     Harris-Foulkes estimate   =     -70.48277078 Ry
     estimated scf accuracy    <       0.14832359 Ry

     iteration #  9     ecut=    30.00 Ry     beta=0.70
     Davidson diagonalization with overlap
     ethr =  9.27E-04,  avg # of iterations =  1.0

     negative rho (up, down):  2.235E-02 0.000E+00

     total cpu time spent up to now is        7.3 secs

     total energy              =     -70.47076945 Ry
     Harris-Foulkes estimate   =     -70.47970785 Ry
     estimated scf accuracy    <       0.12401862 Ry

     iteration # 10     ecut=    30.00 Ry     beta=0.70
     Davidson diagonalization with overlap
     ethr =  7.75E-04,  avg # of iterations =  1.0

     negative rho (up, down):  5.251E-04 0.000E+00

     total cpu time spent up to now is        7.4 secs

     total energy              =     -70.49068512 Ry
     Harris-Foulkes estimate   =     -70.47526562 Ry
     estimated scf accuracy    <       0.03363698 Ry

     iteration # 11     ecut=    30.00 Ry     beta=0.70
     Davidson diagonalization with overlap
     ethr =  2.10E-04,  avg # of iterations =  9.0

     negative rho (up, down):  3.605E-04 0.000E+00

     total cpu time spent up to now is        7.5 secs

     total energy              =     -70.49298197 Ry
     Harris-Foulkes estimate   =     -70.49545122 Ry
     estimated scf accuracy    <       0.02540364 Ry

     iteration # 12     ecut=    30.00 Ry     beta=0.70
     Davidson diagonalization with overlap
     ethr =  1.59E-04,  avg # of iterations =  1.0

     negative rho (up, down):  1.510E-05 0.000E+00

     total cpu time spent up to now is        7.6 secs

     total energy              =     -70.49633355 Ry
     Harris-Foulkes estimate   =     -70.49388171 Ry
     estimated scf accuracy    <       0.00741970 Ry

     iteration # 13     ecut=    30.00 Ry     beta=0.70
     Davidson diagonalization with overlap
     ethr =  4.64E-05,  avg # of iterations =  3.0

     negative rho (up, down):  8.395E-07 0.000E+00

     total cpu time spent up to now is        7.7 secs

     total energy              =     -70.49883651 Ry
     Harris-Foulkes estimate   =     -70.49800688 Ry
     estimated scf accuracy    <       0.01859666 Ry

     iteration # 14     ecut=    30.00 Ry     beta=0.70
     Davidson diagonalization with overlap
     ethr =  4.64E-05,  avg # of iterations =  1.0

     negative rho (up, down):  2.276E-06 0.000E+00

     total cpu time spent up to now is        7.8 secs

     total energy              =     -70.49683348 Ry
     Harris-Foulkes estimate   =     -70.49893637 Ry
     estimated scf accuracy    <       0.02159045 Ry

     iteration # 15     ecut=    30.00 Ry     beta=0.70
     Davidson diagonalization with overlap
     ethr =  4.64E-05,  avg # of iterations =  1.0

     negative rho (up, down):  2.610E-07 0.000E+00

     total cpu time spent up to now is        7.9 secs

     total energy              =     -70.49692378 Ry
     Harris-Foulkes estimate   =     -70.49719841 Ry
     estimated scf accuracy    <       0.01896351 Ry

     iteration # 16     ecut=    30.00 Ry     beta=0.70
     Davidson diagonalization with overlap
     ethr =  4.64E-05,  avg # of iterations =  1.0

     negative rho (up, down):  9.606E-06 0.000E+00

     total cpu time spent up to now is        8.0 secs

     total energy              =     -70.49251594 Ry
     Harris-Foulkes estimate   =     -70.49698396 Ry
     estimated scf accuracy    <       0.01642470 Ry

     iteration # 17     ecut=    30.00 Ry     beta=0.70
     Davidson diagonalization with overlap
     ethr =  4.64E-05,  avg # of iterations =  1.0

     negative rho (up, down):  8.024E-07 0.000E+00

     total cpu time spent up to now is        8.1 secs

     total energy              =     -70.49257278 Ry
     Harris-Foulkes estimate   =     -70.49350242 Ry
     estimated scf accuracy    <       0.00430564 Ry

     iteration # 18     ecut=    30.00 Ry     beta=0.70
     Davidson diagonalization with overlap
     ethr =  2.69E-05,  avg # of iterations =  1.0

     total cpu time spent up to now is        8.2 secs

     total energy              =     -70.49221234 Ry
     Harris-Foulkes estimate   =     -70.49288725 Ry
     estimated scf accuracy    <       0.00186171 Ry

     iteration # 19     ecut=    30.00 Ry     beta=0.70
     Davidson diagonalization with overlap
     ethr =  1.16E-05,  avg # of iterations =  4.0

     total cpu time spent up to now is        8.3 secs

     total energy              =     -70.49251140 Ry
     Harris-Foulkes estimate   =     -70.49266368 Ry
     estimated scf accuracy    <       0.00050674 Ry

     iteration # 20     ecut=    30.00 Ry     beta=0.70
     Davidson diagonalization with overlap
     ethr =  3.17E-06,  avg # of iterations =  3.0

     total cpu time spent up to now is        8.4 secs

     total energy              =     -70.49259227 Ry
     Harris-Foulkes estimate   =     -70.49260478 Ry
     estimated scf accuracy    <       0.00005894 Ry

     iteration # 21     ecut=    30.00 Ry     beta=0.70
     Davidson diagonalization with overlap
     ethr =  3.68E-07,  avg # of iterations =  1.0

     total cpu time spent up to now is        8.5 secs

     total energy              =     -70.49259637 Ry
     Harris-Foulkes estimate   =     -70.49259877 Ry
     estimated scf accuracy    <       0.00001321 Ry

     iteration # 22     ecut=    30.00 Ry     beta=0.70
     Davidson diagonalization with overlap
     ethr =  8.26E-08,  avg # of iterations =  1.0

     total cpu time spent up to now is        8.6 secs

     total energy              =     -70.49259646 Ry
     Harris-Foulkes estimate   =     -70.49259726 Ry
     estimated scf accuracy    <       0.00000147 Ry

     iteration # 23     ecut=    30.00 Ry     beta=0.70
     Davidson diagonalization with overlap
     ethr =  9.18E-09,  avg # of iterations =  1.0

     total cpu time spent up to now is        8.6 secs

     total energy              =     -70.49259670 Ry
     Harris-Foulkes estimate   =     -70.49259673 Ry
     estimated scf accuracy    <       0.00000007 Ry

     iteration # 24     ecut=    30.00 Ry     beta=0.70
     Davidson diagonalization with overlap
     ethr =  4.49E-10,  avg # of iterations =  2.0

     total cpu time spent up to now is        8.7 secs

     total energy              =     -70.49259669 Ry
     Harris-Foulkes estimate   =     -70.49259670 Ry
     estimated scf accuracy    <       0.00000002 Ry

     iteration # 25     ecut=    30.00 Ry     beta=0.70
     Davidson diagonalization with overlap
     ethr =  1.23E-10,  avg # of iterations =  1.0

     total cpu time spent up to now is        8.8 secs

     End of self-consistent calculation

          k = 0.0000 0.0000 0.0000 ( 22119 PWs)   bands (ev):

   -25.5950 -24.0067 -14.8365  -9.2555  -9.0085  -8.8086  -7.3373  -7.3271
    -7.2524  -4.7822  -4.7642  -0.5274

     the Fermi energy is    -7.1822 ev

!    total energy              =     -70.49259670 Ry
     Harris-Foulkes estimate   =     -70.49259669 Ry
     estimated scf accuracy    <          1.3E-09 Ry

     convergence has been achieved in  25 iterations

     Forces acting on atoms (Ry/au):

     atom    1 type  1   force =     0.24531397    0.26134384    0.00262753
     atom    2 type  2   force =     0.00452054   -0.00703506   -0.00686388
     atom    3 type  2   force =    -0.24983451   -0.25430878    0.00423635

     Total force =     0.505679     Total SCF correction =     0.000061

     Entering Dynamics:    iteration =     4
                           time      =   0.0194 pico-seconds


     Andersen thermostat:    3 collisions

ATOMIC_POSITIONS (bohr)
C        0.698589133   0.660458365   0.002452343
O       -0.080059282   5.868947145   2.990868635
O        2.555680814   2.635296295   0.007290575


     kinetic energy (Ekin) =     0.02319512 Ry
     temperature           =  1220.73841886 K 
     Ekin + Etot (const)   =   -70.46940158 Ry
     Message from routine dynamics:
     Total linear momentum <> 0

     Linear momentum :    0.7173911332    0.2837720507   -0.5750364844

     Writing output data file pwscf.save

     second order wave-functions extrapolation
     Check: negative starting charge=   -0.485760
     second order charge density extrapolation
     Check: negative starting charge=   -0.484880

     negative rho (up, down):  4.950E-01 0.000E+00

     total cpu time spent up to now is        9.1 secs

     per-process dynamical memory:    34.2 Mb

     Self-consistent Calculation

     iteration #  1     ecut=    30.00 Ry     beta=0.70
     Davidson diagonalization with overlap
     ethr =  1.00E-06,  avg # of iterations = 17.0

     negative rho (up, down):  1.354E-01 0.000E+00

     total cpu time spent up to now is        9.3 secs

     total energy              =     -70.52456862 Ry
     Harris-Foulkes estimate   =     -71.20690040 Ry
     estimated scf accuracy    <       0.07956087 Ry

     iteration #  2     ecut=    30.00 Ry     beta=0.70
     Davidson diagonalization with overlap
     ethr =  4.97E-04,  avg # of iterations =  3.0

     negative rho (up, down):  9.434E-02 0.000E+00

     total cpu time spent up to now is        9.4 secs

     total energy              =     -70.55688859 Ry
     Harris-Foulkes estimate   =     -70.59675729 Ry
     estimated scf accuracy    <       0.15580981 Ry

     iteration #  3     ecut=    30.00 Ry     beta=0.70
     Davidson diagonalization with overlap
     ethr =  4.97E-04,  avg # of iterations =  2.0

     negative rho (up, down):  4.480E-02 0.000E+00

     total cpu time spent up to now is        9.5 secs

     total energy              =     -70.60214771 Ry
     Harris-Foulkes estimate   =     -70.57962162 Ry
     estimated scf accuracy    <       0.01432419 Ry

     iteration #  4     ecut=    30.00 Ry     beta=0.70
     Davidson diagonalization with overlap
     ethr =  8.95E-05,  avg # of iterations =  3.0

     negative rho (up, down):  2.034E-02 0.000E+00

     total cpu time spent up to now is        9.6 secs

     total energy              =     -70.62681968 Ry
     Harris-Foulkes estimate   =     -70.61089524 Ry
     estimated scf accuracy    <       0.02458020 Ry

     iteration #  5     ecut=    30.00 Ry     beta=0.70
     Davidson diagonalization with overlap
     ethr =  8.95E-05,  avg # of iterations =  1.0

     negative rho (up, down):  4.570E-03 0.000E+00

     total cpu time spent up to now is        9.7 secs

     total energy              =     -70.64424883 Ry
     Harris-Foulkes estimate   =     -70.62933874 Ry
     estimated scf accuracy    <       0.00076239 Ry

     iteration #  6     ecut=    30.00 Ry     beta=0.70
     Davidson diagonalization with overlap
     ethr =  4.76E-06,  avg # of iterations =  6.0

     negative rho (up, down):  8.865E-05 0.000E+00

     total cpu time spent up to now is        9.8 secs

     total energy              =     -70.64777994 Ry
     Harris-Foulkes estimate   =     -70.64455880 Ry
     estimated scf accuracy    <       0.00008645 Ry

     iteration #  7     ecut=    30.00 Ry     beta=0.70
     Davidson diagonalization with overlap
     ethr =  5.40E-07,  avg # of iterations =  8.0

     negative rho (up, down):  4.849E-06 0.000E+00

     total cpu time spent up to now is        9.9 secs

     total energy              =     -70.64779769 Ry
     Harris-Foulkes estimate   =     -70.64780203 Ry
     estimated scf accuracy    <       0.00001304 Ry

     iteration #  8     ecut=    30.00 Ry     beta=0.70
     Davidson diagonalization with overlap
     ethr =  8.15E-08,  avg # of iterations =  2.0

     negative rho (up, down):  9.360E-08 0.000E+00

     total cpu time spent up to now is       10.0 secs

     total energy              =     -70.64779831 Ry
     Harris-Foulkes estimate   =     -70.64780011 Ry
     estimated scf accuracy    <       0.00000426 Ry

     iteration #  9     ecut=    30.00 Ry     beta=0.70
     Davidson diagonalization with overlap
     ethr =  2.66E-08,  avg # of iterations =  1.0

     total cpu time spent up to now is       10.1 secs

     total energy              =     -70.64779806 Ry
     Harris-Foulkes estimate   =     -70.64779888 Ry
     estimated scf accuracy    <       0.00000073 Ry

     iteration # 10     ecut=    30.00 Ry     beta=0.70
     Davidson diagonalization with overlap
     ethr =  4.55E-09,  avg # of iterations =  2.0

     total cpu time spent up to now is       10.2 secs

     total energy              =     -70.64779814 Ry
     Harris-Foulkes estimate   =     -70.64779817 Ry
     estimated scf accuracy    <       0.00000005 Ry

     iteration # 11     ecut=    30.00 Ry     beta=0.70
     Davidson diagonalization with overlap
     ethr =  2.96E-10,  avg # of iterations =  2.0

     total cpu time spent up to now is       10.2 secs

     total energy              =     -70.64779781 Ry
     Harris-Foulkes estimate   =     -70.64779815 Ry
     estimated scf accuracy    <       0.00000001 Ry

     iteration # 12     ecut=    30.00 Ry     beta=0.70
     Davidson diagonalization with overlap
     ethr =  6.76E-11,  avg # of iterations =  2.0

     total cpu time spent up to now is       10.3 secs

     End of self-consistent calculation

          k = 0.0000 0.0000 0.0000 ( 22119 PWs)   bands (ev):

   -26.9289 -24.3268 -14.6254  -9.7330  -9.5675  -9.1195  -7.6356  -7.6288
    -7.5650  -3.6903  -3.6793  -0.2331

     the Fermi energy is    -7.4864 ev

!    total energy              =     -70.64779761 Ry
     Harris-Foulkes estimate   =     -70.64779782 Ry
     estimated scf accuracy    <          5.2E-10 Ry

     convergence has been achieved in  12 iterations

     Forces acting on atoms (Ry/au):

     atom    1 type  1   force =     0.30577679    0.32609695    0.00190082
     atom    2 type  2   force =     0.00075343   -0.00347832   -0.00386287
     atom    3 type  2   force =    -0.30653022   -0.32261863    0.00196205

     Total force =     0.630807     Total SCF correction =     0.000653

     Entering Dynamics:    iteration =     5
                           time      =   0.0242 pico-seconds


     Andersen thermostat:    3 collisions

ATOMIC_POSITIONS (bohr)
C        0.956445569   1.009835204   0.103697339
O       -0.184608029   5.886715041   2.930764113
O        2.466676073   2.355277409  -0.008601928


     kinetic energy (Ekin) =     0.06825203 Ry
     temperature           =  3592.04369910 K 
     Ekin + Etot (const)   =   -70.57954557 Ry
     Message from routine dynamics:
     Total linear momentum <> 0

     Linear momentum :   -0.1366492490    0.3654544518   -0.2203315298

     Writing output data file pwscf.save

     second order wave-functions extrapolation
     Check: negative starting charge=   -0.484880
     second order charge density extrapolation
     Check: negative starting charge=   -0.493700

     negative rho (up, down):  8.026E-01 0.000E+00

     total cpu time spent up to now is       10.6 secs

     per-process dynamical memory:    34.2 Mb

     Self-consistent Calculation

     iteration #  1     ecut=    30.00 Ry     beta=0.70
     Davidson diagonalization with overlap
     ethr =  1.00E-06,  avg # of iterations = 18.0

     negative rho (up, down):  2.189E-01 0.000E+00

     total cpu time spent up to now is       10.9 secs

     total energy              =     -61.37522012 Ry
     Harris-Foulkes estimate   =     -74.09848034 Ry
     estimated scf accuracy    <       4.73105926 Ry

     iteration #  2     ecut=    30.00 Ry     beta=0.70
     Davidson diagonalization with overlap
     ethr =  1.00E-02,  avg # of iterations =  5.0

     negative rho (up, down):  1.584E-01 0.000E+00

     total cpu time spent up to now is       11.0 secs

     total energy              =     -70.54910524 Ry
     Harris-Foulkes estimate   =     -75.54868713 Ry
     estimated scf accuracy    <      12.03710092 Ry

     iteration #  3     ecut=    30.00 Ry     beta=0.70
     Davidson diagonalization with overlap
     ethr =  1.00E-02,  avg # of iterations =  2.0

     negative rho (up, down):  1.128E-01 0.000E+00

     total cpu time spent up to now is       11.1 secs

     total energy              =     -70.79274619 Ry
     Harris-Foulkes estimate   =     -71.19050745 Ry
     estimated scf accuracy    <       1.16888624 Ry

     iteration #  4     ecut=    30.00 Ry     beta=0.70
     Davidson diagonalization with overlap
     ethr =  7.31E-03,  avg # of iterations =  1.0

     negative rho (up, down):  1.044E-01 0.000E+00

     total cpu time spent up to now is       11.2 secs

     total energy              =     -70.79305685 Ry
     Harris-Foulkes estimate   =     -71.10554685 Ry
     estimated scf accuracy    <       4.46452996 Ry

     iteration #  5     ecut=    30.00 Ry     beta=0.70
     Davidson diagonalization with overlap
     ethr =  7.31E-03,  avg # of iterations =  1.0

     negative rho (up, down):  7.820E-02 0.000E+00

     total cpu time spent up to now is       11.3 secs

     total energy              =     -70.60092852 Ry
     Harris-Foulkes estimate   =     -70.81725044 Ry
     estimated scf accuracy    <       1.70591858 Ry

     iteration #  6     ecut=    30.00 Ry     beta=0.70
     Davidson diagonalization with overlap
     ethr =  7.31E-03,  avg # of iterations =  1.0

     negative rho (up, down):  4.972E-02 0.000E+00

     total cpu time spent up to now is       11.4 secs

     total energy              =     -70.63541786 Ry
     Harris-Foulkes estimate   =     -70.70046001 Ry
     estimated scf accuracy    <       0.27766680 Ry

     iteration #  7     ecut=    30.00 Ry     beta=0.70
     Davidson diagonalization with overlap
     ethr =  1.74E-03,  avg # of iterations =  3.0

     negative rho (up, down):  2.919E-02 0.000E+00

     total cpu time spent up to now is       11.5 secs

     total energy              =     -70.62179311 Ry
     Harris-Foulkes estimate   =     -70.63890858 Ry
     estimated scf accuracy    <       0.13152814 Ry

     iteration #  8     ecut=    30.00 Ry     beta=0.70
     Davidson diagonalization with overlap
     ethr =  8.22E-04,  avg # of iterations =  3.0

     negative rho (up, down):  7.882E-03 0.000E+00

     total cpu time spent up to now is       11.5 secs

     total energy              =     -70.63230598 Ry
     Harris-Foulkes estimate   =     -70.62438978 Ry
     estimated scf accuracy    <       0.05096162 Ry

     iteration #  9     ecut=    30.00 Ry     beta=0.70
     Davidson diagonalization with overlap
     ethr =  3.19E-04,  avg # of iterations =  4.0

     negative rho (up, down):  5.879E-03 0.000E+00

     total cpu time spent up to now is       11.6 secs

     total energy              =     -70.63726527 Ry
     Harris-Foulkes estimate   =     -70.63504654 Ry
     estimated scf accuracy    <       0.00584147 Ry

     iteration # 10     ecut=    30.00 Ry     beta=0.70
     Davidson diagonalization with overlap
     ethr =  3.65E-05,  avg # of iterations =  4.0

     negative rho (up, down):  5.961E-06 0.000E+00

     total cpu time spent up to now is       11.7 secs

     total energy              =     -70.64414461 Ry
     Harris-Foulkes estimate   =     -70.63753562 Ry
     estimated scf accuracy    <       0.00363783 Ry

     iteration # 11     ecut=    30.00 Ry     beta=0.70
     Davidson diagonalization with overlap
     ethr =  2.27E-05,  avg # of iterations =  5.0

     total cpu time spent up to now is       11.8 secs

     total energy              =     -70.64448129 Ry
     Harris-Foulkes estimate   =     -70.64443894 Ry
     estimated scf accuracy    <       0.00054933 Ry

     iteration # 12     ecut=    30.00 Ry     beta=0.70
     Davidson diagonalization with overlap
     ethr =  3.43E-06,  avg # of iterations =  2.0

     total cpu time spent up to now is       11.9 secs

     total energy              =     -70.64447520 Ry
     Harris-Foulkes estimate   =     -70.64452456 Ry
     estimated scf accuracy    <       0.00053224 Ry

     iteration # 13     ecut=    30.00 Ry     beta=0.70
     Davidson diagonalization with overlap
     ethr =  3.33E-06,  avg # of iterations =  1.0

     total cpu time spent up to now is       12.0 secs

     total energy              =     -70.64441709 Ry
     Harris-Foulkes estimate   =     -70.64448551 Ry
     estimated scf accuracy    <       0.00035029 Ry

     iteration # 14     ecut=    30.00 Ry     beta=0.70
     Davidson diagonalization with overlap
     ethr =  2.19E-06,  avg # of iterations =  1.0

     total cpu time spent up to now is       12.1 secs

     total energy              =     -70.64433771 Ry
     Harris-Foulkes estimate   =     -70.64442503 Ry
     estimated scf accuracy    <       0.00016985 Ry

     iteration # 15     ecut=    30.00 Ry     beta=0.70
     Davidson diagonalization with overlap
     ethr =  1.06E-06,  avg # of iterations =  2.0

     total cpu time spent up to now is       12.3 secs

     total energy              =     -70.64436587 Ry
     Harris-Foulkes estimate   =     -70.64436633 Ry
     estimated scf accuracy    <       0.00001051 Ry

     iteration # 16     ecut=    30.00 Ry     beta=0.70
     Davidson diagonalization with overlap
     ethr =  6.57E-08,  avg # of iterations =  1.0

     total cpu time spent up to now is       12.4 secs

     total energy              =     -70.64436714 Ry
     Harris-Foulkes estimate   =     -70.64436730 Ry
     estimated scf accuracy    <       0.00000242 Ry

     iteration # 17     ecut=    30.00 Ry     beta=0.70
     Davidson diagonalization with overlap
     ethr =  1.51E-08,  avg # of iterations =  1.0

     total cpu time spent up to now is       12.4 secs

     total energy              =     -70.64436740 Ry
     Harris-Foulkes estimate   =     -70.64436759 Ry
     estimated scf accuracy    <       0.00000108 Ry

     iteration # 18     ecut=    30.00 Ry     beta=0.70
     Davidson diagonalization with overlap
     ethr =  6.74E-09,  avg # of iterations =  1.0

     total cpu time spent up to now is       12.5 secs

     total energy              =     -70.64436744 Ry
     Harris-Foulkes estimate   =     -70.64436749 Ry
     estimated scf accuracy    <       0.00000001 Ry

     iteration # 19     ecut=    30.00 Ry     beta=0.70
     Davidson diagonalization with overlap
     ethr =  8.52E-11,  avg # of iterations =  2.0

     total cpu time spent up to now is       12.6 secs

     End of self-consistent calculation

          k = 0.0000 0.0000 0.0000 ( 22119 PWs)   bands (ev):

   -30.9965 -24.5639 -14.1447 -12.0999 -12.0582  -8.6167  -7.8747  -7.8741
    -7.8330  -0.7758  -0.7532  -0.2104

     the Fermi energy is    -7.7387 ev

!    total energy              =     -70.64436747 Ry
     Harris-Foulkes estimate   =     -70.64436744 Ry
     estimated scf accuracy    <          2.5E-09 Ry

     convergence has been achieved in  19 iterations

     Forces acting on atoms (Ry/au):

     atom    1 type  1   force =    -0.68179484   -0.60415962    0.04961516
     atom    2 type  2   force =    -0.00119488    0.00070966    0.00155511
     atom    3 type  2   force =     0.68298972    0.60344996   -0.05117027

     Total force =     1.290567     Total SCF correction =     0.000135

     Entering Dynamics:    iteration =     6
                           time      =   0.0290 pico-seconds


     Andersen thermostat:    3 collisions

ATOMIC_POSITIONS (bohr)
C        0.351119756   0.339732903   0.110061599
O       -0.252937160   5.885475656   3.017250544
O        2.989377893   2.859512334  -0.099865532


     kinetic energy (Ekin) =     0.27228938 Ry
     temperature           = 14330.34721135 K 
     Ekin + Etot (const)   =   -70.37207809 Ry
     Message from routine dynamics:
     Total linear momentum <> 0

     Linear momentum :   -0.2304384616   -0.5740024618   -0.1046951931

     Writing output data file pwscf.save

     second order wave-functions extrapolation
     Check: negative starting charge=   -0.493700
     second order charge density extrapolation
     Check: negative starting charge=   -0.488476

     negative rho (up, down):  8.662E-01 0.000E+00

     total cpu time spent up to now is       12.9 secs

     per-process dynamical memory:    34.2 Mb

     Self-consistent Calculation

     iteration #  1     ecut=    30.00 Ry     beta=0.70
     Davidson diagonalization with overlap
     c_bands:  4 eigenvalues not converged
     ethr =  1.00E-06,  avg # of iterations = 20.0

     negative rho (up, down):  2.229E-01 0.000E+00

     total cpu time spent up to now is       13.2 secs

     total energy              =     -24.33744327 Ry
     Harris-Foulkes estimate   =   -1462.98382919 Ry
     estimated scf accuracy    <       5.35803216 Ry

     iteration #  2     ecut=    30.00 Ry     beta=0.70
     Davidson diagonalization with overlap
     ethr =  1.00E-02,  avg # of iterations =  6.0

     negative rho (up, down):  1.651E-01 0.000E+00

     total cpu time spent up to now is       13.4 secs

     total energy              =     -68.90893186 Ry
     Harris-Foulkes estimate   =     -77.28159865 Ry
     estimated scf accuracy    <      25.20853064 Ry

     iteration #  3     ecut=    30.00 Ry     beta=0.70
     Davidson diagonalization with overlap
     ethr =  1.00E-02,  avg # of iterations =  5.0

     negative rho (up, down):  1.179E-01 0.000E+00

     total cpu time spent up to now is       13.5 secs

     total energy              =     -69.98307704 Ry
     Harris-Foulkes estimate   =     -70.96420373 Ry
     estimated scf accuracy    <       2.88783897 Ry

     iteration #  4     ecut=    30.00 Ry     beta=0.70
     Davidson diagonalization with overlap
     ethr =  1.00E-02,  avg # of iterations =  2.0

     negative rho (up, down):  1.038E-01 0.000E+00

     total cpu time spent up to now is       13.6 secs

     total energy              =     -69.84454064 Ry
     Harris-Foulkes estimate   =     -71.30061086 Ry
     estimated scf accuracy    <      14.61480889 Ry

     iteration #  5     ecut=    30.00 Ry     beta=0.70
     Davidson diagonalization with overlap
     ethr =  1.00E-02,  avg # of iterations =  1.0

     negative rho (up, down):  7.672E-02 0.000E+00

     total cpu time spent up to now is       13.7 secs

     total energy              =     -70.18631391 Ry
     Harris-Foulkes estimate   =     -70.40543137 Ry
     estimated scf accuracy    <       1.55450392 Ry

     iteration #  6     ecut=    30.00 Ry     beta=0.70
     Davidson diagonalization with overlap
     ethr =  9.72E-03,  avg # of iterations =  1.0

     negative rho (up, down):  6.020E-02 0.000E+00

     total cpu time spent up to now is       13.8 secs

     total energy              =     -70.24594365 Ry
     Harris-Foulkes estimate   =     -70.27028515 Ry
     estimated scf accuracy    <       0.32021479 Ry

     iteration #  7     ecut=    30.00 Ry     beta=0.70
     Davidson diagonalization with overlap
     ethr =  2.00E-03,  avg # of iterations =  1.0

     negative rho (up, down):  3.223E-02 0.000E+00

     total cpu time spent up to now is       13.9 secs

     total energy              =     -70.24597576 Ry
     Harris-Foulkes estimate   =     -70.26321685 Ry
     estimated scf accuracy    <       0.35484222 Ry

     iteration #  8     ecut=    30.00 Ry     beta=0.70
     Davidson diagonalization with overlap
     ethr =  2.00E-03,  avg # of iterations =  1.0

     negative rho (up, down):  9.802E-03 0.000E+00

     total cpu time spent up to now is       14.0 secs

     total energy              =     -70.27881403 Ry
     Harris-Foulkes estimate   =     -70.25578768 Ry
     estimated scf accuracy    <       0.08081302 Ry

     iteration #  9     ecut=    30.00 Ry     beta=0.70
     Davidson diagonalization with overlap
     ethr =  5.05E-04,  avg # of iterations =  1.0

     negative rho (up, down):  3.258E-03 0.000E+00

     total cpu time spent up to now is       14.1 secs

     total energy              =     -70.29435642 Ry
     Harris-Foulkes estimate   =     -70.28536120 Ry
     estimated scf accuracy    <       0.01718774 Ry

     iteration # 10     ecut=    30.00 Ry     beta=0.70
     Davidson diagonalization with overlap
     ethr =  1.07E-04,  avg # of iterations =  6.0

     negative rho (up, down):  6.879E-05 0.000E+00

     total cpu time spent up to now is       14.2 secs

     total energy              =     -70.29575962 Ry
     Harris-Foulkes estimate   =     -70.29584292 Ry
     estimated scf accuracy    <       0.01585223 Ry

     iteration # 11     ecut=    30.00 Ry     beta=0.70
     Davidson diagonalization with overlap
     ethr =  9.91E-05,  avg # of iterations =  1.0

     negative rho (up, down):  3.649E-08 0.000E+00

     total cpu time spent up to now is       14.3 secs

     total energy              =     -70.29731159 Ry
     Harris-Foulkes estimate   =     -70.29908348 Ry
     estimated scf accuracy    <       0.01704093 Ry

     iteration # 12     ecut=    30.00 Ry     beta=0.70
     Davidson diagonalization with overlap
     ethr =  9.91E-05,  avg # of iterations =  1.0

     total cpu time spent up to now is       14.4 secs

     total energy              =     -70.29803872 Ry
     Harris-Foulkes estimate   =     -70.29810377 Ry
     estimated scf accuracy    <       0.00055517 Ry

     iteration # 13     ecut=    30.00 Ry     beta=0.70
     Davidson diagonalization with overlap
     ethr =  3.47E-06,  avg # of iterations =  1.0

     negative rho (up, down):  2.878E-08 0.000E+00

     total cpu time spent up to now is       14.5 secs

     total energy              =     -70.29799681 Ry
     Harris-Foulkes estimate   =     -70.29805761 Ry
     estimated scf accuracy    <       0.00020112 Ry

     iteration # 14     ecut=    30.00 Ry     beta=0.70
     Davidson diagonalization with overlap
     ethr =  1.26E-06,  avg # of iterations =  1.0

     total cpu time spent up to now is       14.6 secs

     total energy              =     -70.29801944 Ry
     Harris-Foulkes estimate   =     -70.29802417 Ry
     estimated scf accuracy    <       0.00002675 Ry

     iteration # 15     ecut=    30.00 Ry     beta=0.70
     Davidson diagonalization with overlap
     ethr =  1.67E-07,  avg # of iterations =  2.0

     total cpu time spent up to now is       14.7 secs

     total energy              =     -70.29802167 Ry
     Harris-Foulkes estimate   =     -70.29802232 Ry
     estimated scf accuracy    <       0.00000568 Ry

     iteration # 16     ecut=    30.00 Ry     beta=0.70
     Davidson diagonalization with overlap
     ethr =  3.55E-08,  avg # of iterations =  1.0

     total cpu time spent up to now is       14.8 secs

     total energy              =     -70.29802179 Ry
     Harris-Foulkes estimate   =     -70.29802219 Ry
     estimated scf accuracy    <       0.00000089 Ry

     iteration # 17     ecut=    30.00 Ry     beta=0.70
     Davidson diagonalization with overlap
     ethr =  5.55E-09,  avg # of iterations =  1.0

     total cpu time spent up to now is       14.9 secs

     total energy              =     -70.29802187 Ry
     Harris-Foulkes estimate   =     -70.29802187 Ry
     estimated scf accuracy    <       0.00000013 Ry

     iteration # 18     ecut=    30.00 Ry     beta=0.70
     Davidson diagonalization with overlap
     ethr =  8.10E-10,  avg # of iterations =  1.0

     total cpu time spent up to now is       15.0 secs

     total energy              =     -70.29802188 Ry
     Harris-Foulkes estimate   =     -70.29802190 Ry
     estimated scf accuracy    <       0.00000007 Ry

     iteration # 19     ecut=    30.00 Ry     beta=0.70
     Davidson diagonalization with overlap
     ethr =  4.29E-10,  avg # of iterations =  1.0

     total cpu time spent up to now is       15.1 secs

     total energy              =     -70.29802189 Ry
     Harris-Foulkes estimate   =     -70.29802189 Ry
     estimated scf accuracy    <       0.00000002 Ry

     iteration # 20     ecut=    30.00 Ry     beta=0.70
     Davidson diagonalization with overlap
     ethr =  1.16E-10,  avg # of iterations =  1.0

     total cpu time spent up to now is       15.1 secs

     End of self-consistent calculation

          k = 0.0000 0.0000 0.0000 ( 22119 PWs)   bands (ev):

   -24.5869 -23.7206 -15.2467  -9.0368  -8.3152  -8.0770  -7.0846  -7.0603
    -6.9691  -5.8444  -5.8070  -3.2139

     the Fermi energy is    -6.9143 ev

!    total energy              =     -70.29802184 Ry
     Harris-Foulkes estimate   =     -70.29802189 Ry
     estimated scf accuracy    <          2.2E-09 Ry

     convergence has been achieved in  20 iterations

     Forces acting on atoms (Ry/au):

     atom    1 type  1   force =     0.24389979    0.23925367   -0.01538022
     atom    2 type  2   force =     0.00495296   -0.00817397   -0.00713880
     atom    3 type  2   force =    -0.24885275   -0.23107971    0.02251902

     Total force =     0.482640     Total SCF correction =     0.000065

     Entering Dynamics:    iteration =     7
                           time      =   0.0339 pico-seconds


     Andersen thermostat:    3 collisions

ATOMIC_POSITIONS (bohr)
C        0.556742332   0.580084624   0.139225979
O       -0.265789369   5.849983817   3.036025751
O        2.847884656   2.714590162  -0.140532251


     kinetic energy (Ekin) =     0.02741315 Ry
     temperature           =  1442.72961214 K 
     Ekin + Etot (const)   =   -70.27060869 Ry
     Message from routine dynamics:
     Total linear momentum <> 0

     Linear momentum :    0.1529232499   -0.1321435050    0.8747607497

     Writing output data file pwscf.save

     second order wave-functions extrapolation
     Message from extrapolate_wfcs: 
     the matrix <psi(t-dt)|psi(t)> has  1 small (< 0.1) eigenvalues
     Check: negative starting charge=   -0.488476
     second order charge density extrapolation
     Check: negative starting charge=   -0.488918

     negative rho (up, down):  4.210E-01 0.000E+00

     total cpu time spent up to now is       15.5 secs

     per-process dynamical memory:    34.2 Mb

     Self-consistent Calculation

     iteration #  1     ecut=    30.00 Ry     beta=0.70
     Davidson diagonalization with overlap
     ethr =  1.00E-06,  avg # of iterations = 18.0

     negative rho (up, down):  1.134E-01 0.000E+00

     total cpu time spent up to now is       15.7 secs

     total energy              =     -70.34659516 Ry
     Harris-Foulkes estimate   =     -70.74209303 Ry
     estimated scf accuracy    <       0.09577636 Ry

     iteration #  2     ecut=    30.00 Ry     beta=0.70
     Davidson diagonalization with overlap
     ethr =  5.99E-04,  avg # of iterations =  3.0

     negative rho (up, down):  8.782E-02 0.000E+00

     total cpu time spent up to now is       15.8 secs

     total energy              =     -70.34365117 Ry
     Harris-Foulkes estimate   =     -70.44795705 Ry
     estimated scf accuracy    <       0.37672992 Ry

     iteration #  3     ecut=    30.00 Ry     beta=0.70
     Davidson diagonalization with overlap
     ethr =  5.99E-04,  avg # of iterations =  3.0

     negative rho (up, down):  5.680E-02 0.000E+00

     total cpu time spent up to now is       15.8 secs

     total energy              =     -70.39706524 Ry
     Harris-Foulkes estimate   =     -70.41488308 Ry
     estimated scf accuracy    <       0.13192693 Ry

     iteration #  4     ecut=    30.00 Ry     beta=0.70
     Davidson diagonalization with overlap
     ethr =  5.99E-04,  avg # of iterations =  3.0

     negative rho (up, down):  2.411E-02 0.000E+00

     total cpu time spent up to now is       15.9 secs

     total energy              =     -70.44530599 Ry
     Harris-Foulkes estimate   =     -70.42648190 Ry
     estimated scf accuracy    <       0.04066065 Ry

     iteration #  5     ecut=    30.00 Ry     beta=0.70
     Davidson diagonalization with overlap
     ethr =  2.54E-04,  avg # of iterations =  1.0

     negative rho (up, down):  5.326E-03 0.000E+00

     total cpu time spent up to now is       16.0 secs

     total energy              =     -70.46681656 Ry
     Harris-Foulkes estimate   =     -70.44890900 Ry
     estimated scf accuracy    <       0.00214842 Ry

     iteration #  6     ecut=    30.00 Ry     beta=0.70
     Davidson diagonalization with overlap
     ethr =  1.34E-05,  avg # of iterations =  9.0

     negative rho (up, down):  1.687E-04 0.000E+00

     total cpu time spent up to now is       16.1 secs

     total energy              =     -70.47155363 Ry
     Harris-Foulkes estimate   =     -70.46750536 Ry
     estimated scf accuracy    <       0.00034196 Ry

     iteration #  7     ecut=    30.00 Ry     beta=0.70
     Davidson diagonalization with overlap
     ethr =  2.14E-06,  avg # of iterations = 11.0

     negative rho (up, down):  4.182E-05 0.000E+00

     total cpu time spent up to now is       16.2 secs

     total energy              =     -70.47160877 Ry
     Harris-Foulkes estimate   =     -70.47162346 Ry
     estimated scf accuracy    <       0.00016440 Ry

     iteration #  8     ecut=    30.00 Ry     beta=0.70
     Davidson diagonalization with overlap
     ethr =  1.03E-06,  avg # of iterations =  1.0

     negative rho (up, down):  1.147E-05 0.000E+00

     total cpu time spent up to now is       16.3 secs

     total energy              =     -70.47160588 Ry
     Harris-Foulkes estimate   =     -70.47161740 Ry
     estimated scf accuracy    <       0.00002716 Ry

     iteration #  9     ecut=    30.00 Ry     beta=0.70
     Davidson diagonalization with overlap
     ethr =  1.70E-07,  avg # of iterations =  2.0

     total cpu time spent up to now is       16.4 secs

     total energy              =     -70.47161624 Ry
     Harris-Foulkes estimate   =     -70.47161443 Ry
     estimated scf accuracy    <       0.00002431 Ry

     iteration # 10     ecut=    30.00 Ry     beta=0.70
     Davidson diagonalization with overlap
     ethr =  1.52E-07,  avg # of iterations =  1.0

     total cpu time spent up to now is       16.5 secs

     total energy              =     -70.47161919 Ry
     Harris-Foulkes estimate   =     -70.47161915 Ry
     estimated scf accuracy    <       0.00000076 Ry

     iteration # 11     ecut=    30.00 Ry     beta=0.70
     Davidson diagonalization with overlap
     ethr =  4.75E-09,  avg # of iterations =  2.0

     total cpu time spent up to now is       16.6 secs

     total energy              =     -70.47161829 Ry
     Harris-Foulkes estimate   =     -70.47161930 Ry
     estimated scf accuracy    <       0.00000055 Ry

     iteration # 12     ecut=    30.00 Ry     beta=0.70
     Davidson diagonalization with overlap
     ethr =  3.42E-09,  avg # of iterations =  1.0

     total cpu time spent up to now is       16.7 secs

     total energy              =     -70.47161837 Ry
     Harris-Foulkes estimate   =     -70.47161834 Ry
     estimated scf accuracy    <       0.00000001 Ry

     iteration # 13     ecut=    30.00 Ry     beta=0.70
     Davidson diagonalization with overlap
     ethr =  8.13E-11,  avg # of iterations =  2.0

     total cpu time spent up to now is       16.8 secs

     End of self-consistent calculation

          k = 0.0000 0.0000 0.0000 ( 22119 PWs)   bands (ev):

   -25.4130 -24.0547 -14.8610  -9.2377  -8.8873  -8.6911  -7.3893  -7.3762
    -7.3042  -4.9024  -4.8782  -0.7953

     the Fermi energy is    -7.2332 ev

!    total energy              =     -70.47161828 Ry
     Harris-Foulkes estimate   =     -70.47161837 Ry
     estimated scf accuracy    <          4.9E-10 Ry

     convergence has been achieved in  13 iterations

     Forces acting on atoms (Ry/au):

     atom    1 type  1   force =     0.24981557    0.23938913   -0.02742875
     atom    2 type  2   force =     0.00236809   -0.00538752   -0.00513084
     atom    3 type  2   force =    -0.25218366   -0.23400160    0.03255959

     Total force =     0.489838     Total SCF correction =     0.000153

     Entering Dynamics:    iteration =     8
                           time      =   0.0387 pico-seconds


     Andersen thermostat:    3 collisions

ATOMIC_POSITIONS (bohr)
C        0.815266319   0.752729647   0.102076617
O       -0.313061652   5.914671774   2.984865656
O        2.701102371   2.520310534  -0.061486917


     kinetic energy (Ekin) =     0.04093876 Ry
     temperature           =  2154.57052122 K 
     Ekin + Etot (const)   =   -70.43067952 Ry
     Message from routine dynamics:
     Total linear momentum <> 0

     Linear momentum :    0.3467957851   -0.4235936639   -0.8153239514

     Writing output data file pwscf.save

     second order wave-functions extrapolation
     Check: negative starting charge=   -0.488918
     second order charge density extrapolation
     Check: negative starting charge=   -0.487112

     negative rho (up, down):  4.343E-01 0.000E+00

     total cpu time spent up to now is       17.3 secs

     per-process dynamical memory:    34.2 Mb

     Self-consistent Calculation

     iteration #  1     ecut=    30.00 Ry     beta=0.70
     Davidson diagonalization with overlap
     ethr =  1.00E-06,  avg # of iterations = 14.0

     negative rho (up, down):  1.186E-01 0.000E+00

     total cpu time spent up to now is       17.5 secs

     total energy              =     -70.60720952 Ry
     Harris-Foulkes estimate   =     -71.00317222 Ry
     estimated scf accuracy    <       0.03102340 Ry

     iteration #  2     ecut=    30.00 Ry     beta=0.70
     Davidson diagonalization with overlap
     ethr =  1.94E-04,  avg # of iterations =  3.0

     negative rho (up, down):  6.944E-02 0.000E+00

     total cpu time spent up to now is       17.6 secs

     total energy              =     -70.63402444 Ry
     Harris-Foulkes estimate   =     -70.62483122 Ry
     estimated scf accuracy    <       0.02489564 Ry

     iteration #  3     ecut=    30.00 Ry     beta=0.70
     Davidson diagonalization with overlap
     ethr =  1.56E-04,  avg # of iterations =  2.0

     negative rho (up, down):  2.293E-02 0.000E+00

     total cpu time spent up to now is       17.6 secs

     total energy              =     -70.67517490 Ry
     Harris-Foulkes estimate   =     -70.64506609 Ry
     estimated scf accuracy    <       0.02192925 Ry

     iteration #  4     ecut=    30.00 Ry     beta=0.70
     Davidson diagonalization with overlap
     ethr =  1.37E-04,  avg # of iterations =  3.0

     negative rho (up, down):  9.574E-03 0.000E+00

     total cpu time spent up to now is       17.7 secs

     total energy              =     -70.69108710 Ry
     Harris-Foulkes estimate   =     -70.67858495 Ry
     estimated scf accuracy    <       0.00118844 Ry

     iteration #  5     ecut=    30.00 Ry     beta=0.70
     Davidson diagonalization with overlap
     ethr =  7.43E-06,  avg # of iterations =  4.0

     negative rho (up, down):  4.852E-04 0.000E+00

     total cpu time spent up to now is       17.8 secs

     total energy              =     -70.69949417 Ry
     Harris-Foulkes estimate   =     -70.69142108 Ry
     estimated scf accuracy    <       0.00044687 Ry

     iteration #  6     ecut=    30.00 Ry     beta=0.70
     Davidson diagonalization with overlap
     ethr =  2.79E-06,  avg # of iterations =  8.0

     negative rho (up, down):  7.117E-05 0.000E+00

     total cpu time spent up to now is       17.9 secs

     total energy              =     -70.69956874 Ry
     Harris-Foulkes estimate   =     -70.69955503 Ry
     estimated scf accuracy    <       0.00001789 Ry

     iteration #  7     ecut=    30.00 Ry     beta=0.70
     Davidson diagonalization with overlap
     ethr =  1.12E-07,  avg # of iterations =  3.0

     negative rho (up, down):  1.520E-06 0.000E+00

     total cpu time spent up to now is       18.0 secs

     total energy              =     -70.69956718 Ry
     Harris-Foulkes estimate   =     -70.69957248 Ry
     estimated scf accuracy    <       0.00000544 Ry

     iteration #  8     ecut=    30.00 Ry     beta=0.70
     Davidson diagonalization with overlap
     ethr =  3.40E-08,  avg # of iterations =  3.0

     total cpu time spent up to now is       18.1 secs

     total energy              =     -70.69956576 Ry
     Harris-Foulkes estimate   =     -70.69956852 Ry
     estimated scf accuracy    <       0.00000073 Ry

     iteration #  9     ecut=    30.00 Ry     beta=0.70
     Davidson diagonalization with overlap
     ethr =  4.54E-09,  avg # of iterations =  2.0

     total cpu time spent up to now is       18.2 secs

     total energy              =     -70.69956480 Ry
     Harris-Foulkes estimate   =     -70.69956594 Ry
     estimated scf accuracy    <       0.00000010 Ry

     iteration # 10     ecut=    30.00 Ry     beta=0.70
     Davidson diagonalization with overlap
     ethr =  6.38E-10,  avg # of iterations =  2.0

     total cpu time spent up to now is       18.3 secs

     total energy              =     -70.69956456 Ry
     Harris-Foulkes estimate   =     -70.69956482 Ry
     estimated scf accuracy    <       0.00000002 Ry

     iteration # 11     ecut=    30.00 Ry     beta=0.70
     Davidson diagonalization with overlap
     ethr =  1.56E-10,  avg # of iterations =  2.0

     total cpu time spent up to now is       18.4 secs

     End of self-consistent calculation

          k = 0.0000 0.0000 0.0000 ( 22119 PWs)   bands (ev):

   -27.4052 -24.5294 -14.4942  -9.9216  -9.8057  -9.0137  -7.8356  -7.8314
    -7.7867  -3.1949  -3.1854  -0.2314

     the Fermi energy is    -7.6947 ev

!    total energy              =     -70.69956374 Ry
     Harris-Foulkes estimate   =     -70.69956457 Ry
     estimated scf accuracy    <          4.9E-09 Ry

     convergence has been achieved in  11 iterations

     Forces acting on atoms (Ry/au):

     atom    1 type  1   force =     0.29372121    0.27597780   -0.02557428
     atom    2 type  2   force =     0.00113870   -0.00106047   -0.00113805
     atom    3 type  2   force =    -0.29485991   -0.27491733    0.02671233

     Total force =     0.571252     Total SCF correction =     0.001424

     Entering Dynamics:    iteration =     9
                           time      =   0.0435 pico-seconds


     Andersen thermostat:    3 collisions

ATOMIC_POSITIONS (bohr)
C        1.212834567   0.949310518  -0.032111518
O       -0.340591455   5.967219512   2.986382595
O        2.430207509   2.320204281   0.037721113


     kinetic energy (Ekin) =     0.08807628 Ry
     temperature           =  4635.37589028 K 
     Ekin + Etot (const)   =   -70.61148747 Ry
     Message from routine dynamics:
     Total linear momentum <> 0

     Linear momentum :    0.1357112904   -0.1113014755   -0.5096351981

     Writing output data file pwscf.save

     second order wave-functions extrapolation
     Check: negative starting charge=   -0.487112
     second order charge density extrapolation
     Check: negative starting charge=   -0.490956

     negative rho (up, down):  1.057E+00 0.000E+00

     total cpu time spent up to now is       18.7 secs

     per-process dynamical memory:    34.2 Mb

     Self-consistent Calculation

     iteration #  1     ecut=    30.00 Ry     beta=0.70
     Davidson diagonalization with overlap
     c_bands:  3 eigenvalues not converged
     ethr =  1.00E-06,  avg # of iterations = 20.0

     negative rho (up, down):  2.730E-01 0.000E+00

[...]
     Harris-Foulkes estimate   =   -4834.63819830 Ry
     estimated scf accuracy    <      49.74380518 Ry

     iteration # 59     ecut=    30.00 Ry     beta=0.70
     Davidson diagonalization with overlap
     ethr =  1.00E-02,  avg # of iterations =  7.0

     negative rho (up, down):  2.784E-01 0.000E+00

     total cpu time spent up to now is       30.9 secs

     total energy              =     -15.21075443 Ry
     Harris-Foulkes estimate   =    -321.30057523 Ry
     estimated scf accuracy    <      30.73183647 Ry

     iteration # 60     ecut=    30.00 Ry     beta=0.70
     Davidson diagonalization with overlap
     ethr =  1.00E-02,  avg # of iterations =  9.0

     negative rho (up, down):  7.476E-01 0.000E+00

     total cpu time spent up to now is       31.1 secs

     total energy              =     -35.64119817 Ry
     Harris-Foulkes estimate   =    -832.47654927 Ry
     estimated scf accuracy    <     129.69433865 Ry

     iteration # 61     ecut=    30.00 Ry     beta=0.70
     Davidson diagonalization with overlap
     ethr =  1.00E-02,  avg # of iterations =  6.0

     negative rho (up, down):  6.781E-01 0.000E+00

     total cpu time spent up to now is       31.2 secs

     total energy              =      89.56405734 Ry
     Harris-Foulkes estimate   =   -2322.71784574 Ry
     estimated scf accuracy    <      80.54828031 Ry

     iteration # 62     ecut=    30.00 Ry     beta=0.70
     Davidson diagonalization with overlap
     ethr =  1.00E-02,  avg # of iterations =  9.0

     negative rho (up, down):  9.765E-01 0.000E+00

     total cpu time spent up to now is       31.4 secs

     total energy              =    -294.04701791 Ry
     Harris-Foulkes estimate   =   -4667.90849111 Ry
     estimated scf accuracy    <      98.60584104 Ry

     iteration # 63     ecut=    30.00 Ry     beta=0.70
     Davidson diagonalization with overlap
     ethr =  1.00E-02,  avg # of iterations =  5.0

     negative rho (up, down):  1.178E+00 0.000E+00

     total cpu time spent up to now is       31.6 secs

     total energy              =   -2396.29980377 Ry
     Harris-Foulkes estimate   =   -7807.52678833 Ry
     estimated scf accuracy    <      97.39924924 Ry

     iteration # 64     ecut=    30.00 Ry     beta=0.70
     Davidson diagonalization with overlap
     ethr =  1.00E-02,  avg # of iterations =  9.0

     negative rho (up, down):  1.369E+00 0.000E+00

     total cpu time spent up to now is       31.7 secs

     total energy              =   -1007.67290027 Ry
     Harris-Foulkes estimate   =   -9367.41215915 Ry
     estimated scf accuracy    <     103.92966224 Ry

     iteration # 65     ecut=    30.00 Ry     beta=0.70
     Davidson diagonalization with overlap
     ethr =  1.00E-02,  avg # of iterations =  7.0

     negative rho (up, down):  1.713E+00 0.000E+00

     total cpu time spent up to now is       31.9 secs

     total energy              =   -1809.36364985 Ry
     Harris-Foulkes estimate   =  -10494.07205109 Ry
     estimated scf accuracy    <     124.67853114 Ry

     iteration # 66     ecut=    30.00 Ry     beta=0.70
     Davidson diagonalization with overlap
     ethr =  1.00E-02,  avg # of iterations =  8.0

     negative rho (up, down):  9.265E-01 0.000E+00

     total cpu time spent up to now is       32.0 secs

     total energy              =    -237.07563441 Ry
     Harris-Foulkes estimate   =  -15755.73664759 Ry
     estimated scf accuracy    <      90.51978116 Ry

     iteration # 67     ecut=    30.00 Ry     beta=0.70
     Davidson diagonalization with overlap
     ethr =  1.00E-02,  avg # of iterations =  7.0

     negative rho (up, down):  1.534E+00 0.000E+00

     total cpu time spent up to now is       32.2 secs

     total energy              =   -1661.90604763 Ry
     Harris-Foulkes estimate   =   -2276.51942479 Ry
     estimated scf accuracy    <      93.13225545 Ry

     iteration # 68     ecut=    30.00 Ry     beta=0.70
     Davidson diagonalization with overlap
     ethr =  1.00E-02,  avg # of iterations =  9.0

     negative rho (up, down):  1.886E+00 0.000E+00

     total cpu time spent up to now is       32.4 secs

     total energy              =     102.34919129 Ry
     Harris-Foulkes estimate   =  -53283.03388506 Ry
     estimated scf accuracy    <      60.10765192 Ry

     iteration # 69     ecut=    30.00 Ry     beta=0.70
     Davidson diagonalization with overlap
     ethr =  1.00E-02,  avg # of iterations =  7.0

     negative rho (up, down):  1.146E+00 0.000E+00

     total cpu time spent up to now is       32.6 secs

     total energy              =      71.95436155 Ry
     Harris-Foulkes estimate   =   -7747.14068540 Ry
     estimated scf accuracy    <      59.57868290 Ry

     iteration # 70     ecut=    30.00 Ry     beta=0.70
     Davidson diagonalization with overlap
     ethr =  1.00E-02,  avg # of iterations =  6.0

     negative rho (up, down):  7.121E-01 0.000E+00

     total cpu time spent up to now is       32.7 secs

     total energy              =    -455.70273104 Ry
     Harris-Foulkes estimate   =  -12598.42647051 Ry
     estimated scf accuracy    <      61.04647119 Ry

     iteration # 71     ecut=    30.00 Ry     beta=0.70
     Davidson diagonalization with overlap
     ethr =  1.00E-02,  avg # of iterations = 12.0

     negative rho (up, down):  4.435E-01 0.000E+00

     total cpu time spent up to now is       32.9 secs

     total energy              =     147.72234000 Ry
     Harris-Foulkes estimate   =   -2642.64316992 Ry
     estimated scf accuracy    <      32.72733407 Ry

     iteration # 72     ecut=    30.00 Ry     beta=0.70
     Davidson diagonalization with overlap
     ethr =  1.00E-02,  avg # of iterations =  8.0

     negative rho (up, down):  3.255E-01 0.000E+00

     total cpu time spent up to now is       33.1 secs

     total energy              =     -11.23550420 Ry
     Harris-Foulkes estimate   =   -3798.78382444 Ry
     estimated scf accuracy    <      83.61087013 Ry

     iteration # 73     ecut=    30.00 Ry     beta=0.70
     Davidson diagonalization with overlap
     ethr =  1.00E-02,  avg # of iterations =  5.0

     negative rho (up, down):  3.051E-01 0.000E+00

     total cpu time spent up to now is       33.2 secs

     total energy              =     -21.66599674 Ry
     Harris-Foulkes estimate   =    -682.21251296 Ry
     estimated scf accuracy    <      54.18697411 Ry

     iteration # 74     ecut=    30.00 Ry     beta=0.70
     Davidson diagonalization with overlap
     ethr =  1.00E-02,  avg # of iterations =  5.0

     negative rho (up, down):  1.067E-03 0.000E+00

     total cpu time spent up to now is       33.3 secs

     total energy              =      80.28235029 Ry
     Harris-Foulkes estimate   =    -547.03746948 Ry
     estimated scf accuracy    <      47.24334040 Ry

     iteration # 75     ecut=    30.00 Ry     beta=0.70
     Davidson diagonalization with overlap
     ethr =  1.00E-02,  avg # of iterations =  8.0

     negative rho (up, down):  6.872E-02 0.000E+00

     total cpu time spent up to now is       33.5 secs

     total energy              =    -135.09606161 Ry
     Harris-Foulkes estimate   =    -146.77510164 Ry
     estimated scf accuracy    <     110.25483034 Ry

     iteration # 76     ecut=    30.00 Ry     beta=0.70
     Davidson diagonalization with overlap
     ethr =  1.00E-02,  avg # of iterations =  5.0

     negative rho (up, down):  7.814E-03 0.000E+00

     total cpu time spent up to now is       33.6 secs

     total energy              =      32.08927715 Ry
     Harris-Foulkes estimate   =    -839.46081889 Ry
     estimated scf accuracy    <      55.69219676 Ry

     iteration # 77     ecut=    30.00 Ry     beta=0.70
     Davidson diagonalization with overlap
     ethr =  1.00E-02,  avg # of iterations =  5.0

     negative rho (up, down):  1.456E-02 0.000E+00

     total cpu time spent up to now is       33.7 secs

     total energy              =     -52.12534891 Ry
     Harris-Foulkes estimate   =   -1432.29622567 Ry
     estimated scf accuracy    <      56.74659880 Ry

     iteration # 78     ecut=    30.00 Ry     beta=0.70
     Davidson diagonalization with overlap
     ethr =  1.00E-02,  avg # of iterations =  7.0

     negative rho (up, down):  1.059E-01 0.000E+00

     total cpu time spent up to now is       33.9 secs

     total energy              =      30.65942816 Ry
     Harris-Foulkes estimate   =    -836.96178472 Ry
     estimated scf accuracy    <      37.01559662 Ry

     iteration # 79     ecut=    30.00 Ry     beta=0.70
     Davidson diagonalization with overlap
     ethr =  1.00E-02,  avg # of iterations = 10.0

     negative rho (up, down):  1.417E-01 0.000E+00

     total cpu time spent up to now is       34.0 secs

     total energy              =   -1747.42936246 Ry
     Harris-Foulkes estimate   =    -356.35384601 Ry
     estimated scf accuracy    <      69.17177543 Ry

     iteration # 80     ecut=    30.00 Ry     beta=0.70
     Davidson diagonalization with overlap
     ethr =  1.00E-02,  avg # of iterations =  8.0

     negative rho (up, down):  3.671E-01 0.000E+00

     total cpu time spent up to now is       34.2 secs

     total energy              =   -1361.07577533 Ry
     Harris-Foulkes estimate   =   -8240.41783561 Ry
     estimated scf accuracy    <      76.71956973 Ry

     iteration # 81     ecut=    30.00 Ry     beta=0.70
     Davidson diagonalization with overlap
     ethr =  1.00E-02,  avg # of iterations =  9.0

     negative rho (up, down):  2.786E-01 0.000E+00

     total cpu time spent up to now is       34.3 secs

     total energy              =    -438.86101561 Ry
     Harris-Foulkes estimate   =  -29205.70129197 Ry
     estimated scf accuracy    <      80.82610349 Ry

     iteration # 82     ecut=    30.00 Ry     beta=0.70
     Davidson diagonalization with overlap
     ethr =  1.00E-02,  avg # of iterations = 11.0

     negative rho (up, down):  2.180E-04 0.000E+00

     total cpu time spent up to now is       34.5 secs

     total energy              =     125.28925656 Ry
     Harris-Foulkes estimate   =   -1657.55982309 Ry
     estimated scf accuracy    <      44.51530194 Ry

     iteration # 83     ecut=    30.00 Ry     beta=0.70
     Davidson diagonalization with overlap
     ethr =  1.00E-02,  avg # of iterations =  7.0

     negative rho (up, down):  1.342E-01 0.000E+00

     total cpu time spent up to now is       34.7 secs

     total energy              =    -116.76401404 Ry
     Harris-Foulkes estimate   =    -128.09563688 Ry
     estimated scf accuracy    <      84.73728068 Ry

     iteration # 84     ecut=    30.00 Ry     beta=0.70
     Davidson diagonalization with overlap
     ethr =  1.00E-02,  avg # of iterations =  9.0

     negative rho (up, down):  3.521E-04 0.000E+00

     total cpu time spent up to now is       34.8 secs

     total energy              =     207.27031251 Ry
     Harris-Foulkes estimate   =    -925.44674830 Ry
     estimated scf accuracy    <      79.91856813 Ry

     iteration # 85     ecut=    30.00 Ry     beta=0.70
     Davidson diagonalization with overlap
     ethr =  1.00E-02,  avg # of iterations = 10.0

     negative rho (up, down):  2.739E-01 0.000E+00

     total cpu time spent up to now is       35.0 secs

     total energy              =    -114.80091805 Ry
     Harris-Foulkes estimate   =    -121.55164018 Ry
     estimated scf accuracy    <      77.64800477 Ry

     iteration # 86     ecut=    30.00 Ry     beta=0.70
     Davidson diagonalization with overlap
     ethr =  1.00E-02,  avg # of iterations =  9.0

     negative rho (up, down):  1.235E-01 0.000E+00

     total cpu time spent up to now is       35.2 secs

     total energy              =      29.81141131 Ry
     Harris-Foulkes estimate   =    -659.66799968 Ry
     estimated scf accuracy    <      75.56283729 Ry

     iteration # 87     ecut=    30.00 Ry     beta=0.70
     Davidson diagonalization with overlap
     ethr =  1.00E-02,  avg # of iterations = 10.0

     negative rho (up, down):  3.351E-01 0.000E+00

     total cpu time spent up to now is       35.4 secs

     total energy              =    -194.29813018 Ry
     Harris-Foulkes estimate   =   -1157.45539151 Ry
     estimated scf accuracy    <      38.79140198 Ry

     iteration # 88     ecut=    30.00 Ry     beta=0.70
     Davidson diagonalization with overlap
     ethr =  1.00E-02,  avg # of iterations =  9.0

     negative rho (up, down):  3.643E-01 0.000E+00

     total cpu time spent up to now is       35.5 secs

     total energy              =     148.49108393 Ry
     Harris-Foulkes estimate   =   -3126.34960270 Ry
     estimated scf accuracy    <      60.14800452 Ry

     iteration # 89     ecut=    30.00 Ry     beta=0.70
     Davidson diagonalization with overlap
     ethr =  1.00E-02,  avg # of iterations =  8.0

     negative rho (up, down):  3.675E-01 0.000E+00

     total cpu time spent up to now is       35.7 secs

     total energy              =    -768.04451704 Ry
     Harris-Foulkes estimate   =   -8275.27323441 Ry
     estimated scf accuracy    <      64.42783806 Ry

     iteration # 90     ecut=    30.00 Ry     beta=0.70
     Davidson diagonalization with overlap
     ethr =  1.00E-02,  avg # of iterations =  8.0

     negative rho (up, down):  2.695E-01 0.000E+00

     total cpu time spent up to now is       35.9 secs

     total energy              =      49.15014057 Ry
     Harris-Foulkes estimate   =   -3837.02104879 Ry
     estimated scf accuracy    <      71.97881782 Ry

     iteration # 91     ecut=    30.00 Ry     beta=0.70
     Davidson diagonalization with overlap
     ethr =  1.00E-02,  avg # of iterations =  8.0

     negative rho (up, down):  9.541E-01 0.000E+00

     total cpu time spent up to now is       36.1 secs

     total energy              =     -48.34168640 Ry
     Harris-Foulkes estimate   =    -747.38297088 Ry
     estimated scf accuracy    <      92.76112323 Ry

     iteration # 92     ecut=    30.00 Ry     beta=0.70
     Davidson diagonalization with overlap
     ethr =  1.00E-02,  avg # of iterations =  7.0

     negative rho (up, down):  7.193E-01 0.000E+00

     total cpu time spent up to now is       36.2 secs

     total energy              =     134.72020977 Ry
     Harris-Foulkes estimate   =   -1987.54918547 Ry
     estimated scf accuracy    <      64.91970234 Ry

     iteration # 93     ecut=    30.00 Ry     beta=0.70
     Davidson diagonalization with overlap
     ethr =  1.00E-02,  avg # of iterations =  8.0

     negative rho (up, down):  1.031E+00 0.000E+00

     total cpu time spent up to now is       36.4 secs

     total energy              =       8.11095086 Ry
     Harris-Foulkes estimate   =   -1039.92618145 Ry
     estimated scf accuracy    <      72.24338600 Ry

     iteration # 94     ecut=    30.00 Ry     beta=0.70
     Davidson diagonalization with overlap
     ethr =  1.00E-02,  avg # of iterations =  7.0

     negative rho (up, down):  8.049E-01 0.000E+00

     total cpu time spent up to now is       36.6 secs

     total energy              =     134.27140179 Ry
     Harris-Foulkes estimate   =  -11282.12502254 Ry
     estimated scf accuracy    <      55.90712723 Ry

     iteration # 95     ecut=    30.00 Ry     beta=0.70
     Davidson diagonalization with overlap
     ethr =  1.00E-02,  avg # of iterations = 10.0

     negative rho (up, down):  9.878E-01 0.000E+00

     total cpu time spent up to now is       36.8 secs

     total energy              =     -45.15388450 Ry
     Harris-Foulkes estimate   =   -1187.96867601 Ry
     estimated scf accuracy    <      65.57405238 Ry

     iteration # 96     ecut=    30.00 Ry     beta=0.70
     Davidson diagonalization with overlap
     ethr =  1.00E-02,  avg # of iterations = 13.0

     negative rho (up, down):  1.136E+00 0.000E+00

     total cpu time spent up to now is       36.9 secs

     total energy              =    -293.40070299 Ry
     Harris-Foulkes estimate   =   -6156.26676168 Ry
     estimated scf accuracy    <      94.54083129 Ry

     iteration # 97     ecut=    30.00 Ry     beta=0.70
     Davidson diagonalization with overlap
     ethr =  1.00E-02,  avg # of iterations =  9.0

     negative rho (up, down):  1.088E+00 0.000E+00

     total cpu time spent up to now is       37.1 secs

     total energy              =     238.39993487 Ry
     Harris-Foulkes estimate   =  -11901.59137985 Ry
     estimated scf accuracy    <      68.82261472 Ry

     iteration # 98     ecut=    30.00 Ry     beta=0.70
     Davidson diagonalization with overlap
     ethr =  1.00E-02,  avg # of iterations = 12.0

     negative rho (up, down):  7.764E-01 0.000E+00

     total cpu time spent up to now is       37.3 secs

     total energy              =      -3.44944655 Ry
     Harris-Foulkes estimate   =    -742.66318835 Ry
     estimated scf accuracy    <      84.66588440 Ry

     iteration # 99     ecut=    30.00 Ry     beta=0.70
     Davidson diagonalization with overlap
     ethr =  1.00E-02,  avg # of iterations =  6.0

     negative rho (up, down):  8.172E-01 0.000E+00

     total cpu time spent up to now is       37.5 secs

     total energy              =     -88.29552393 Ry
     Harris-Foulkes estimate   =   -3191.74123833 Ry
     estimated scf accuracy    <      46.40033639 Ry

     iteration #100     ecut=    30.00 Ry     beta=0.70
     Davidson diagonalization with overlap
     ethr =  1.00E-02,  avg # of iterations =  6.0

     negative rho (up, down):  7.047E-03 0.000E+00

     total cpu time spent up to now is       37.6 secs

     total energy              =     216.62842780 Ry
     Harris-Foulkes estimate   =   -3635.44998143 Ry
     estimated scf accuracy    <      68.62102669 Ry

     End of self-consistent calculation

     convergence NOT achieved after 100 iterations: stopping

     Writing output data file pwscf.save
 
     init_run     :      0.13s CPU      0.15s WALL (       1 calls)
     electrons    :     30.22s CPU     34.44s WALL (      11 calls)
     update_pot   :      1.57s CPU      2.01s WALL (      10 calls)
     forces       :      0.38s CPU      0.39s WALL (      10 calls)

     Called by init_run:
     wfcinit      :      0.02s CPU      0.03s WALL (       1 calls)
     potinit      :      0.04s CPU      0.05s WALL (       1 calls)

     Called by electrons:
     c_bands      :     18.08s CPU     18.62s WALL (     276 calls)
     sum_band     :      2.75s CPU      2.87s WALL (     276 calls)
     v_of_rho     :      5.58s CPU      5.68s WALL (     287 calls)
     mix_rho      :      3.49s CPU      6.24s WALL (     276 calls)

     Called by c_bands:
     init_us_2    :      0.11s CPU      0.12s WALL (     553 calls)
     cegterg      :     17.94s CPU     18.21s WALL (     276 calls)

     Called by sum_band:

     Called by *egterg:
     h_psi        :     14.99s CPU     15.22s WALL (    1514 calls)
     g_psi        :      0.18s CPU      0.19s WALL (    1237 calls)
     cdiaghg      :      0.63s CPU      0.64s WALL (    1503 calls)

     Called by h_psi:
     h_psi:pot    :     14.83s CPU     15.06s WALL (    1514 calls)
     h_psi:calbec :      0.14s CPU      0.14s WALL (    1514 calls)
     vloc_psi     :     14.60s CPU     14.83s WALL (    1514 calls)
     add_vuspsi   :      0.09s CPU      0.09s WALL (    1514 calls)

     General routines
     calbec       :      0.19s CPU      0.22s WALL (    1563 calls)
     fft          :      3.46s CPU      3.61s WALL (    3177 calls)
     fftw         :     14.74s CPU     15.00s WALL (   28614 calls)
     davcio       :      0.54s CPU      2.49s WALL (    4554 calls)
 
     Parallel routines
     fft_scatter  :      5.03s CPU      5.29s WALL (   31791 calls)
 
     PWSCF        :    32.66s CPU        37.68s WALL

 
   This run was terminated on:  21:39:25  23Jan2018            

=------------------------------------------------------------------------------=
   JOB DONE.
=------------------------------------------------------------------------------=
