
     Program PWSCF v.6.0 (svn rev. 13079) starts on 23Jan2018 at 21:36:28 

     This program is part of the open-source Quantum ESPRESSO suite
     for quantum simulation of materials; please cite
         "P. Giannozzi et al., J. Phys.:Condens. Matter 21 395502 (2009);
          URL http://www.quantum-espresso.org", 
     in publications or presentations arising from this work. More details at
     http://www.quantum-espresso.org/quote

     Parallel version (MPI), running on    10 processors
     R & G space division:  proc/nbgrp/npool/nimage =      10
     Reading input from inputs/H2O-100.in

     Current dimensions of program PWSCF are:
     Max number of different atomic species (ntypx) = 10
     Max number of k-points (npk) =  40000
     Max angular momentum in pseudopotentials (lmaxx) =  3

     Subspace diagonalization in iterative solution of the eigenvalue problem:
     a serial algorithm will be used

 
     Parallelization info
     --------------------
     sticks:   dense  smooth     PW     G-vecs:    dense   smooth      PW
     Min         380     380     94                17748    17748    2208
     Max         381     381     95                17753    17753    2213
     Sum        3809    3809    949               177509   177509   22119
 


     bravais-lattice index     =            1
     lattice parameter (alat)  =      20.0000  a.u.
     unit-cell volume          =    8000.0000 (a.u.)^3
     number of atoms/cell      =            3
     number of atomic types    =            2
     number of electrons       =         8.00
     number of Kohn-Sham states=            8
     kinetic-energy cutoff     =      30.0000  Ry
     charge density cutoff     =     120.0000  Ry
     convergence threshold     =      1.0E-08
     mixing beta               =       0.7000
     number of iterations used =            8  plain     mixing
     Exchange-correlation      = BLYP ( 1  3  1  3 0 0)
     nstep                     =         5000


     celldm(1)=  20.000000  celldm(2)=   0.000000  celldm(3)=   0.000000
     celldm(4)=   0.000000  celldm(5)=   0.000000  celldm(6)=   0.000000

     crystal axes: (cart. coord. in units of alat)
               a(1) = (   1.000000   0.000000   0.000000 )  
               a(2) = (   0.000000   1.000000   0.000000 )  
               a(3) = (   0.000000   0.000000   1.000000 )  

     reciprocal axes: (cart. coord. in units 2 pi/alat)
               b(1) = (  1.000000  0.000000  0.000000 )  
               b(2) = (  0.000000  1.000000  0.000000 )  
               b(3) = (  0.000000  0.000000  1.000000 )  


     PseudoPot. # 1 for  H read from file:
     ./H.blyp-hgh.UPF
     MD5 check sum: c576e69559cde411e611be972c763230
     Pseudo is Norm-conserving, Zval =  1.0
     Generated in analytical, separable form
     Using radial grid of  929 points,  0 beta functions with: 

     PseudoPot. # 2 for  O read from file:
     ./O.blyp-hgh.UPF
     MD5 check sum: d0b7156309aa9befef28faac7bc56342
     Pseudo is Norm-conserving, Zval =  6.0
     Generated in analytical, separable form
     Using radial grid of 1095 points,  1 beta functions with: 
                l(1) =   0

     atomic species   valence    mass     pseudopotential
        H              1.00     1.01000      H( 1.00)
        O              6.00    16.00000      O( 1.00)

     No symmetry found



   Cartesian axes

     site n.     atom                  positions (alat units)
         1           H   tau(   1) = (   0.0000000   0.0000000   0.0000000  )
         2           H   tau(   2) = (   0.0000000   0.3000000   0.1500000  )
         3           O   tau(   3) = (   0.1500000   0.1500000   0.0000000  )

     number of k points=     1  Marzari-Vanderbilt smearing, width (Ry)=  0.0250
                       cart. coord. in units 2pi/alat
        k(    1) = (   0.0000000   0.0000000   0.0000000), wk =   2.0000000

     Dense  grid:   177509 G-vectors     FFT dimensions: (  72,  72,  72)

     Estimated max dynamical RAM per process >       7.31Mb

     Estimated total allocated dynamical RAM >      73.15Mb

     Initial potential from superposition of free atoms
     Check: negative starting charge=   -0.336334

     starting charge    7.99998, renormalised to    8.00000

     negative rho (up, down):  3.363E-01 0.000E+00
     Starting wfc are    6 randomized atomic wfcs +    2 random wfc

     total cpu time spent up to now is        0.2 secs

     per-process dynamical memory:    27.8 Mb

     Self-consistent Calculation

     iteration #  1     ecut=    30.00 Ry     beta=0.70
     Davidson diagonalization with overlap
     ethr =  1.00E-02,  avg # of iterations =  6.0

     negative rho (up, down):  8.526E-02 0.000E+00

     total cpu time spent up to now is        0.3 secs

     total energy              =     -30.01114990 Ry
     Harris-Foulkes estimate   =     -32.10743628 Ry
     estimated scf accuracy    <       2.42477558 Ry

     iteration #  2     ecut=    30.00 Ry     beta=0.70
     Davidson diagonalization with overlap
     ethr =  1.00E-02,  avg # of iterations =  3.0

     negative rho (up, down):  6.397E-02 0.000E+00

     total cpu time spent up to now is        0.4 secs

     total energy              =     -31.75702006 Ry
     Harris-Foulkes estimate   =     -34.83759686 Ry
     estimated scf accuracy    <       8.20102979 Ry

     iteration #  3     ecut=    30.00 Ry     beta=0.70
     Davidson diagonalization with overlap
     ethr =  1.00E-02,  avg # of iterations =  2.0

     negative rho (up, down):  7.210E-02 0.000E+00

     total cpu time spent up to now is        0.5 secs

     total energy              =     -32.42774640 Ry
     Harris-Foulkes estimate   =     -32.05384952 Ry
     estimated scf accuracy    <       2.53424610 Ry

     iteration #  4     ecut=    30.00 Ry     beta=0.70
     Davidson diagonalization with overlap
     ethr =  1.00E-02,  avg # of iterations =  1.0

     negative rho (up, down):  5.863E-02 0.000E+00

     total cpu time spent up to now is        0.5 secs

     total energy              =     -31.98884728 Ry
     Harris-Foulkes estimate   =     -32.44879124 Ry
     estimated scf accuracy    <       3.42755396 Ry

     iteration #  5     ecut=    30.00 Ry     beta=0.70
     Davidson diagonalization with overlap
     ethr =  1.00E-02,  avg # of iterations =  1.0

     negative rho (up, down):  2.325E-02 0.000E+00

     total cpu time spent up to now is        0.6 secs

     total energy              =     -31.01137334 Ry
     Harris-Foulkes estimate   =     -31.99218817 Ry
     estimated scf accuracy    <       2.44438815 Ry

     iteration #  6     ecut=    30.00 Ry     beta=0.70
     Davidson diagonalization with overlap
     ethr =  1.00E-02,  avg # of iterations =  2.0

     negative rho (up, down):  8.414E-03 0.000E+00

     total cpu time spent up to now is        0.7 secs

     total energy              =     -32.21538037 Ry
     Harris-Foulkes estimate   =     -32.32456976 Ry
     estimated scf accuracy    <       4.10969985 Ry

     iteration #  7     ecut=    30.00 Ry     beta=0.70
     Davidson diagonalization with overlap
     ethr =  1.00E-02,  avg # of iterations =  1.0

     negative rho (up, down):  3.787E-03 0.000E+00

     total cpu time spent up to now is        0.7 secs

     total energy              =     -31.75624982 Ry
     Harris-Foulkes estimate   =     -32.21928448 Ry
     estimated scf accuracy    <       3.75796624 Ry

     iteration #  8     ecut=    30.00 Ry     beta=0.70
     Davidson diagonalization with overlap
     ethr =  1.00E-02,  avg # of iterations =  1.0

     negative rho (up, down):  1.019E-03 0.000E+00

     total cpu time spent up to now is        0.8 secs

     total energy              =     -32.10245041 Ry
     Harris-Foulkes estimate   =     -31.79536665 Ry
     estimated scf accuracy    <       1.83508156 Ry

     iteration #  9     ecut=    30.00 Ry     beta=0.70
     Davidson diagonalization with overlap
     ethr =  1.00E-02,  avg # of iterations =  1.0

     negative rho (up, down):  7.110E-04 0.000E+00

     total cpu time spent up to now is        0.9 secs

     total energy              =     -31.79122810 Ry
     Harris-Foulkes estimate   =     -32.15570067 Ry
     estimated scf accuracy    <       3.59424489 Ry

     iteration # 10     ecut=    30.00 Ry     beta=0.70
     Davidson diagonalization with overlap
     ethr =  1.00E-02,  avg # of iterations =  1.0

     negative rho (up, down):  5.037E-03 0.000E+00

     total cpu time spent up to now is        1.0 secs

     total energy              =     -31.63578989 Ry
     Harris-Foulkes estimate   =     -31.81351858 Ry
     estimated scf accuracy    <       2.14829684 Ry

     iteration # 11     ecut=    30.00 Ry     beta=0.70
     Davidson diagonalization with overlap
     ethr =  1.00E-02,  avg # of iterations =  1.0

     negative rho (up, down):  5.551E-03 0.000E+00

     total cpu time spent up to now is        1.0 secs

     total energy              =     -31.72139226 Ry
     Harris-Foulkes estimate   =     -31.67513168 Ry
     estimated scf accuracy    <       0.34036176 Ry

     iteration # 12     ecut=    30.00 Ry     beta=0.70
     Davidson diagonalization with overlap
     ethr =  4.25E-03,  avg # of iterations =  1.0

     negative rho (up, down):  1.649E-03 0.000E+00

     total cpu time spent up to now is        1.1 secs

     total energy              =     -31.55369330 Ry
     Harris-Foulkes estimate   =     -31.75225622 Ry
     estimated scf accuracy    <       1.60154872 Ry

     iteration # 13     ecut=    30.00 Ry     beta=0.70
     Davidson diagonalization with overlap
     ethr =  4.25E-03,  avg # of iterations =  1.0

     negative rho (up, down):  2.766E-03 0.000E+00

     total cpu time spent up to now is        1.2 secs

     total energy              =     -31.58208351 Ry
     Harris-Foulkes estimate   =     -31.67643809 Ry
     estimated scf accuracy    <       0.26148225 Ry

     iteration # 14     ecut=    30.00 Ry     beta=0.70
     Davidson diagonalization with overlap
     ethr =  3.27E-03,  avg # of iterations =  1.0

     negative rho (up, down):  5.661E-03 0.000E+00

     total cpu time spent up to now is        1.2 secs

     total energy              =     -31.90163124 Ry
     Harris-Foulkes estimate   =     -31.84566466 Ry
     estimated scf accuracy    <       1.67690944 Ry

     iteration # 15     ecut=    30.00 Ry     beta=0.70
     Davidson diagonalization with overlap
     ethr =  3.27E-03,  avg # of iterations =  1.0

     negative rho (up, down):  6.859E-03 0.000E+00

     total cpu time spent up to now is        1.3 secs

     total energy              =     -31.90651745 Ry
     Harris-Foulkes estimate   =     -31.90342741 Ry
     estimated scf accuracy    <       1.91802453 Ry

     iteration # 16     ecut=    30.00 Ry     beta=0.70
     Davidson diagonalization with overlap
     ethr =  3.27E-03,  avg # of iterations =  1.0

     negative rho (up, down):  1.376E-03 0.000E+00

     total cpu time spent up to now is        1.4 secs

     total energy              =     -31.74777553 Ry
     Harris-Foulkes estimate   =     -31.90666272 Ry
     estimated scf accuracy    <       1.91367920 Ry

     iteration # 17     ecut=    30.00 Ry     beta=0.70
     Davidson diagonalization with overlap
     ethr =  3.27E-03,  avg # of iterations =  1.0

     negative rho (up, down):  1.825E-04 0.000E+00

     total cpu time spent up to now is        1.5 secs

     total energy              =     -31.57125295 Ry
     Harris-Foulkes estimate   =     -31.75826107 Ry
     estimated scf accuracy    <       1.18813299 Ry

     iteration # 18     ecut=    30.00 Ry     beta=0.70
     Davidson diagonalization with overlap
     ethr =  3.27E-03,  avg # of iterations =  1.0

     negative rho (up, down):  3.509E-04 0.000E+00

     total cpu time spent up to now is        1.5 secs

     total energy              =     -31.62959439 Ry
     Harris-Foulkes estimate   =     -31.67798124 Ry
     estimated scf accuracy    <       0.35484951 Ry

     iteration # 19     ecut=    30.00 Ry     beta=0.70
     Davidson diagonalization with overlap
     ethr =  3.27E-03,  avg # of iterations =  1.0

     negative rho (up, down):  2.388E-04 0.000E+00

     total cpu time spent up to now is        1.6 secs

     total energy              =     -31.68560872 Ry
     Harris-Foulkes estimate   =     -31.67531088 Ry
     estimated scf accuracy    <       0.32852208 Ry

     iteration # 20     ecut=    30.00 Ry     beta=0.70
     Davidson diagonalization with overlap
     ethr =  3.27E-03,  avg # of iterations =  1.0

     negative rho (up, down):  5.866E-06 0.000E+00

     total cpu time spent up to now is        1.7 secs

     total energy              =     -31.61433376 Ry
     Harris-Foulkes estimate   =     -31.68709726 Ry
     estimated scf accuracy    <       0.52472499 Ry

     iteration # 21     ecut=    30.00 Ry     beta=0.70
     Davidson diagonalization with overlap
     ethr =  3.27E-03,  avg # of iterations =  1.0

     negative rho (up, down):  3.461E-04 0.000E+00

     total cpu time spent up to now is        1.7 secs

     total energy              =     -31.68064411 Ry
     Harris-Foulkes estimate   =     -31.67449076 Ry
     estimated scf accuracy    <       0.25178336 Ry

     iteration # 22     ecut=    30.00 Ry     beta=0.70
     Davidson diagonalization with overlap
     ethr =  3.15E-03,  avg # of iterations =  1.0

     negative rho (up, down):  3.878E-05 0.000E+00

     total cpu time spent up to now is        1.8 secs

     total energy              =     -31.65260089 Ry
     Harris-Foulkes estimate   =     -31.68141641 Ry
     estimated scf accuracy    <       0.36729008 Ry

     iteration # 23     ecut=    30.00 Ry     beta=0.70
     Davidson diagonalization with overlap
     ethr =  3.15E-03,  avg # of iterations =  1.0

     negative rho (up, down):  4.721E-06 0.000E+00

     total cpu time spent up to now is        1.9 secs

     total energy              =     -31.65944754 Ry
     Harris-Foulkes estimate   =     -31.66284745 Ry
     estimated scf accuracy    <       0.01733532 Ry

     iteration # 24     ecut=    30.00 Ry     beta=0.70
     Davidson diagonalization with overlap
     ethr =  2.17E-04,  avg # of iterations =  1.0

     negative rho (up, down):  4.289E-05 0.000E+00

     total cpu time spent up to now is        2.0 secs

     total energy              =     -31.67140445 Ry
     Harris-Foulkes estimate   =     -31.67337670 Ry
     estimated scf accuracy    <       0.27767323 Ry

     iteration # 25     ecut=    30.00 Ry     beta=0.70
     Davidson diagonalization with overlap
     ethr =  2.17E-04,  avg # of iterations =  1.0

     negative rho (up, down):  3.707E-05 0.000E+00

     total cpu time spent up to now is        2.0 secs

     total energy              =     -31.67215741 Ry
     Harris-Foulkes estimate   =     -31.67147546 Ry
     estimated scf accuracy    <       0.24019961 Ry

     iteration # 26     ecut=    30.00 Ry     beta=0.70
     Davidson diagonalization with overlap
     ethr =  2.17E-04,  avg # of iterations =  1.0

     negative rho (up, down):  1.534E-05 0.000E+00

     total cpu time spent up to now is        2.1 secs

     total energy              =     -31.65032329 Ry
     Harris-Foulkes estimate   =     -31.67221193 Ry
     estimated scf accuracy    <       0.26587902 Ry

     iteration # 27     ecut=    30.00 Ry     beta=0.70
     Davidson diagonalization with overlap
     ethr =  2.17E-04,  avg # of iterations =  1.0

     negative rho (up, down):  3.296E-06 0.000E+00

     total cpu time spent up to now is        2.2 secs

     total energy              =     -31.66107552 Ry
     Harris-Foulkes estimate   =     -31.66159881 Ry
     estimated scf accuracy    <       0.00716115 Ry

     iteration # 28     ecut=    30.00 Ry     beta=0.70
     Davidson diagonalization with overlap
     ethr =  8.95E-05,  avg # of iterations =  1.0

     negative rho (up, down):  1.610E-06 0.000E+00

     total cpu time spent up to now is        2.3 secs

     total energy              =     -31.66122137 Ry
     Harris-Foulkes estimate   =     -31.66123918 Ry
     estimated scf accuracy    <       0.00043356 Ry

     iteration # 29     ecut=    30.00 Ry     beta=0.70
     Davidson diagonalization with overlap
     c_bands:  1 eigenvalues not converged
     ethr =  5.42E-06,  avg # of iterations = 20.0

     negative rho (up, down):  1.743E-07 0.000E+00

     total cpu time spent up to now is        2.4 secs

     total energy              =     -31.66117420 Ry
     Harris-Foulkes estimate   =     -31.66124497 Ry
     estimated scf accuracy    <       0.00139961 Ry

     iteration # 30     ecut=    30.00 Ry     beta=0.70
     Davidson diagonalization with overlap
     ethr =  5.42E-06,  avg # of iterations =  1.0

     negative rho (up, down):  5.640E-08 0.000E+00

     total cpu time spent up to now is        2.4 secs

     total energy              =     -31.66119798 Ry
     Harris-Foulkes estimate   =     -31.66119875 Ry
     estimated scf accuracy    <       0.00011608 Ry

     iteration # 31     ecut=    30.00 Ry     beta=0.70
     Davidson diagonalization with overlap
     ethr =  1.45E-06,  avg # of iterations =  7.0

     total cpu time spent up to now is        2.5 secs

     total energy              =     -31.66118785 Ry
     Harris-Foulkes estimate   =     -31.66119884 Ry
     estimated scf accuracy    <       0.00012880 Ry

     iteration # 32     ecut=    30.00 Ry     beta=0.70
     Davidson diagonalization with overlap
     ethr =  1.45E-06,  avg # of iterations =  1.0

     total cpu time spent up to now is        2.6 secs

     total energy              =     -31.66119293 Ry
     Harris-Foulkes estimate   =     -31.66119317 Ry
     estimated scf accuracy    <       0.00000188 Ry

     iteration # 33     ecut=    30.00 Ry     beta=0.70
     Davidson diagonalization with overlap
     ethr =  2.35E-08,  avg # of iterations =  1.0

     total cpu time spent up to now is        2.7 secs

     total energy              =     -31.66119311 Ry
     Harris-Foulkes estimate   =     -31.66119307 Ry
     estimated scf accuracy    <       0.00000021 Ry

     iteration # 34     ecut=    30.00 Ry     beta=0.70
     Davidson diagonalization with overlap
     ethr =  2.68E-09,  avg # of iterations =  1.0

     total cpu time spent up to now is        2.7 secs

     total energy              =     -31.66119313 Ry
     Harris-Foulkes estimate   =     -31.66119312 Ry
     estimated scf accuracy    <       0.00000002 Ry

     iteration # 35     ecut=    30.00 Ry     beta=0.70
     Davidson diagonalization with overlap
     ethr =  2.40E-10,  avg # of iterations =  1.0

     total cpu time spent up to now is        2.8 secs

     End of self-consistent calculation

          k = 0.0000 0.0000 0.0000 ( 22119 PWs)   bands (ev):

   -23.5676  -8.0137  -7.3900  -6.7556  -6.3596  -5.8465  -0.0897   0.7438

     the Fermi energy is    -6.5373 ev

!    total energy              =     -31.66119311 Ry
     Harris-Foulkes estimate   =     -31.66119313 Ry
     estimated scf accuracy    <          1.4E-09 Ry

     convergence has been achieved in  35 iterations

     Forces acting on atoms (Ry/au):

     atom    1 type  1   force =     0.06774582    0.06786242   -0.00001531
     atom    2 type  1   force =     0.02394560   -0.02304459   -0.02346192
     atom    3 type  2   force =    -0.09169142   -0.04481782    0.02347723

     Total force =     0.147705     Total SCF correction =     0.000018

     Molecular Dynamics Calculation

     Starting temperature  =   100.00 K

     temperature is controlled by Andersen thermostat
     Collision frequency = 1.0000/timestep
     mass H                =     1.01
     mass O                =    16.00
     Time step             =   100.00 a.u.,  4.8378 femto-seconds

     Entering Dynamics:    iteration =     1
                           time      =   0.0048 pico-seconds


     Andersen thermostat:    3 collisions

ATOMIC_POSITIONS (bohr)
H        0.441185474   0.456043314  -0.062736678
H        0.132125531   5.947254240   2.812832760
O        2.963809743   2.974541842   0.015775185


     kinetic energy (Ekin) =     0.00131956 Ry
     temperature           =    69.44745619 K 
     Ekin + Etot (const)   =   -31.65987354 Ry

     Linear momentum :    0.0000000000    0.0000000000   -0.0000000000

     Writing output data file pwscf.save
     Check: negative starting charge=   -0.336334
     NEW-OLD atomic charge density approx. for the potential
     Check: negative starting charge=   -0.338617

     negative rho (up, down):  9.260E-02 0.000E+00

     total cpu time spent up to now is        3.0 secs

     per-process dynamical memory:    33.3 Mb

     Self-consistent Calculation

     iteration #  1     ecut=    30.00 Ry     beta=0.70
     Davidson diagonalization with overlap
     c_bands:  1 eigenvalues not converged
     ethr =  1.00E-06,  avg # of iterations = 20.0

     negative rho (up, down):  2.384E-02 0.000E+00

     total cpu time spent up to now is        3.2 secs

     total energy              =     -30.34664514 Ry
     Harris-Foulkes estimate   =     -32.09890030 Ry
     estimated scf accuracy    <       1.04034475 Ry

     iteration #  2     ecut=    30.00 Ry     beta=0.70
     Davidson diagonalization with overlap
     ethr =  1.00E-02,  avg # of iterations =  3.0

     negative rho (up, down):  1.842E-02 0.000E+00

     total cpu time spent up to now is        3.2 secs

     total energy              =     -31.55419203 Ry
     Harris-Foulkes estimate   =     -33.01679741 Ry
     estimated scf accuracy    <       4.33601787 Ry

     iteration #  3     ecut=    30.00 Ry     beta=0.70
     Davidson diagonalization with overlap
     ethr =  1.00E-02,  avg # of iterations =  2.0

     negative rho (up, down):  1.500E-02 0.000E+00

     total cpu time spent up to now is        3.3 secs

     total energy              =     -31.79489255 Ry
     Harris-Foulkes estimate   =     -32.21042715 Ry
     estimated scf accuracy    <       1.77744278 Ry

     iteration #  4     ecut=    30.00 Ry     beta=0.70
     Davidson diagonalization with overlap
     ethr =  1.00E-02,  avg # of iterations =  1.0

     negative rho (up, down):  1.153E-02 0.000E+00

     total cpu time spent up to now is        3.4 secs

     total energy              =     -31.77342850 Ry
     Harris-Foulkes estimate   =     -31.88968261 Ry
     estimated scf accuracy    <       0.66099473 Ry

     iteration #  5     ecut=    30.00 Ry     beta=0.70
     Davidson diagonalization with overlap
     ethr =  8.26E-03,  avg # of iterations =  1.0

     negative rho (up, down):  7.493E-03 0.000E+00

     total cpu time spent up to now is        3.5 secs

     total energy              =     -31.74560572 Ry
     Harris-Foulkes estimate   =     -31.79097605 Ry
     estimated scf accuracy    <       0.21852324 Ry

     iteration #  6     ecut=    30.00 Ry     beta=0.70
     Davidson diagonalization with overlap
     ethr =  2.73E-03,  avg # of iterations =  1.0

     negative rho (up, down):  6.205E-03 0.000E+00

     total cpu time spent up to now is        3.5 secs

     total energy              =     -31.74597526 Ry
     Harris-Foulkes estimate   =     -31.76460897 Ry
     estimated scf accuracy    <       0.26802825 Ry

     iteration #  7     ecut=    30.00 Ry     beta=0.70
     Davidson diagonalization with overlap
     ethr =  2.73E-03,  avg # of iterations =  1.0

     negative rho (up, down):  3.963E-03 0.000E+00

     total cpu time spent up to now is        3.6 secs

     total energy              =     -31.75503393 Ry
     Harris-Foulkes estimate   =     -31.75396886 Ry
     estimated scf accuracy    <       0.03962103 Ry

     iteration #  8     ecut=    30.00 Ry     beta=0.70
     Davidson diagonalization with overlap
     ethr =  4.95E-04,  avg # of iterations =  1.0

     negative rho (up, down):  1.078E-03 0.000E+00

     total cpu time spent up to now is        3.7 secs

     total energy              =     -31.74849394 Ry
     Harris-Foulkes estimate   =     -31.75633330 Ry
     estimated scf accuracy    <       0.06614580 Ry

     iteration #  9     ecut=    30.00 Ry     beta=0.70
     Davidson diagonalization with overlap
     ethr =  4.95E-04,  avg # of iterations =  3.0

     negative rho (up, down):  4.346E-04 0.000E+00

     total cpu time spent up to now is        3.7 secs

     total energy              =     -31.75185154 Ry
     Harris-Foulkes estimate   =     -31.75268648 Ry
     estimated scf accuracy    <       0.00827799 Ry

     iteration # 10     ecut=    30.00 Ry     beta=0.70
     Davidson diagonalization with overlap
     ethr =  1.03E-04,  avg # of iterations =  3.0

     negative rho (up, down):  1.343E-06 0.000E+00

     total cpu time spent up to now is        3.8 secs

     total energy              =     -31.75234680 Ry
     Harris-Foulkes estimate   =     -31.75227658 Ry
     estimated scf accuracy    <       0.00048364 Ry

     iteration # 11     ecut=    30.00 Ry     beta=0.70
     Davidson diagonalization with overlap
     ethr =  6.05E-06,  avg # of iterations = 13.0

     total cpu time spent up to now is        3.9 secs

     total energy              =     -31.75231881 Ry
     Harris-Foulkes estimate   =     -31.75241103 Ry
     estimated scf accuracy    <       0.00043999 Ry

     iteration # 12     ecut=    30.00 Ry     beta=0.70
     Davidson diagonalization with overlap
     ethr =  5.50E-06,  avg # of iterations =  1.0

     total cpu time spent up to now is        4.0 secs

     total energy              =     -31.75234862 Ry
     Harris-Foulkes estimate   =     -31.75236399 Ry
     estimated scf accuracy    <       0.00021520 Ry

     iteration # 13     ecut=    30.00 Ry     beta=0.70
     Davidson diagonalization with overlap
     ethr =  2.69E-06,  avg # of iterations =  1.0

     total cpu time spent up to now is        4.1 secs

     total energy              =     -31.75235623 Ry
     Harris-Foulkes estimate   =     -31.75235623 Ry
     estimated scf accuracy    <       0.00000023 Ry

     iteration # 14     ecut=    30.00 Ry     beta=0.70
     Davidson diagonalization with overlap
     ethr =  2.86E-09,  avg # of iterations =  2.0

     total cpu time spent up to now is        4.1 secs

     total energy              =     -31.75235639 Ry
     Harris-Foulkes estimate   =     -31.75235634 Ry
     estimated scf accuracy    <       0.00000048 Ry

     iteration # 15     ecut=    30.00 Ry     beta=0.70
     Davidson diagonalization with overlap
     ethr =  2.86E-09,  avg # of iterations =  1.0

     total cpu time spent up to now is        4.2 secs

     total energy              =     -31.75235643 Ry
     Harris-Foulkes estimate   =     -31.75235643 Ry
     estimated scf accuracy    <       0.00000005 Ry

     iteration # 16     ecut=    30.00 Ry     beta=0.70
     Davidson diagonalization with overlap
     ethr =  5.96E-10,  avg # of iterations =  1.0

     total cpu time spent up to now is        4.3 secs

     End of self-consistent calculation

          k = 0.0000 0.0000 0.0000 ( 22119 PWs)   bands (ev):

   -23.5446  -8.4756  -7.4750  -6.6873  -6.2523  -4.8290  -0.0669   0.7840

     the Fermi energy is    -6.4520 ev

!    total energy              =     -31.75235646 Ry
     Harris-Foulkes estimate   =     -31.75235643 Ry
     estimated scf accuracy    <          4.0E-10 Ry

     convergence has been achieved in  16 iterations

     Forces acting on atoms (Ry/au):

     atom    1 type  1   force =     0.10852063    0.10928786    0.00359457
     atom    2 type  1   force =     0.02915410   -0.03085603   -0.02909624
     atom    3 type  2   force =    -0.13767473   -0.07843183    0.02550167

     Total force =     0.228338     Total SCF correction =     0.000078

     Entering Dynamics:    iteration =     2
                           time      =   0.0097 pico-seconds


     Andersen thermostat:    3 collisions

ATOMIC_POSITIONS (bohr)
H        1.636616304   1.698937354   0.022205346
H        0.468829071   5.563414289   2.552493604
O        2.867093761   2.920314053   0.026847129


     kinetic energy (Ekin) =     0.04323030 Ry
     temperature           =  2275.17235555 K 
     Ekin + Etot (const)   =   -31.70912615 Ry
     Message from routine dynamics:
     Total linear momentum <> 0

     Linear momentum :   -0.0152625251    0.1530237925    0.0146535351

     Writing output data file pwscf.save

     first order wave-functions extrapolation
     Check: negative starting charge=   -0.338617
     first order charge density extrapolation
     Check: negative starting charge=   -0.346447

     negative rho (up, down):  2.551E-01 0.000E+00

     total cpu time spent up to now is        4.6 secs

     per-process dynamical memory:    33.3 Mb

     Self-consistent Calculation

     iteration #  1     ecut=    30.00 Ry     beta=0.70
     Davidson diagonalization with overlap
     ethr =  1.00E-06,  avg # of iterations = 17.0

     negative rho (up, down):  3.621E-02 0.000E+00

     total cpu time spent up to now is        4.7 secs

     total energy              =      27.49645165 Ry
     Harris-Foulkes estimate   =    -146.36644236 Ry
     estimated scf accuracy    <      15.73292253 Ry

     iteration #  2     ecut=    30.00 Ry     beta=0.70
     Davidson diagonalization with overlap
     ethr =  1.00E-02,  avg # of iterations =  3.0

     negative rho (up, down):  2.324E-02 0.000E+00

     total cpu time spent up to now is        4.8 secs

     total energy              =     -33.86210814 Ry
     Harris-Foulkes estimate   =     -41.97289732 Ry
     estimated scf accuracy    <      16.26016292 Ry

     iteration #  3     ecut=    30.00 Ry     beta=0.70
     Davidson diagonalization with overlap
     ethr =  1.00E-02,  avg # of iterations =  2.0

     negative rho (up, down):  1.500E-02 0.000E+00

     total cpu time spent up to now is        4.9 secs

     total energy              =     -32.63899022 Ry
     Harris-Foulkes estimate   =     -34.47285581 Ry
     estimated scf accuracy    <       4.58962187 Ry

     iteration #  4     ecut=    30.00 Ry     beta=0.70
     Davidson diagonalization with overlap
     ethr =  1.00E-02,  avg # of iterations =  2.0

     negative rho (up, down):  8.296E-03 0.000E+00

     total cpu time spent up to now is        5.0 secs

     total energy              =     -32.06680962 Ry
     Harris-Foulkes estimate   =     -32.69868652 Ry
     estimated scf accuracy    <       1.72131719 Ry

     iteration #  5     ecut=    30.00 Ry     beta=0.70
     Davidson diagonalization with overlap
     ethr =  1.00E-02,  avg # of iterations =  1.0

     negative rho (up, down):  9.386E-03 0.000E+00

     total cpu time spent up to now is        5.0 secs

     total energy              =     -32.20198680 Ry
     Harris-Foulkes estimate   =     -32.14182701 Ry
     estimated scf accuracy    <       0.40527003 Ry

     iteration #  6     ecut=    30.00 Ry     beta=0.70
     Davidson diagonalization with overlap
     ethr =  5.07E-03,  avg # of iterations =  1.0

     negative rho (up, down):  5.916E-03 0.000E+00

     total cpu time spent up to now is        5.1 secs

     total energy              =     -32.01640191 Ry
     Harris-Foulkes estimate   =     -32.27909547 Ry
     estimated scf accuracy    <       0.96870862 Ry

     iteration #  7     ecut=    30.00 Ry     beta=0.70
     Davidson diagonalization with overlap
     ethr =  5.07E-03,  avg # of iterations =  1.0

     negative rho (up, down):  1.825E-03 0.000E+00

     total cpu time spent up to now is        5.2 secs

     total energy              =     -31.99321372 Ry
     Harris-Foulkes estimate   =     -32.05902315 Ry
     estimated scf accuracy    <       0.23600705 Ry

     iteration #  8     ecut=    30.00 Ry     beta=0.70
     Davidson diagonalization with overlap
     ethr =  2.95E-03,  avg # of iterations =  1.0

     negative rho (up, down):  1.786E-03 0.000E+00

     total cpu time spent up to now is        5.2 secs

     total energy              =     -32.06222597 Ry
     Harris-Foulkes estimate   =     -32.05993958 Ry
     estimated scf accuracy    <       0.82442666 Ry

     iteration #  9     ecut=    30.00 Ry     beta=0.70
     Davidson diagonalization with overlap
     ethr =  2.95E-03,  avg # of iterations =  1.0

     negative rho (up, down):  2.143E-03 0.000E+00

     total cpu time spent up to now is        5.3 secs

     total energy              =     -32.03248736 Ry
     Harris-Foulkes estimate   =     -32.06279362 Ry
     estimated scf accuracy    <       0.84914081 Ry

     iteration # 10     ecut=    30.00 Ry     beta=0.70
     Davidson diagonalization with overlap
     ethr =  2.95E-03,  avg # of iterations =  1.0

     negative rho (up, down):  9.511E-05 0.000E+00

     total cpu time spent up to now is        5.4 secs

     total energy              =     -32.01398992 Ry
     Harris-Foulkes estimate   =     -32.03493261 Ry
     estimated scf accuracy    <       0.58443005 Ry

     iteration # 11     ecut=    30.00 Ry     beta=0.70
     Davidson diagonalization with overlap
     ethr =  2.95E-03,  avg # of iterations =  1.0

     negative rho (up, down):  3.776E-04 0.000E+00

     total cpu time spent up to now is        5.5 secs

     total energy              =     -31.96747417 Ry
     Harris-Foulkes estimate   =     -32.01989214 Ry
     estimated scf accuracy    <       0.25094984 Ry

     iteration # 12     ecut=    30.00 Ry     beta=0.70
     Davidson diagonalization with overlap
     ethr =  2.95E-03,  avg # of iterations =  1.0

     negative rho (up, down):  3.478E-04 0.000E+00

     total cpu time spent up to now is        5.6 secs

     total energy              =     -32.01801436 Ry
     Harris-Foulkes estimate   =     -32.01713309 Ry
     estimated scf accuracy    <       0.12953797 Ry

     iteration # 13     ecut=    30.00 Ry     beta=0.70
     Davidson diagonalization with overlap
     ethr =  1.62E-03,  avg # of iterations =  1.0

     negative rho (up, down):  1.737E-04 0.000E+00

     total cpu time spent up to now is        5.7 secs

     total energy              =     -32.00820895 Ry
     Harris-Foulkes estimate   =     -32.01807078 Ry
     estimated scf accuracy    <       0.13665296 Ry

     iteration # 14     ecut=    30.00 Ry     beta=0.70
     Davidson diagonalization with overlap
     ethr =  1.62E-03,  avg # of iterations =  1.0

     negative rho (up, down):  2.017E-05 0.000E+00

     total cpu time spent up to now is        5.8 secs

     total energy              =     -31.99929496 Ry
     Harris-Foulkes estimate   =     -32.00993450 Ry
     estimated scf accuracy    <       0.05030512 Ry

     iteration # 15     ecut=    30.00 Ry     beta=0.70
     Davidson diagonalization with overlap
     ethr =  6.29E-04,  avg # of iterations =  1.0

     negative rho (up, down):  6.932E-05 0.000E+00

     total cpu time spent up to now is        5.8 secs

     total energy              =     -32.00364138 Ry
     Harris-Foulkes estimate   =     -32.00766149 Ry
     estimated scf accuracy    <       0.02595396 Ry

     iteration # 16     ecut=    30.00 Ry     beta=0.70
     Davidson diagonalization with overlap
     ethr =  3.24E-04,  avg # of iterations =  1.0

     negative rho (up, down):  4.687E-05 0.000E+00

     total cpu time spent up to now is        5.9 secs

     total energy              =     -32.00605556 Ry
     Harris-Foulkes estimate   =     -32.00638445 Ry
     estimated scf accuracy    <       0.00399977 Ry

     iteration # 17     ecut=    30.00 Ry     beta=0.70
     Davidson diagonalization with overlap
     ethr =  5.00E-05,  avg # of iterations =  6.0

     negative rho (up, down):  4.126E-08 0.000E+00

     total cpu time spent up to now is        6.0 secs

     total energy              =     -32.00586421 Ry
     Harris-Foulkes estimate   =     -32.00614684 Ry
     estimated scf accuracy    <       0.00104506 Ry

     iteration # 18     ecut=    30.00 Ry     beta=0.70
     Davidson diagonalization with overlap
     ethr =  1.31E-05,  avg # of iterations =  4.0

     total cpu time spent up to now is        6.1 secs

     total energy              =     -31.99981441 Ry
     Harris-Foulkes estimate   =     -32.01243544 Ry
     estimated scf accuracy    <       0.10160791 Ry

     iteration # 19     ecut=    30.00 Ry     beta=0.70
     Davidson diagonalization with overlap
     ethr =  1.31E-05,  avg # of iterations =  2.0

     total cpu time spent up to now is        6.2 secs

     total energy              =     -32.00618615 Ry
     Harris-Foulkes estimate   =     -32.00614623 Ry
     estimated scf accuracy    <       0.00035587 Ry

     iteration # 20     ecut=    30.00 Ry     beta=0.70
     Davidson diagonalization with overlap
     ethr =  4.45E-06,  avg # of iterations =  1.0

     total cpu time spent up to now is        6.2 secs

     total energy              =     -32.00618877 Ry
     Harris-Foulkes estimate   =     -32.00632789 Ry
     estimated scf accuracy    <       0.00296757 Ry

     iteration # 21     ecut=    30.00 Ry     beta=0.70
     Davidson diagonalization with overlap
     ethr =  4.45E-06,  avg # of iterations =  1.0

     total cpu time spent up to now is        6.3 secs

     total energy              =     -32.00613325 Ry
     Harris-Foulkes estimate   =     -32.00620825 Ry
     estimated scf accuracy    <       0.00145696 Ry

     iteration # 22     ecut=    30.00 Ry     beta=0.70
     Davidson diagonalization with overlap
     ethr =  4.45E-06,  avg # of iterations =  1.0

     total cpu time spent up to now is        6.4 secs

     total energy              =     -32.00605843 Ry
     Harris-Foulkes estimate   =     -32.00614181 Ry
     estimated scf accuracy    <       0.00073932 Ry

     iteration # 23     ecut=    30.00 Ry     beta=0.70
     Davidson diagonalization with overlap
     ethr =  4.45E-06,  avg # of iterations =  1.0

     total cpu time spent up to now is        6.5 secs

     total energy              =     -32.00607123 Ry
     Harris-Foulkes estimate   =     -32.00608243 Ry
     estimated scf accuracy    <       0.00007287 Ry

     iteration # 24     ecut=    30.00 Ry     beta=0.70
     Davidson diagonalization with overlap
     ethr =  9.11E-07,  avg # of iterations =  1.0

     total cpu time spent up to now is        6.5 secs

     total energy              =     -32.00607328 Ry
     Harris-Foulkes estimate   =     -32.00607423 Ry
     estimated scf accuracy    <       0.00000410 Ry

     iteration # 25     ecut=    30.00 Ry     beta=0.70
     Davidson diagonalization with overlap
     ethr =  5.12E-08,  avg # of iterations =  1.0

     total cpu time spent up to now is        6.6 secs

     total energy              =     -32.00607339 Ry
     Harris-Foulkes estimate   =     -32.00607347 Ry
     estimated scf accuracy    <       0.00000019 Ry

     iteration # 26     ecut=    30.00 Ry     beta=0.70
     Davidson diagonalization with overlap
     ethr =  2.43E-09,  avg # of iterations =  1.0

     total cpu time spent up to now is        6.7 secs

     total energy              =     -32.00607332 Ry
     Harris-Foulkes estimate   =     -32.00607340 Ry
     estimated scf accuracy    <       0.00000006 Ry

     iteration # 27     ecut=    30.00 Ry     beta=0.70
     Davidson diagonalization with overlap
     ethr =  7.11E-10,  avg # of iterations =  1.0

     total cpu time spent up to now is        6.7 secs

     End of self-consistent calculation

          k = 0.0000 0.0000 0.0000 ( 22119 PWs)   bands (ev):

   -25.4961 -10.8775  -8.0579  -6.7523  -6.0829  -0.3313   0.4755   0.9207

     the Fermi energy is    -6.4565 ev

!    total energy              =     -32.00607332 Ry
     Harris-Foulkes estimate   =     -32.00607333 Ry
     estimated scf accuracy    <          8.9E-10 Ry

     convergence has been achieved in  27 iterations

     Forces acting on atoms (Ry/au):

     atom    1 type  1   force =    -0.25423617   -0.24571435    0.00205471
     atom    2 type  1   force =     0.04740520   -0.05637154   -0.05225251
     atom    3 type  2   force =     0.20683098    0.30208589    0.05019780

     Total force =     0.519351     Total SCF correction =     0.000049

     Entering Dynamics:    iteration =     3
                           time      =   0.0145 pico-seconds


     Andersen thermostat:    3 collisions

ATOMIC_POSITIONS (bohr)
H       -1.055063216  -1.059653548   0.072495181
H        1.029123756   4.973996567   2.092061684
O        3.001637428   3.131657097   0.052737348


     kinetic energy (Ekin) =     0.19359918 Ry
     temperature           = 10188.95198475 K 
     Ekin + Etot (const)   =   -31.81247414 Ry
     Message from routine dynamics:
     Total linear momentum <> 0

     Linear momentum :    0.0963759652   -0.1106994518   -0.0433029094

     Writing output data file pwscf.save

     second order wave-functions extrapolation
     Check: negative starting charge=   -0.346447
     second order charge density extrapolation
     Check: negative starting charge=   -0.338653

     negative rho (up, down):  4.471E-01 0.000E+00

     total cpu time spent up to now is        7.0 secs

     per-process dynamical memory:    33.3 Mb

     Self-consistent Calculation

     iteration #  1     ecut=    30.00 Ry     beta=0.70
     Davidson diagonalization with overlap
     ethr =  1.00E-06,  avg # of iterations = 13.0

     negative rho (up, down):  9.636E-02 0.000E+00

     total cpu time spent up to now is        7.2 secs

     total energy              =      -5.50145718 Ry
     Harris-Foulkes estimate   =     -56.01280150 Ry
     estimated scf accuracy    <       7.20478078 Ry

     iteration #  2     ecut=    30.00 Ry     beta=0.70
     Davidson diagonalization with overlap
     ethr =  1.00E-02,  avg # of iterations =  4.0

     negative rho (up, down):  6.274E-02 0.000E+00

     total cpu time spent up to now is        7.3 secs

     total energy              =     -31.64669889 Ry
     Harris-Foulkes estimate   =     -35.58771434 Ry
     estimated scf accuracy    <       8.17114104 Ry

     iteration #  3     ecut=    30.00 Ry     beta=0.70
     Davidson diagonalization with overlap
     ethr =  1.00E-02,  avg # of iterations =  3.0

     negative rho (up, down):  4.618E-02 0.000E+00

     total cpu time spent up to now is        7.4 secs

     total energy              =     -32.32632966 Ry
     Harris-Foulkes estimate   =     -33.53370332 Ry
     estimated scf accuracy    <       4.18273241 Ry

     iteration #  4     ecut=    30.00 Ry     beta=0.70
     Davidson diagonalization with overlap
     ethr =  1.00E-02,  avg # of iterations =  2.0

     negative rho (up, down):  5.372E-02 0.000E+00

     total cpu time spent up to now is        7.4 secs

     total energy              =     -32.82791109 Ry
     Harris-Foulkes estimate   =     -32.48750448 Ry
     estimated scf accuracy    <       1.82232722 Ry

     iteration #  5     ecut=    30.00 Ry     beta=0.70
     Davidson diagonalization with overlap
     ethr =  1.00E-02,  avg # of iterations =  4.0

     negative rho (up, down):  5.338E-02 0.000E+00

     total cpu time spent up to now is        7.5 secs

     total energy              =     -32.09488365 Ry
     Harris-Foulkes estimate   =     -33.08456793 Ry
     estimated scf accuracy    <       2.45253196 Ry

     iteration #  6     ecut=    30.00 Ry     beta=0.70
     Davidson diagonalization with overlap
     ethr =  1.00E-02,  avg # of iterations =  3.0

     negative rho (up, down):  3.392E-02 0.000E+00

     total cpu time spent up to now is        7.6 secs

     total energy              =     -30.97305175 Ry
     Harris-Foulkes estimate   =     -32.85402052 Ry
     estimated scf accuracy    <       2.53577414 Ry

     iteration #  7     ecut=    30.00 Ry     beta=0.70
     Davidson diagonalization with overlap
     ethr =  1.00E-02,  avg # of iterations =  3.0

     negative rho (up, down):  1.829E-02 0.000E+00

     total cpu time spent up to now is        7.7 secs

     total energy              =     -31.98739082 Ry
     Harris-Foulkes estimate   =     -32.18624057 Ry
     estimated scf accuracy    <       2.02028647 Ry

     iteration #  8     ecut=    30.00 Ry     beta=0.70
     Davidson diagonalization with overlap
     ethr =  1.00E-02,  avg # of iterations =  2.0

     negative rho (up, down):  1.941E-02 0.000E+00

     total cpu time spent up to now is        7.7 secs

     total energy              =     -31.79333008 Ry
     Harris-Foulkes estimate   =     -32.02301862 Ry
     estimated scf accuracy    <       1.39975782 Ry

     iteration #  9     ecut=    30.00 Ry     beta=0.70
     Davidson diagonalization with overlap
     ethr =  1.00E-02,  avg # of iterations =  2.0

     negative rho (up, down):  2.284E-02 0.000E+00

     total cpu time spent up to now is        7.8 secs

     total energy              =     -31.88977224 Ry
     Harris-Foulkes estimate   =     -31.98469416 Ry
     estimated scf accuracy    <       1.50599319 Ry

     iteration # 10     ecut=    30.00 Ry     beta=0.70
     Davidson diagonalization with overlap
     ethr =  1.00E-02,  avg # of iterations =  3.0

     negative rho (up, down):  1.840E-01 0.000E+00

     total cpu time spent up to now is        7.9 secs

     total energy              =     -32.45145956 Ry
     Harris-Foulkes estimate   =     -31.96681739 Ry
     estimated scf accuracy    <       0.49147252 Ry

     iteration # 11     ecut=    30.00 Ry     beta=0.70
     Davidson diagonalization with overlap
     ethr =  6.14E-03,  avg # of iterations =  6.0

     negative rho (up, down):  2.494E-01 0.000E+00

     total cpu time spent up to now is        8.0 secs

     total energy              =     -21.23193588 Ry
     Harris-Foulkes estimate   =     -82.63427204 Ry
     estimated scf accuracy    <      39.05279064 Ry

     iteration # 12     ecut=    30.00 Ry     beta=0.70
     Davidson diagonalization with overlap
     ethr =  6.14E-03,  avg # of iterations =  6.0

     negative rho (up, down):  2.644E-01 0.000E+00

     total cpu time spent up to now is        8.1 secs

     total energy              =       0.51890940 Ry
     Harris-Foulkes estimate   =     -85.58045703 Ry
     estimated scf accuracy    <      22.56219810 Ry

     iteration # 13     ecut=    30.00 Ry     beta=0.70
     Davidson diagonalization with overlap
     ethr =  6.14E-03,  avg # of iterations =  5.0

     negative rho (up, down):  9.875E-02 0.000E+00

     total cpu time spent up to now is        8.2 secs

     total energy              =     -31.65325995 Ry
     Harris-Foulkes estimate   =     -32.92077866 Ry
     estimated scf accuracy    <       6.23520459 Ry

     iteration # 14     ecut=    30.00 Ry     beta=0.70
     Davidson diagonalization with overlap
     ethr =  6.14E-03,  avg # of iterations =  5.0

     negative rho (up, down):  7.324E-02 0.000E+00

     total cpu time spent up to now is        8.3 secs

     total energy              =     -24.65821438 Ry
     Harris-Foulkes estimate   =     -63.54033916 Ry
     estimated scf accuracy    <      19.27944684 Ry

     iteration # 15     ecut=    30.00 Ry     beta=0.70
     Davidson diagonalization with overlap
     ethr =  6.14E-03,  avg # of iterations =  4.0

     negative rho (up, down):  8.723E-02 0.000E+00

     total cpu time spent up to now is        8.4 secs

     total energy              =     -25.45019796 Ry
     Harris-Foulkes estimate   =     -54.89743889 Ry
     estimated scf accuracy    <      19.12537607 Ry

     iteration # 16     ecut=    30.00 Ry     beta=0.70
     Davidson diagonalization with overlap
     ethr =  6.14E-03,  avg # of iterations =  4.0

     negative rho (up, down):  9.863E-02 0.000E+00

     total cpu time spent up to now is        8.5 secs

     total energy              =      -8.92657916 Ry
     Harris-Foulkes estimate   =    -148.02434016 Ry
     estimated scf accuracy    <      39.09035786 Ry

     iteration # 17     ecut=    30.00 Ry     beta=0.70
     Davidson diagonalization with overlap
     ethr =  6.14E-03,  avg # of iterations =  5.0

     negative rho (up, down):  1.090E-01 0.000E+00

     total cpu time spent up to now is        8.6 secs

     total energy              =     -60.27247588 Ry
     Harris-Foulkes estimate   =    -107.43456501 Ry
     estimated scf accuracy    <      62.59014257 Ry

     iteration # 18     ecut=    30.00 Ry     beta=0.70
     Davidson diagonalization with overlap
     ethr =  6.14E-03,  avg # of iterations =  5.0

     negative rho (up, down):  9.441E-02 0.000E+00

     total cpu time spent up to now is        8.7 secs

     total energy              =      59.17477233 Ry
     Harris-Foulkes estimate   =    -171.12542544 Ry
     estimated scf accuracy    <      70.13122196 Ry

     iteration # 19     ecut=    30.00 Ry     beta=0.70
     Davidson diagonalization with overlap
     ethr =  6.14E-03,  avg # of iterations =  8.0

     negative rho (up, down):  1.149E+00 0.000E+00

     total cpu time spent up to now is        8.8 secs

     total energy              =      58.07122738 Ry
     Harris-Foulkes estimate   =    -109.28038977 Ry
     estimated scf accuracy    <      59.80832191 Ry

     iteration # 20     ecut=    30.00 Ry     beta=0.70
     Davidson diagonalization with overlap
     ethr =  6.14E-03,  avg # of iterations =  6.0

     negative rho (up, down):  1.280E+00 0.000E+00

     total cpu time spent up to now is        9.0 secs

     total energy              =     203.05718913 Ry
     Harris-Foulkes estimate   =   -3458.20905085 Ry
     estimated scf accuracy    <      52.69158605 Ry

     iteration # 21     ecut=    30.00 Ry     beta=0.70
     Davidson diagonalization with overlap
     ethr =  6.14E-03,  avg # of iterations =  8.0

     negative rho (up, down):  1.443E+00 0.000E+00

     total cpu time spent up to now is        9.1 secs

     total energy              =    -577.40824488 Ry
     Harris-Foulkes estimate   =   -3605.56185882 Ry
     estimated scf accuracy    <      58.08709978 Ry

     iteration # 22     ecut=    30.00 Ry     beta=0.70
     Davidson diagonalization with overlap
     ethr =  6.14E-03,  avg # of iterations =  6.0

     negative rho (up, down):  2.642E+00 0.000E+00

     total cpu time spent up to now is        9.2 secs

     total energy              =    -303.98939035 Ry
     Harris-Foulkes estimate   =  -17994.81208085 Ry
     estimated scf accuracy    <      60.94926735 Ry

     iteration # 23     ecut=    30.00 Ry     beta=0.70
     Davidson diagonalization with overlap
     ethr =  6.14E-03,  avg # of iterations =  8.0

     negative rho (up, down):  2.688E+00 0.000E+00

     total cpu time spent up to now is        9.3 secs

     total energy              =    -190.35810520 Ry
     Harris-Foulkes estimate   =   -4093.45566681 Ry
     estimated scf accuracy    <      54.64116160 Ry

     iteration # 24     ecut=    30.00 Ry     beta=0.70
     Davidson diagonalization with overlap
     ethr =  6.14E-03,  avg # of iterations =  5.0

     negative rho (up, down):  2.523E+00 0.000E+00

     total cpu time spent up to now is        9.4 secs

     total energy              =   -3285.89089705 Ry
     Harris-Foulkes estimate   =   -5269.03260457 Ry
     estimated scf accuracy    <      53.70228924 Ry

     iteration # 25     ecut=    30.00 Ry     beta=0.70
     Davidson diagonalization with overlap
     ethr =  6.14E-03,  avg # of iterations =  9.0

     negative rho (up, down):  1.469E+00 0.000E+00

     total cpu time spent up to now is        9.6 secs

     total energy              =    -121.73021517 Ry
     Harris-Foulkes estimate   =  -18729.69174172 Ry
     estimated scf accuracy    <      30.22461235 Ry

     iteration # 26     ecut=    30.00 Ry     beta=0.70
     Davidson diagonalization with overlap
     ethr =  6.14E-03,  avg # of iterations =  7.0

     negative rho (up, down):  1.015E+00 0.000E+00

     total cpu time spent up to now is        9.7 secs

     total energy              =     700.19633779 Ry
     Harris-Foulkes estimate   =   -3632.72658606 Ry
     estimated scf accuracy    <      22.85722770 Ry

     iteration # 27     ecut=    30.00 Ry     beta=0.70
     Davidson diagonalization with overlap
     ethr =  6.14E-03,  avg # of iterations =  8.0

     negative rho (up, down):  1.464E+00 0.000E+00

     total cpu time spent up to now is        9.8 secs

     total energy              =  -14061.59966048 Ry
     Harris-Foulkes estimate   =  -13130.43263445 Ry
     estimated scf accuracy    <      22.67408923 Ry

     iteration # 28     ecut=    30.00 Ry     beta=0.70
     Davidson diagonalization with overlap
     ethr =  6.14E-03,  avg # of iterations =  8.0

     negative rho (up, down):  1.356E-01 0.000E+00

     total cpu time spent up to now is        9.9 secs

     total energy              =     147.34621851 Ry
     Harris-Foulkes estimate   =  -44475.89489837 Ry
     estimated scf accuracy    <      26.47774646 Ry

     iteration # 29     ecut=    30.00 Ry     beta=0.70
     Davidson diagonalization with overlap
     ethr =  6.14E-03,  avg # of iterations = 12.0

     negative rho (up, down):  1.610E-01 0.000E+00

     total cpu time spent up to now is       10.1 secs

     total energy              =     120.20471204 Ry
     Harris-Foulkes estimate   =    -725.32904729 Ry
     estimated scf accuracy    <      20.21642384 Ry

     iteration # 30     ecut=    30.00 Ry     beta=0.70
     Davidson diagonalization with overlap
     ethr =  6.14E-03,  avg # of iterations =  8.0

     negative rho (up, down):  1.430E-01 0.000E+00

     total cpu time spent up to now is       10.2 secs

     total energy              =    -982.86053481 Ry
     Harris-Foulkes estimate   =    -307.31813808 Ry
     estimated scf accuracy    <      25.99407838 Ry

     iteration # 31     ecut=    30.00 Ry     beta=0.70
     Davidson diagonalization with overlap
     ethr =  6.14E-03,  avg # of iterations =  7.0

     negative rho (up, down):  5.714E-02 0.000E+00

     total cpu time spent up to now is       10.3 secs

     total energy              =     110.48625489 Ry
     Harris-Foulkes estimate   =  -17171.06938985 Ry
     estimated scf accuracy    <      25.31525197 Ry

     iteration # 32     ecut=    30.00 Ry     beta=0.70
     Davidson diagonalization with overlap
     ethr =  6.14E-03,  avg # of iterations =  8.0

     negative rho (up, down):  8.404E-03 0.000E+00

     total cpu time spent up to now is       10.4 secs

     total energy              =      60.97265501 Ry
     Harris-Foulkes estimate   =    -247.69867265 Ry
     estimated scf accuracy    <      27.46723783 Ry

     iteration # 33     ecut=    30.00 Ry     beta=0.70
     Davidson diagonalization with overlap
     ethr =  6.14E-03,  avg # of iterations = 11.0

     negative rho (up, down):  1.453E-02 0.000E+00

     total cpu time spent up to now is       10.6 secs

     total energy              =     -13.68886872 Ry
     Harris-Foulkes estimate   =    -264.04474432 Ry
     estimated scf accuracy    <      39.20636125 Ry

     iteration # 34     ecut=    30.00 Ry     beta=0.70
     Davidson diagonalization with overlap
     ethr =  6.14E-03,  avg # of iterations =  7.0

     negative rho (up, down):  7.498E-03 0.000E+00

     total cpu time spent up to now is       10.7 secs

     total energy              =     -72.56354447 Ry
     Harris-Foulkes estimate   =     -68.30321361 Ry
     estimated scf accuracy    <      51.57374366 Ry

     iteration # 35     ecut=    30.00 Ry     beta=0.70
     Davidson diagonalization with overlap
     ethr =  6.14E-03,  avg # of iterations =  3.0

     negative rho (up, down):  3.719E-02 0.000E+00

     total cpu time spent up to now is       10.8 secs

     total energy              =     -29.18173908 Ry
     Harris-Foulkes estimate   =    -407.22013118 Ry
     estimated scf accuracy    <      38.60634742 Ry

     iteration # 36     ecut=    30.00 Ry     beta=0.70
     Davidson diagonalization with overlap
     ethr =  6.14E-03,  avg # of iterations =  7.0

     negative rho (up, down):  1.354E-01 0.000E+00

     total cpu time spent up to now is       10.8 secs

     total energy              =     -78.38682592 Ry
     Harris-Foulkes estimate   =     -72.40877642 Ry
     estimated scf accuracy    <      56.65034909 Ry

     iteration # 37     ecut=    30.00 Ry     beta=0.70
     Davidson diagonalization with overlap
     ethr =  6.14E-03,  avg # of iterations =  4.0

     negative rho (up, down):  9.929E-02 0.000E+00

     total cpu time spent up to now is       10.9 secs

     total energy              =    1386.93416228 Ry
     Harris-Foulkes estimate   =   -1134.99363581 Ry
     estimated scf accuracy    <      20.04354014 Ry

     iteration # 38     ecut=    30.00 Ry     beta=0.70
     Davidson diagonalization with overlap
     ethr =  6.14E-03,  avg # of iterations =  7.0

     negative rho (up, down):  2.774E-01 0.000E+00

     total cpu time spent up to now is       11.1 secs

     total energy              =      90.31533672 Ry
     Harris-Foulkes estimate   =    -814.10679101 Ry
     estimated scf accuracy    <      22.82864572 Ry

     iteration # 39     ecut=    30.00 Ry     beta=0.70
     Davidson diagonalization with overlap
     ethr =  6.14E-03,  avg # of iterations =  8.0

     negative rho (up, down):  2.795E-01 0.000E+00

     total cpu time spent up to now is       11.2 secs

     total energy              =      22.79062611 Ry
     Harris-Foulkes estimate   =    -300.77703007 Ry
     estimated scf accuracy    <      34.45258486 Ry

     iteration # 40     ecut=    30.00 Ry     beta=0.70
     Davidson diagonalization with overlap
     ethr =  6.14E-03,  avg # of iterations =  8.0

     negative rho (up, down):  5.176E-01 0.000E+00

     total cpu time spent up to now is       11.3 secs

     total energy              =     416.70913691 Ry
     Harris-Foulkes estimate   =    -661.78279411 Ry
     estimated scf accuracy    <      65.32858638 Ry

     iteration # 41     ecut=    30.00 Ry     beta=0.70
     Davidson diagonalization with overlap
     ethr =  6.14E-03,  avg # of iterations =  8.0

     negative rho (up, down):  6.566E-01 0.000E+00

     total cpu time spent up to now is       11.5 secs

     total energy              =    -185.22709380 Ry
     Harris-Foulkes estimate   =    -593.38269832 Ry
     estimated scf accuracy    <      64.04129478 Ry

     iteration # 42     ecut=    30.00 Ry     beta=0.70
     Davidson diagonalization with overlap
     ethr =  6.14E-03,  avg # of iterations =  8.0

     negative rho (up, down):  2.620E-01 0.000E+00

     total cpu time spent up to now is       11.6 secs

     total energy              =     141.41496954 Ry
     Harris-Foulkes estimate   =    -988.90826264 Ry
     estimated scf accuracy    <      27.37717021 Ry

     iteration # 43     ecut=    30.00 Ry     beta=0.70
     Davidson diagonalization with overlap
     ethr =  6.14E-03,  avg # of iterations = 10.0

     negative rho (up, down):  3.574E-01 0.000E+00

     total cpu time spent up to now is       11.8 secs

     total energy              =     -48.96332370 Ry
     Harris-Foulkes estimate   =    -228.99631703 Ry
     estimated scf accuracy    <      54.27658113 Ry

     iteration # 44     ecut=    30.00 Ry     beta=0.70
     Davidson diagonalization with overlap
     ethr =  6.14E-03,  avg # of iterations =  7.0

     negative rho (up, down):  3.600E-01 0.000E+00

     total cpu time spent up to now is       11.9 secs

     total energy              =      -3.90904690 Ry
     Harris-Foulkes estimate   =   -1487.35642497 Ry
     estimated scf accuracy    <      33.65512851 Ry

     iteration # 45     ecut=    30.00 Ry     beta=0.70
     Davidson diagonalization with overlap
     ethr =  6.14E-03,  avg # of iterations = 10.0

     negative rho (up, down):  5.201E-01 0.000E+00

     total cpu time spent up to now is       12.0 secs

     total energy              =    1137.80405944 Ry
     Harris-Foulkes estimate   =   -1494.24105745 Ry
     estimated scf accuracy    <      28.66320227 Ry

     iteration # 46     ecut=    30.00 Ry     beta=0.70
     Davidson diagonalization with overlap
     ethr =  6.14E-03,  avg # of iterations =  8.0

     negative rho (up, down):  8.906E-01 0.000E+00

     total cpu time spent up to now is       12.2 secs

     total energy              =    -408.94739942 Ry
     Harris-Foulkes estimate   =   -4879.09246843 Ry
     estimated scf accuracy    <      51.93403347 Ry

     iteration # 47     ecut=    30.00 Ry     beta=0.70
     Davidson diagonalization with overlap
     ethr =  6.14E-03,  avg # of iterations =  7.0

     negative rho (up, down):  1.333E+00 0.000E+00

     total cpu time spent up to now is       12.3 secs

     total energy              =      15.28972423 Ry
     Harris-Foulkes estimate   =   -1304.82514266 Ry
     estimated scf accuracy    <      43.22491901 Ry

     iteration # 48     ecut=    30.00 Ry     beta=0.70
     Davidson diagonalization with overlap
     ethr =  6.14E-03,  avg # of iterations =  9.0

     negative rho (up, down):  1.464E+00 0.000E+00

     total cpu time spent up to now is       12.4 secs

     total energy              =   -1210.97739920 Ry
     Harris-Foulkes estimate   =   -2397.67094905 Ry
     estimated scf accuracy    <      37.24246967 Ry

     iteration # 49     ecut=    30.00 Ry     beta=0.70
     Davidson diagonalization with overlap
     ethr =  6.14E-03,  avg # of iterations =  8.0

     negative rho (up, down):  1.424E+00 0.000E+00

     total cpu time spent up to now is       12.5 secs

     total energy              =      56.52987745 Ry
     Harris-Foulkes estimate   =   -7564.60288700 Ry
     estimated scf accuracy    <      41.66002268 Ry

     iteration # 50     ecut=    30.00 Ry     beta=0.70
     Davidson diagonalization with overlap
     ethr =  6.14E-03,  avg # of iterations = 12.0

     negative rho (up, down):  2.402E-01 0.000E+00

     total cpu time spent up to now is       12.7 secs

     total energy              =      65.17061214 Ry
     Harris-Foulkes estimate   =   -1469.34181011 Ry
     estimated scf accuracy    <      23.19074618 Ry

     iteration # 51     ecut=    30.00 Ry     beta=0.70
     Davidson diagonalization with overlap
     ethr =  6.14E-03,  avg # of iterations =  7.0

     negative rho (up, down):  4.671E-01 0.000E+00

     total cpu time spent up to now is       12.8 secs

     total energy              =      40.17902313 Ry
     Harris-Foulkes estimate   =    -642.41943215 Ry
     estimated scf accuracy    <      39.24001890 Ry

     iteration # 52     ecut=    30.00 Ry     beta=0.70
     Davidson diagonalization with overlap
     ethr =  6.14E-03,  avg # of iterations =  8.0

     negative rho (up, down):  2.631E-01 0.000E+00

     total cpu time spent up to now is       12.9 secs

     total energy              =     384.55460851 Ry
     Harris-Foulkes estimate   =   -2913.26610740 Ry
     estimated scf accuracy    <      33.68288346 Ry

     iteration # 53     ecut=    30.00 Ry     beta=0.70
     Davidson diagonalization with overlap
     ethr =  6.14E-03,  avg # of iterations =  8.0

     negative rho (up, down):  5.219E-01 0.000E+00

     total cpu time spent up to now is       13.1 secs

     total energy              =      62.71376481 Ry
     Harris-Foulkes estimate   =    -545.51760701 Ry
     estimated scf accuracy    <      29.05299218 Ry

     iteration # 54     ecut=    30.00 Ry     beta=0.70
     Davidson diagonalization with overlap
     ethr =  6.14E-03,  avg # of iterations =  9.0

     negative rho (up, down):  4.340E-01 0.000E+00

     total cpu time spent up to now is       13.2 secs

     total energy              =     -16.32008820 Ry
     Harris-Foulkes estimate   =   -1992.47311302 Ry
     estimated scf accuracy    <      27.71747401 Ry

     iteration # 55     ecut=    30.00 Ry     beta=0.70
     Davidson diagonalization with overlap
     ethr =  6.14E-03,  avg # of iterations =  9.0

     negative rho (up, down):  6.279E-01 0.000E+00

     total cpu time spent up to now is       13.3 secs

     total energy              =   -3774.95909386 Ry
     Harris-Foulkes estimate   =   -6631.33085788 Ry
     estimated scf accuracy    <      31.05208223 Ry

     iteration # 56     ecut=    30.00 Ry     beta=0.70
     Davidson diagonalization with overlap
     ethr =  6.14E-03,  avg # of iterations = 10.0

     negative rho (up, down):  3.767E-01 0.000E+00

     total cpu time spent up to now is       13.5 secs

     total energy              =     -12.95646181 Ry
     Harris-Foulkes estimate   =   -8677.61519738 Ry
     estimated scf accuracy    <      20.67005336 Ry

     iteration # 57     ecut=    30.00 Ry     beta=0.70
     Davidson diagonalization with overlap
     ethr =  6.14E-03,  avg # of iterations =  6.0

     negative rho (up, down):  5.043E-01 0.000E+00

     total cpu time spent up to now is       13.6 secs

     total energy              =    -484.43304944 Ry
     Harris-Foulkes estimate   =   -2299.39203857 Ry
     estimated scf accuracy    <      22.61240569 Ry

     iteration # 58     ecut=    30.00 Ry     beta=0.70
     Davidson diagonalization with overlap
     ethr =  6.14E-03,  avg # of iterations =  7.0

     negative rho (up, down):  5.672E-01 0.000E+00

     total cpu time spent up to now is       13.7 secs

     total energy              =    -753.64236876 Ry
     Harris-Foulkes estimate   =   -3063.66489112 Ry
     estimated scf accuracy    <      19.10988296 Ry

     iteration # 59     ecut=    30.00 Ry     beta=0.70
     Davidson diagonalization with overlap
     ethr =  6.14E-03,  avg # of iterations =  5.0

     negative rho (up, down):  6.517E-01 0.000E+00

     total cpu time spent up to now is       13.8 secs

     total energy              =    -146.72326232 Ry
     Harris-Foulkes estimate   =   -2674.73310315 Ry
     estimated scf accuracy    <      21.21580105 Ry

     iteration # 60     ecut=    30.00 Ry     beta=0.70
     Davidson diagonalization with overlap
     ethr =  6.14E-03,  avg # of iterations =  9.0

     negative rho (up, down):  5.309E-03 0.000E+00

     total cpu time spent up to now is       14.0 secs

     total energy              =      90.08137280 Ry
     Harris-Foulkes estimate   =    -864.60354315 Ry
     estimated scf accuracy    <      21.18395442 Ry

     iteration # 61     ecut=    30.00 Ry     beta=0.70
     Davidson diagonalization with overlap
     ethr =  6.14E-03,  avg # of iterations =  8.0

     negative rho (up, down):  1.201E-03 0.000E+00

     total cpu time spent up to now is       14.1 secs

     total energy              =     -32.86260771 Ry
     Harris-Foulkes estimate   =     -37.03478992 Ry
     estimated scf accuracy    <      13.31831755 Ry

     iteration # 62     ecut=    30.00 Ry     beta=0.70
     Davidson diagonalization with overlap
     ethr =  6.14E-03,  avg # of iterations =  4.0

     negative rho (up, down):  3.596E-04 0.000E+00

     total cpu time spent up to now is       14.2 secs

     total energy              =      -6.79933213 Ry
     Harris-Foulkes estimate   =     -63.87848968 Ry
     estimated scf accuracy    <       7.54477642 Ry

     iteration # 63     ecut=    30.00 Ry     beta=0.70
     Davidson diagonalization with overlap
     ethr =  6.14E-03,  avg # of iterations =  4.0

     negative rho (up, down):  3.367E-03 0.000E+00

     total cpu time spent up to now is       14.3 secs

     total energy              =     -31.36065677 Ry
     Harris-Foulkes estimate   =     -32.99459541 Ry
     estimated scf accuracy    <       4.74090001 Ry

     iteration # 64     ecut=    30.00 Ry     beta=0.70
     Davidson diagonalization with overlap
     ethr =  6.14E-03,  avg # of iterations =  2.0

     negative rho (up, down):  6.170E-04 0.000E+00

     total cpu time spent up to now is       14.4 secs

     total energy              =     -31.83118569 Ry
     Harris-Foulkes estimate   =     -32.20504022 Ry
     estimated scf accuracy    <       2.41057891 Ry

     iteration # 65     ecut=    30.00 Ry     beta=0.70
     Davidson diagonalization with overlap
     ethr =  6.14E-03,  avg # of iterations =  1.0

     negative rho (up, down):  1.168E-04 0.000E+00

     total cpu time spent up to now is       14.4 secs

     total energy              =     -31.73883254 Ry
     Harris-Foulkes estimate   =     -31.87040221 Ry
     estimated scf accuracy    <       1.16445202 Ry

     iteration # 66     ecut=    30.00 Ry     beta=0.70
     Davidson diagonalization with overlap
     ethr =  6.14E-03,  avg # of iterations =  1.0

     negative rho (up, down):  4.193E-06 0.000E+00

     total cpu time spent up to now is       14.5 secs

     total energy              =     -31.78265413 Ry
     Harris-Foulkes estimate   =     -31.86432493 Ry
     estimated scf accuracy    <       1.12815792 Ry

     iteration # 67     ecut=    30.00 Ry     beta=0.70
     Davidson diagonalization with overlap
     ethr =  6.14E-03,  avg # of iterations =  1.0

     negative rho (up, down):  4.207E-04 0.000E+00

     total cpu time spent up to now is       14.6 secs

     total energy              =     -31.73337589 Ry
     Harris-Foulkes estimate   =     -31.80114074 Ry
     estimated scf accuracy    <       0.51041062 Ry

     iteration # 68     ecut=    30.00 Ry     beta=0.70
     Davidson diagonalization with overlap
     ethr =  6.14E-03,  avg # of iterations =  2.0

     negative rho (up, down):  1.833E-04 0.000E+00

     total cpu time spent up to now is       14.7 secs

     total energy              =     -31.75977863 Ry
     Harris-Foulkes estimate   =     -31.83266660 Ry
     estimated scf accuracy    <       0.20199939 Ry

     iteration # 69     ecut=    30.00 Ry     beta=0.70
     Davidson diagonalization with overlap
     ethr =  2.52E-03,  avg # of iterations =  2.0

     negative rho (up, down):  9.767E-07 0.000E+00

     total cpu time spent up to now is       14.8 secs

     total energy              =     -31.62852849 Ry
     Harris-Foulkes estimate   =     -31.88371777 Ry
     estimated scf accuracy    <       0.08902351 Ry

     iteration # 70     ecut=    30.00 Ry     beta=0.70
     Davidson diagonalization with overlap
     ethr =  1.11E-03,  avg # of iterations =  2.0

     total cpu time spent up to now is       14.8 secs

     total energy              =     -31.71276483 Ry
     Harris-Foulkes estimate   =     -31.81247498 Ry
     estimated scf accuracy    <       1.08270862 Ry

     iteration # 71     ecut=    30.00 Ry     beta=0.70
     Davidson diagonalization with overlap
     ethr =  1.11E-03,  avg # of iterations =  1.0

     negative rho (up, down):  4.688E-06 0.000E+00

     total cpu time spent up to now is       14.9 secs

     total energy              =     -31.73900160 Ry
     Harris-Foulkes estimate   =     -31.74943908 Ry
     estimated scf accuracy    <       0.05091684 Ry

     iteration # 72     ecut=    30.00 Ry     beta=0.70
     Davidson diagonalization with overlap
     ethr =  6.36E-04,  avg # of iterations =  1.0

     negative rho (up, down):  5.319E-06 0.000E+00

     total cpu time spent up to now is       15.0 secs

     total energy              =     -31.73111565 Ry
     Harris-Foulkes estimate   =     -31.76507979 Ry
     estimated scf accuracy    <       0.59817995 Ry

     iteration # 73     ecut=    30.00 Ry     beta=0.70
     Davidson diagonalization with overlap
     ethr =  6.36E-04,  avg # of iterations =  1.0

     negative rho (up, down):  5.800E-07 0.000E+00

     total cpu time spent up to now is       15.1 secs

     total energy              =     -31.74832202 Ry
     Harris-Foulkes estimate   =     -31.74802450 Ry
     estimated scf accuracy    <       0.01401187 Ry

     iteration # 74     ecut=    30.00 Ry     beta=0.70
     Davidson diagonalization with overlap
     ethr =  1.75E-04,  avg # of iterations =  4.0

     negative rho (up, down):  3.534E-07 0.000E+00

     total cpu time spent up to now is       15.1 secs

     total energy              =     -31.74747521 Ry
     Harris-Foulkes estimate   =     -31.74849661 Ry
     estimated scf accuracy    <       0.03303531 Ry

     iteration # 75     ecut=    30.00 Ry     beta=0.70
     Davidson diagonalization with overlap
     ethr =  1.75E-04,  avg # of iterations =  1.0

     total cpu time spent up to now is       15.2 secs

     total energy              =     -31.74769884 Ry
     Harris-Foulkes estimate   =     -31.74783169 Ry
     estimated scf accuracy    <       0.00284298 Ry

     iteration # 76     ecut=    30.00 Ry     beta=0.70
     Davidson diagonalization with overlap
     ethr =  3.55E-05,  avg # of iterations =  4.0

     total cpu time spent up to now is       15.3 secs

     total energy              =     -31.74777254 Ry
     Harris-Foulkes estimate   =     -31.74777109 Ry
     estimated scf accuracy    <       0.00001529 Ry

     iteration # 77     ecut=    30.00 Ry     beta=0.70
     Davidson diagonalization with overlap
     ethr =  1.91E-07,  avg # of iterations = 15.0

     total cpu time spent up to now is       15.4 secs

     total energy              =     -31.74777097 Ry
     Harris-Foulkes estimate   =     -31.74777394 Ry
     estimated scf accuracy    <       0.00011883 Ry

     iteration # 78     ecut=    30.00 Ry     beta=0.70
     Davidson diagonalization with overlap
     ethr =  1.91E-07,  avg # of iterations =  1.0

     total cpu time spent up to now is       15.5 secs

     total energy              =     -31.74777207 Ry
     Harris-Foulkes estimate   =     -31.74777227 Ry
     estimated scf accuracy    <       0.00000997 Ry

     iteration # 79     ecut=    30.00 Ry     beta=0.70
     Davidson diagonalization with overlap
     ethr =  1.25E-07,  avg # of iterations =  1.0

     total cpu time spent up to now is       15.5 secs

     total energy              =     -31.74777229 Ry
     Harris-Foulkes estimate   =     -31.74777224 Ry
     estimated scf accuracy    <       0.00000016 Ry

     iteration # 80     ecut=    30.00 Ry     beta=0.70
     Davidson diagonalization with overlap
     ethr =  1.98E-09,  avg # of iterations =  1.0

     total cpu time spent up to now is       15.6 secs

     End of self-consistent calculation

          k = 0.0000 0.0000 0.0000 ( 22119 PWs)   bands (ev):

   -23.6176  -8.7018  -7.1741  -6.8807  -6.5213  -4.4828  -0.0655   0.7902

     the Fermi energy is    -6.6999 ev

!    total energy              =     -31.74777230 Ry
     Harris-Foulkes estimate   =     -31.74777230 Ry
     estimated scf accuracy    <          1.0E-09 Ry

     convergence has been achieved in  80 iterations

     Forces acting on atoms (Ry/au):

     atom    1 type  1   force =     0.02262927    0.02270402   -0.00041389
     atom    2 type  1   force =     0.09777062   -0.09183153   -0.10105531
     atom    3 type  2   force =    -0.12039988    0.06912751    0.10146920

     Total force =     0.242493     Total SCF correction =     0.000024

     Entering Dynamics:    iteration =     4
                           time      =   0.0194 pico-seconds


     Andersen thermostat:    3 collisions

ATOMIC_POSITIONS (bohr)
H       -0.812904992  -0.856070406   0.039239813
H        2.028957526   3.870554306   0.932478316
O        2.923236684   3.188460704   0.128035293


     kinetic energy (Ekin) =     0.04899203 Ry
     temperature           =  2578.40671312 K 
     Ekin + Etot (const)   =   -31.69878027 Ry
     Message from routine dynamics:
     Total linear momentum <> 0

     Linear momentum :    0.2082511799    0.1430779067   -0.0944877207

     Writing output data file pwscf.save

     second order wave-functions extrapolation
     Message from extrapolate_wfcs: 
     the matrix <psi(t-dt)|psi(t)> has  1 small (< 0.1) eigenvalues
     Check: negative starting charge=   -0.338653
     second order charge density extrapolation
     Check: negative starting charge=   -0.348125

     negative rho (up, down):  6.022E-01 0.000E+00

     total cpu time spent up to now is       15.9 secs

     per-process dynamical memory:    33.3 Mb

     Self-consistent Calculation

     iteration #  1     ecut=    30.00 Ry     beta=0.70
     Davidson diagonalization with overlap
     ethr =  1.00E-06,  avg # of iterations = 13.0

     negative rho (up, down):  9.143E-02 0.000E+00

     total cpu time spent up to now is       16.1 secs

     total energy              =     -12.72639156 Ry
     Harris-Foulkes estimate   =     -36.05513359 Ry
     estimated scf accuracy    <       8.95717440 Ry

     iteration #  2     ecut=    30.00 Ry     beta=0.70
     Davidson diagonalization with overlap
     ethr =  1.00E-02,  avg # of iterations =  5.0

     negative rho (up, down):  5.497E-02 0.000E+00

     total cpu time spent up to now is       16.2 secs

     total energy              =     -12.98772345 Ry
     Harris-Foulkes estimate   =     -40.72319013 Ry
     estimated scf accuracy    <       8.85222646 Ry

     iteration #  3     ecut=    30.00 Ry     beta=0.70
     Davidson diagonalization with overlap
     ethr =  1.00E-02,  avg # of iterations =  4.0

     negative rho (up, down):  4.646E-02 0.000E+00

     total cpu time spent up to now is       16.2 secs

     total energy              =     -32.24761669 Ry
     Harris-Foulkes estimate   =     -34.61691783 Ry
     estimated scf accuracy    <       6.07347293 Ry

     iteration #  4     ecut=    30.00 Ry     beta=0.70
     Davidson diagonalization with overlap
     ethr =  1.00E-02,  avg # of iterations =  2.0

     negative rho (up, down):  3.866E-02 0.000E+00

     total cpu time spent up to now is       16.3 secs

     total energy              =     -32.01548395 Ry
     Harris-Foulkes estimate   =     -32.55340081 Ry
     estimated scf accuracy    <       2.75445078 Ry

     iteration #  5     ecut=    30.00 Ry     beta=0.70
     Davidson diagonalization with overlap
     ethr =  1.00E-02,  avg # of iterations =  1.0

     negative rho (up, down):  2.662E-02 0.000E+00

     total cpu time spent up to now is       16.4 secs

     total energy              =     -31.82792226 Ry
     Harris-Foulkes estimate   =     -32.51239687 Ry
     estimated scf accuracy    <       2.52800416 Ry

     iteration #  6     ecut=    30.00 Ry     beta=0.70
     Davidson diagonalization with overlap
     ethr =  1.00E-02,  avg # of iterations =  1.0

     negative rho (up, down):  9.078E-02 0.000E+00

     total cpu time spent up to now is       16.5 secs

     total energy              =     -31.45526131 Ry
     Harris-Foulkes estimate   =     -31.85559817 Ry
     estimated scf accuracy    <       0.98514307 Ry

     iteration #  7     ecut=    30.00 Ry     beta=0.70
     Davidson diagonalization with overlap
     ethr =  1.00E-02,  avg # of iterations =  5.0

     negative rho (up, down):  7.220E-02 0.000E+00

     total cpu time spent up to now is       16.5 secs

     total energy              =     -31.85741995 Ry
     Harris-Foulkes estimate   =     -31.95710859 Ry
     estimated scf accuracy    <       1.66704287 Ry

     iteration #  8     ecut=    30.00 Ry     beta=0.70
     Davidson diagonalization with overlap
     ethr =  1.00E-02,  avg # of iterations =  3.0

     negative rho (up, down):  7.602E-02 0.000E+00

     total cpu time spent up to now is       16.6 secs

     total energy              =     -27.63374867 Ry
     Harris-Foulkes estimate   =     -32.00014969 Ry
     estimated scf accuracy    <       4.25344015 Ry

     iteration #  9     ecut=    30.00 Ry     beta=0.70
     Davidson diagonalization with overlap
     ethr =  1.00E-02,  avg # of iterations =  3.0

     negative rho (up, down):  8.625E-02 0.000E+00

     total cpu time spent up to now is       16.7 secs

     total energy              =     -31.88677456 Ry
     Harris-Foulkes estimate   =     -31.91360451 Ry
[...]
     Harris-Foulkes estimate   =    -831.99132684 Ry
     estimated scf accuracy    <      25.74010732 Ry

     iteration # 59     ecut=    30.00 Ry     beta=0.70
     Davidson diagonalization with overlap
     ethr =  1.00E-02,  avg # of iterations =  6.0

     negative rho (up, down):  3.508E-03 0.000E+00

     total cpu time spent up to now is       52.2 secs

     total energy              =     -27.78089452 Ry
     Harris-Foulkes estimate   =     -78.00568222 Ry
     estimated scf accuracy    <      25.02039746 Ry

     iteration # 60     ecut=    30.00 Ry     beta=0.70
     Davidson diagonalization with overlap
     ethr =  1.00E-02,  avg # of iterations =  3.0

     negative rho (up, down):  3.390E-04 0.000E+00

     total cpu time spent up to now is       52.2 secs

     total energy              =      -6.26152841 Ry
     Harris-Foulkes estimate   =    -161.05264883 Ry
     estimated scf accuracy    <      20.35587256 Ry

     iteration # 61     ecut=    30.00 Ry     beta=0.70
     Davidson diagonalization with overlap
     ethr =  1.00E-02,  avg # of iterations =  4.0

     negative rho (up, down):  2.416E-02 0.000E+00

     total cpu time spent up to now is       52.3 secs

     total energy              =     -48.55511487 Ry
     Harris-Foulkes estimate   =     -48.69485059 Ry
     estimated scf accuracy    <      30.55327993 Ry

     iteration # 62     ecut=    30.00 Ry     beta=0.70
     Davidson diagonalization with overlap
     ethr =  1.00E-02,  avg # of iterations =  5.0

     negative rho (up, down):  1.299E-01 0.000E+00

     total cpu time spent up to now is       52.4 secs

     total energy              =     -98.01817379 Ry
     Harris-Foulkes estimate   =    -143.43503600 Ry
     estimated scf accuracy    <      21.65174034 Ry

     iteration # 63     ecut=    30.00 Ry     beta=0.70
     Davidson diagonalization with overlap
     ethr =  1.00E-02,  avg # of iterations =  4.0

     negative rho (up, down):  1.867E-01 0.000E+00

     total cpu time spent up to now is       52.5 secs

     total energy              =      51.57670191 Ry
     Harris-Foulkes estimate   =    -286.64433927 Ry
     estimated scf accuracy    <      19.36145879 Ry

     iteration # 64     ecut=    30.00 Ry     beta=0.70
     Davidson diagonalization with overlap
     ethr =  1.00E-02,  avg # of iterations =  7.0

     negative rho (up, down):  2.736E-01 0.000E+00

     total cpu time spent up to now is       52.6 secs

     total energy              =     -46.97707671 Ry
     Harris-Foulkes estimate   =     -45.76140815 Ry
     estimated scf accuracy    <      25.46817410 Ry

     iteration # 65     ecut=    30.00 Ry     beta=0.70
     Davidson diagonalization with overlap
     ethr =  1.00E-02,  avg # of iterations =  4.0

     negative rho (up, down):  3.366E-01 0.000E+00

     total cpu time spent up to now is       52.7 secs

     total energy              =      -8.30630727 Ry
     Harris-Foulkes estimate   =    -858.80348001 Ry
     estimated scf accuracy    <      18.65777535 Ry

     iteration # 66     ecut=    30.00 Ry     beta=0.70
     Davidson diagonalization with overlap
     ethr =  1.00E-02,  avg # of iterations =  8.0

     negative rho (up, down):  6.993E-01 0.000E+00

     total cpu time spent up to now is       52.8 secs

     total energy              =     -24.86876294 Ry
     Harris-Foulkes estimate   =     -61.02347891 Ry
     estimated scf accuracy    <      12.95815119 Ry

     iteration # 67     ecut=    30.00 Ry     beta=0.70
     Davidson diagonalization with overlap
     ethr =  1.00E-02,  avg # of iterations =  8.0

     negative rho (up, down):  4.617E-01 0.000E+00

     total cpu time spent up to now is       53.0 secs

     total energy              =     112.80725905 Ry
     Harris-Foulkes estimate   =   -1560.60503373 Ry
     estimated scf accuracy    <      28.31439666 Ry

     iteration # 68     ecut=    30.00 Ry     beta=0.70
     Davidson diagonalization with overlap
     ethr =  1.00E-02,  avg # of iterations = 10.0

     negative rho (up, down):  1.973E-01 0.000E+00

     total cpu time spent up to now is       53.1 secs

     total energy              =     -44.59276200 Ry
     Harris-Foulkes estimate   =     -43.82170526 Ry
     estimated scf accuracy    <       9.86301972 Ry

     iteration # 69     ecut=    30.00 Ry     beta=0.70
     Davidson diagonalization with overlap
     ethr =  1.00E-02,  avg # of iterations =  5.0

     negative rho (up, down):  3.107E-01 0.000E+00

     total cpu time spent up to now is       53.2 secs

     total energy              =      36.23183770 Ry
     Harris-Foulkes estimate   =   -7511.07615107 Ry
     estimated scf accuracy    <      22.15289152 Ry

     iteration # 70     ecut=    30.00 Ry     beta=0.70
     Davidson diagonalization with overlap
     ethr =  1.00E-02,  avg # of iterations =  7.0

     negative rho (up, down):  2.770E-01 0.000E+00

     total cpu time spent up to now is       53.3 secs

     total energy              =      65.95539683 Ry
     Harris-Foulkes estimate   =    -224.72879166 Ry
     estimated scf accuracy    <      14.00293318 Ry

     iteration # 71     ecut=    30.00 Ry     beta=0.70
     Davidson diagonalization with overlap
     ethr =  1.00E-02,  avg # of iterations =  6.0

     negative rho (up, down):  2.323E-01 0.000E+00

     total cpu time spent up to now is       53.4 secs

     total energy              =      16.41179139 Ry
     Harris-Foulkes estimate   =    -194.41995657 Ry
     estimated scf accuracy    <       9.32125872 Ry

     iteration # 72     ecut=    30.00 Ry     beta=0.70
     Davidson diagonalization with overlap
     ethr =  1.00E-02,  avg # of iterations =  5.0

     negative rho (up, down):  2.108E-01 0.000E+00

     total cpu time spent up to now is       53.5 secs

     total energy              =      16.80729662 Ry
     Harris-Foulkes estimate   =    -800.48171907 Ry
     estimated scf accuracy    <       7.79922543 Ry

     iteration # 73     ecut=    30.00 Ry     beta=0.70
     Davidson diagonalization with overlap
     ethr =  1.00E-02,  avg # of iterations =  4.0

     negative rho (up, down):  2.347E-01 0.000E+00

     total cpu time spent up to now is       53.6 secs

     total energy              =     -32.58884922 Ry
     Harris-Foulkes estimate   =     -36.44782977 Ry
     estimated scf accuracy    <      11.24537083 Ry

     iteration # 74     ecut=    30.00 Ry     beta=0.70
     Davidson diagonalization with overlap
     ethr =  1.00E-02,  avg # of iterations =  5.0

     negative rho (up, down):  4.555E-03 0.000E+00

     total cpu time spent up to now is       53.7 secs

     total energy              =     -21.63469097 Ry
     Harris-Foulkes estimate   =     -40.37724384 Ry
     estimated scf accuracy    <       7.09653271 Ry

     iteration # 75     ecut=    30.00 Ry     beta=0.70
     Davidson diagonalization with overlap
     ethr =  1.00E-02,  avg # of iterations =  3.0

     negative rho (up, down):  7.243E-04 0.000E+00

     total cpu time spent up to now is       53.8 secs

     total energy              =       5.85111456 Ry
     Harris-Foulkes estimate   =   -1926.47969566 Ry
     estimated scf accuracy    <       7.21737445 Ry

     iteration # 76     ecut=    30.00 Ry     beta=0.70
     Davidson diagonalization with overlap
     ethr =  1.00E-02,  avg # of iterations =  6.0

     negative rho (up, down):  4.457E-02 0.000E+00

     total cpu time spent up to now is       53.9 secs

     total energy              =     -56.64711811 Ry
     Harris-Foulkes estimate   =     -33.78619591 Ry
     estimated scf accuracy    <      10.40511329 Ry

     iteration # 77     ecut=    30.00 Ry     beta=0.70
     Davidson diagonalization with overlap
     ethr =  1.00E-02,  avg # of iterations =  5.0

     negative rho (up, down):  5.319E-02 0.000E+00

     total cpu time spent up to now is       54.0 secs

     total energy              =      29.61088795 Ry
     Harris-Foulkes estimate   =    -655.45226253 Ry
     estimated scf accuracy    <      12.30883043 Ry

     iteration # 78     ecut=    30.00 Ry     beta=0.70
     Davidson diagonalization with overlap
     ethr =  1.00E-02,  avg # of iterations =  5.0

     negative rho (up, down):  4.348E-02 0.000E+00

     total cpu time spent up to now is       54.1 secs

     total energy              =     -21.41958346 Ry
     Harris-Foulkes estimate   =     -34.83130218 Ry
     estimated scf accuracy    <       7.04792605 Ry

     iteration # 79     ecut=    30.00 Ry     beta=0.70
     Davidson diagonalization with overlap
     ethr =  1.00E-02,  avg # of iterations =  4.0

     negative rho (up, down):  1.421E-02 0.000E+00

     total cpu time spent up to now is       54.2 secs

     total energy              =    -101.16715551 Ry
     Harris-Foulkes estimate   =     -41.79170226 Ry
     estimated scf accuracy    <       9.36495936 Ry

     iteration # 80     ecut=    30.00 Ry     beta=0.70
     Davidson diagonalization with overlap
     ethr =  1.00E-02,  avg # of iterations =  6.0

     negative rho (up, down):  5.532E-02 0.000E+00

     total cpu time spent up to now is       54.3 secs

     total energy              =    -809.13271651 Ry
     Harris-Foulkes estimate   =    -163.63836098 Ry
     estimated scf accuracy    <      18.95507975 Ry

     iteration # 81     ecut=    30.00 Ry     beta=0.70
     Davidson diagonalization with overlap
     ethr =  1.00E-02,  avg # of iterations =  4.0

     negative rho (up, down):  4.040E-02 0.000E+00

     total cpu time spent up to now is       54.4 secs

     total energy              =      77.43243611 Ry
     Harris-Foulkes estimate   =   -3000.86098952 Ry
     estimated scf accuracy    <      64.86388507 Ry

     iteration # 82     ecut=    30.00 Ry     beta=0.70
     Davidson diagonalization with overlap
     ethr =  1.00E-02,  avg # of iterations =  9.0

     negative rho (up, down):  4.119E-02 0.000E+00

     total cpu time spent up to now is       54.5 secs

     total energy              =     -29.02078181 Ry
     Harris-Foulkes estimate   =    -130.43832619 Ry
     estimated scf accuracy    <      10.29040306 Ry

     iteration # 83     ecut=    30.00 Ry     beta=0.70
     Davidson diagonalization with overlap
     ethr =  1.00E-02,  avg # of iterations =  4.0

     negative rho (up, down):  8.175E-02 0.000E+00

     total cpu time spent up to now is       54.6 secs

     total energy              =      29.73976378 Ry
     Harris-Foulkes estimate   =    -520.10935678 Ry
     estimated scf accuracy    <      33.16025878 Ry

     iteration # 84     ecut=    30.00 Ry     beta=0.70
     Davidson diagonalization with overlap
     ethr =  1.00E-02,  avg # of iterations = 10.0

     negative rho (up, down):  1.539E-01 0.000E+00

     total cpu time spent up to now is       54.7 secs

     total energy              =    -727.95310793 Ry
     Harris-Foulkes estimate   =    -414.71578116 Ry
     estimated scf accuracy    <      58.06736946 Ry

     iteration # 85     ecut=    30.00 Ry     beta=0.70
     Davidson diagonalization with overlap
     ethr =  1.00E-02,  avg # of iterations =  8.0

     negative rho (up, down):  2.871E-01 0.000E+00

     total cpu time spent up to now is       54.8 secs

     total energy              =    -390.41111846 Ry
     Harris-Foulkes estimate   =   -1705.51587834 Ry
     estimated scf accuracy    <      30.67375524 Ry

     iteration # 86     ecut=    30.00 Ry     beta=0.70
     Davidson diagonalization with overlap
     ethr =  1.00E-02,  avg # of iterations =  7.0

     negative rho (up, down):  3.850E-01 0.000E+00

     total cpu time spent up to now is       55.0 secs

     total energy              =      -0.28366940 Ry
     Harris-Foulkes estimate   =    -856.93769012 Ry
     estimated scf accuracy    <      55.32603176 Ry

     iteration # 87     ecut=    30.00 Ry     beta=0.70
     Davidson diagonalization with overlap
     ethr =  1.00E-02,  avg # of iterations =  7.0

     negative rho (up, down):  9.283E-01 0.000E+00

     total cpu time spent up to now is       55.1 secs

     total energy              =     -65.73219896 Ry
     Harris-Foulkes estimate   =   -1431.83508636 Ry
     estimated scf accuracy    <      56.42923044 Ry

     iteration # 88     ecut=    30.00 Ry     beta=0.70
     Davidson diagonalization with overlap
     ethr =  1.00E-02,  avg # of iterations =  8.0

     negative rho (up, down):  1.244E+00 0.000E+00

     total cpu time spent up to now is       55.2 secs

     total energy              =     -91.21040982 Ry
     Harris-Foulkes estimate   =   -3118.20582096 Ry
     estimated scf accuracy    <      58.29051312 Ry

     iteration # 89     ecut=    30.00 Ry     beta=0.70
     Davidson diagonalization with overlap
     ethr =  1.00E-02,  avg # of iterations =  8.0

     negative rho (up, down):  1.400E+00 0.000E+00

     total cpu time spent up to now is       55.3 secs

     total energy              =      16.26755997 Ry
     Harris-Foulkes estimate   =   -9449.96081325 Ry
     estimated scf accuracy    <      54.52559826 Ry

     iteration # 90     ecut=    30.00 Ry     beta=0.70
     Davidson diagonalization with overlap
     ethr =  1.00E-02,  avg # of iterations =  9.0

     negative rho (up, down):  1.030E+00 0.000E+00

     total cpu time spent up to now is       55.5 secs

     total energy              =    -740.69576693 Ry
     Harris-Foulkes estimate   =   -7058.20417550 Ry
     estimated scf accuracy    <      41.05100426 Ry

     iteration # 91     ecut=    30.00 Ry     beta=0.70
     Davidson diagonalization with overlap
     ethr =  1.00E-02,  avg # of iterations =  9.0

     negative rho (up, down):  2.437E+00 0.000E+00

     total cpu time spent up to now is       55.6 secs

     total energy              =      94.08246398 Ry
     Harris-Foulkes estimate   =   -3850.40209486 Ry
     estimated scf accuracy    <      45.77942737 Ry

     iteration # 92     ecut=    30.00 Ry     beta=0.70
     Davidson diagonalization with overlap
     ethr =  1.00E-02,  avg # of iterations = 15.0

     negative rho (up, down):  2.673E+00 0.000E+00

     total cpu time spent up to now is       55.8 secs

     total energy              =   -1621.90207712 Ry
     Harris-Foulkes estimate   =   -9917.42538626 Ry
     estimated scf accuracy    <      51.19772257 Ry

     iteration # 93     ecut=    30.00 Ry     beta=0.70
     Davidson diagonalization with overlap
     ethr =  1.00E-02,  avg # of iterations =  8.0

     negative rho (up, down):  2.971E+00 0.000E+00

     total cpu time spent up to now is       55.9 secs

     total energy              =      40.61760905 Ry
     Harris-Foulkes estimate   =  -14777.23125178 Ry
     estimated scf accuracy    <      38.57970193 Ry

     iteration # 94     ecut=    30.00 Ry     beta=0.70
     Davidson diagonalization with overlap
     ethr =  1.00E-02,  avg # of iterations =  9.0

     negative rho (up, down):  2.066E+00 0.000E+00

     total cpu time spent up to now is       56.0 secs

     total energy              =     -66.21226769 Ry
     Harris-Foulkes estimate   =   -2258.13505537 Ry
     estimated scf accuracy    <      27.73159598 Ry

     iteration # 95     ecut=    30.00 Ry     beta=0.70
     Davidson diagonalization with overlap
     ethr =  1.00E-02,  avg # of iterations =  7.0

     negative rho (up, down):  1.467E+00 0.000E+00

     total cpu time spent up to now is       56.1 secs

     total energy              =   -1156.03044757 Ry
     Harris-Foulkes estimate   =  -15675.61737050 Ry
     estimated scf accuracy    <      35.41136239 Ry

     iteration # 96     ecut=    30.00 Ry     beta=0.70
     Davidson diagonalization with overlap
     ethr =  1.00E-02,  avg # of iterations =  8.0

     negative rho (up, down):  1.030E+00 0.000E+00

     total cpu time spent up to now is       56.3 secs

     total energy              =     -20.50485765 Ry
     Harris-Foulkes estimate   =  -54253.87061308 Ry
     estimated scf accuracy    <      18.97535100 Ry

     iteration # 97     ecut=    30.00 Ry     beta=0.70
     Davidson diagonalization with overlap
     ethr =  1.00E-02,  avg # of iterations =  6.0

     negative rho (up, down):  5.806E-01 0.000E+00

     total cpu time spent up to now is       56.4 secs

     total energy              =      42.49113583 Ry
     Harris-Foulkes estimate   =   -6907.48908084 Ry
     estimated scf accuracy    <      18.84047785 Ry

     iteration # 98     ecut=    30.00 Ry     beta=0.70
     Davidson diagonalization with overlap
     ethr =  1.00E-02,  avg # of iterations =  6.0

     negative rho (up, down):  4.742E-02 0.000E+00

     total cpu time spent up to now is       56.5 secs

     total energy              =     142.17492276 Ry
     Harris-Foulkes estimate   =    -636.20959720 Ry
     estimated scf accuracy    <      18.04721814 Ry

     iteration # 99     ecut=    30.00 Ry     beta=0.70
     Davidson diagonalization with overlap
     ethr =  1.00E-02,  avg # of iterations = 11.0

     negative rho (up, down):  4.350E-02 0.000E+00

     total cpu time spent up to now is       56.7 secs

     total energy              =      25.81860909 Ry
     Harris-Foulkes estimate   =     -90.06993598 Ry
     estimated scf accuracy    <      25.32130467 Ry

     iteration #100     ecut=    30.00 Ry     beta=0.70
     Davidson diagonalization with overlap
     ethr =  1.00E-02,  avg # of iterations =  8.0

     negative rho (up, down):  5.104E-02 0.000E+00

     total cpu time spent up to now is       56.8 secs

     total energy              =     164.85391370 Ry
     Harris-Foulkes estimate   =    -656.68685181 Ry
     estimated scf accuracy    <      20.02691497 Ry

     End of self-consistent calculation

     convergence NOT achieved after 100 iterations: stopping

     Writing output data file pwscf.save
 
     init_run     :      0.11s CPU      0.14s WALL (       1 calls)
     electrons    :     46.38s CPU     54.23s WALL (      10 calls)
     update_pot   :      1.24s CPU      1.59s WALL (       9 calls)
     forces       :      0.30s CPU      0.31s WALL (       9 calls)

     Called by init_run:
     wfcinit      :      0.02s CPU      0.03s WALL (       1 calls)
     potinit      :      0.04s CPU      0.04s WALL (       1 calls)

     Called by electrons:
     c_bands      :     23.04s CPU     23.60s WALL (     555 calls)
     sum_band     :      3.98s CPU      4.13s WALL (     555 calls)
     v_of_rho     :     11.20s CPU     11.41s WALL (     565 calls)
     mix_rho      :      7.66s CPU     13.96s WALL (     555 calls)

     Called by c_bands:
     init_us_2    :      0.15s CPU      0.17s WALL (    1111 calls)
     cegterg      :     22.83s CPU     23.14s WALL (     555 calls)

     Called by sum_band:

     Called by *egterg:
     h_psi        :     19.54s CPU     19.80s WALL (    3091 calls)
     g_psi        :      0.25s CPU      0.25s WALL (    2535 calls)
     cdiaghg      :      0.61s CPU      0.63s WALL (    3081 calls)

     Called by h_psi:
     h_psi:pot    :     19.36s CPU     19.61s WALL (    3091 calls)
     h_psi:calbec :      0.12s CPU      0.12s WALL (    3091 calls)
     vloc_psi     :     19.17s CPU     19.41s WALL (    3091 calls)
     add_vuspsi   :      0.06s CPU      0.06s WALL (    3091 calls)

     General routines
     calbec       :      0.14s CPU      0.16s WALL (    3135 calls)
     fft          :      7.17s CPU      7.44s WALL (    6233 calls)
     fftw         :     19.23s CPU     19.52s WALL (   39270 calls)
     davcio       :      1.24s CPU      5.34s WALL (   10223 calls)
 
     Parallel routines
     fft_scatter  :      7.88s CPU      8.18s WALL (   45503 calls)
 
     PWSCF        :    48.35s CPU        56.87s WALL

 
   This run was terminated on:  21:37:24  23Jan2018            

=------------------------------------------------------------------------------=
   JOB DONE.
=------------------------------------------------------------------------------=
