
     Program PWSCF v.6.0 (svn rev. 13079) starts on 23Jan2018 at 21:37:25 

     This program is part of the open-source Quantum ESPRESSO suite
     for quantum simulation of materials; please cite
         "P. Giannozzi et al., J. Phys.:Condens. Matter 21 395502 (2009);
          URL http://www.quantum-espresso.org", 
     in publications or presentations arising from this work. More details at
     http://www.quantum-espresso.org/quote

     Parallel version (MPI), running on    10 processors
     R & G space division:  proc/nbgrp/npool/nimage =      10
     Reading input from inputs/H4-1000.in

     Current dimensions of program PWSCF are:
     Max number of different atomic species (ntypx) = 10
     Max number of k-points (npk) =  40000
     Max angular momentum in pseudopotentials (lmaxx) =  3

     Subspace diagonalization in iterative solution of the eigenvalue problem:
     a serial algorithm will be used

 
     Parallelization info
     --------------------
     sticks:   dense  smooth     PW     G-vecs:    dense   smooth      PW
     Min         380     380     94                17748    17748    2208
     Max         381     381     95                17753    17753    2213
     Sum        3809    3809    949               177509   177509   22119
 


     bravais-lattice index     =            1
     lattice parameter (alat)  =      20.0000  a.u.
     unit-cell volume          =    8000.0000 (a.u.)^3
     number of atoms/cell      =            4
     number of atomic types    =            1
     number of electrons       =         4.00
     number of Kohn-Sham states=            6
     kinetic-energy cutoff     =      30.0000  Ry
     charge density cutoff     =     120.0000  Ry
     convergence threshold     =      1.0E-08
     mixing beta               =       0.7000
     number of iterations used =            8  plain     mixing
     Exchange-correlation      = BLYP ( 1  3  1  3 0 0)
     nstep                     =         5000


     celldm(1)=  20.000000  celldm(2)=   0.000000  celldm(3)=   0.000000
     celldm(4)=   0.000000  celldm(5)=   0.000000  celldm(6)=   0.000000

     crystal axes: (cart. coord. in units of alat)
               a(1) = (   1.000000   0.000000   0.000000 )  
               a(2) = (   0.000000   1.000000   0.000000 )  
               a(3) = (   0.000000   0.000000   1.000000 )  

     reciprocal axes: (cart. coord. in units 2 pi/alat)
               b(1) = (  1.000000  0.000000  0.000000 )  
               b(2) = (  0.000000  1.000000  0.000000 )  
               b(3) = (  0.000000  0.000000  1.000000 )  


     PseudoPot. # 1 for  H read from file:
     ./H.blyp-hgh.UPF
     MD5 check sum: c576e69559cde411e611be972c763230
     Pseudo is Norm-conserving, Zval =  1.0
     Generated in analytical, separable form
     Using radial grid of  929 points,  0 beta functions with: 

     atomic species   valence    mass     pseudopotential
        H              1.00     1.01000      H( 1.00)

     No symmetry found



   Cartesian axes

     site n.     atom                  positions (alat units)
         1           H   tau(   1) = (   0.0000000   0.0000000   0.0000000  )
         2           H   tau(   2) = (   0.0000000   0.4000000   0.4000000  )
         3           H   tau(   3) = (   0.4000000   0.4000000   0.0000000  )
         4           H   tau(   4) = (   0.4000000   0.4000000   0.4000000  )

     number of k points=     1  Marzari-Vanderbilt smearing, width (Ry)=  0.0250
                       cart. coord. in units 2pi/alat
        k(    1) = (   0.0000000   0.0000000   0.0000000), wk =   2.0000000

     Dense  grid:   177509 G-vectors     FFT dimensions: (  72,  72,  72)

     Estimated max dynamical RAM per process >       6.66Mb

     Estimated total allocated dynamical RAM >      66.58Mb

     Initial potential from superposition of free atoms
     Check: negative starting charge=   -0.016857

     starting charge    3.99996, renormalised to    4.00000

     negative rho (up, down):  1.686E-02 0.000E+00
     Starting wfc are    4 randomized atomic wfcs +    2 random wfc

     total cpu time spent up to now is        0.2 secs

     per-process dynamical memory:    27.2 Mb

     Self-consistent Calculation

     iteration #  1     ecut=    30.00 Ry     beta=0.70
     Davidson diagonalization with overlap
     ethr =  1.00E-02,  avg # of iterations =  6.0

     Threshold (ethr) on eigenvalues was too large:
     Diagonalizing with lowered threshold

     Davidson diagonalization with overlap
     ethr =  1.74E-05,  avg # of iterations = 10.0

     negative rho (up, down):  2.835E-03 0.000E+00

     total cpu time spent up to now is        0.3 secs

     total energy              =      -3.67775218 Ry
     Harris-Foulkes estimate   =      -3.66268968 Ry
     estimated scf accuracy    <       0.00104851 Ry

     iteration #  2     ecut=    30.00 Ry     beta=0.70
     Davidson diagonalization with overlap
     ethr =  2.62E-05,  avg # of iterations =  7.0

     negative rho (up, down):  6.738E-04 0.000E+00

     total cpu time spent up to now is        0.4 secs

     total energy              =      -3.68080694 Ry
     Harris-Foulkes estimate   =      -3.67811988 Ry
     estimated scf accuracy    <       0.00024283 Ry

     iteration #  3     ecut=    30.00 Ry     beta=0.70
     Davidson diagonalization with overlap
     c_bands:  1 eigenvalues not converged
     ethr =  6.07E-06,  avg # of iterations = 20.0

     negative rho (up, down):  2.391E-04 0.000E+00

     total cpu time spent up to now is        0.4 secs

     total energy              =      -3.67874131 Ry
     Harris-Foulkes estimate   =      -3.68346810 Ry
     estimated scf accuracy    <       0.12496094 Ry

     iteration #  4     ecut=    30.00 Ry     beta=0.70
     Davidson diagonalization with overlap
     ethr =  6.07E-06,  avg # of iterations =  5.0

     negative rho (up, down):  2.250E-04 0.000E+00

     total cpu time spent up to now is        0.5 secs

     total energy              =      -3.68109301 Ry
     Harris-Foulkes estimate   =      -3.68113907 Ry
     estimated scf accuracy    <       0.00089680 Ry

     iteration #  5     ecut=    30.00 Ry     beta=0.70
     Davidson diagonalization with overlap
     ethr =  6.07E-06,  avg # of iterations =  1.0

     negative rho (up, down):  5.719E-08 0.000E+00

     total cpu time spent up to now is        0.6 secs

     total energy              =      -3.68108014 Ry
     Harris-Foulkes estimate   =      -3.68112161 Ry
     estimated scf accuracy    <       0.00007996 Ry

     iteration #  6     ecut=    30.00 Ry     beta=0.70
     Davidson diagonalization with overlap
     ethr =  2.00E-06,  avg # of iterations = 15.0

     negative rho (up, down):  3.027E-08 0.000E+00

     total cpu time spent up to now is        0.7 secs

     total energy              =      -3.68108375 Ry
     Harris-Foulkes estimate   =      -3.68108390 Ry
     estimated scf accuracy    <       0.00000025 Ry

     iteration #  7     ecut=    30.00 Ry     beta=0.70
     Davidson diagonalization with overlap
     ethr =  6.37E-09,  avg # of iterations =  2.0

     negative rho (up, down):  1.521E-08 0.000E+00

     total cpu time spent up to now is        0.7 secs

     total energy              =      -3.68108345 Ry
     Harris-Foulkes estimate   =      -3.68108408 Ry
     estimated scf accuracy    <       0.00001150 Ry

     iteration #  8     ecut=    30.00 Ry     beta=0.70
     Davidson diagonalization with overlap
     ethr =  6.37E-09,  avg # of iterations =  1.0

     total cpu time spent up to now is        0.8 secs

     total energy              =      -3.68108318 Ry
     Harris-Foulkes estimate   =      -3.68108366 Ry
     estimated scf accuracy    <       0.00000004 Ry

     iteration #  9     ecut=    30.00 Ry     beta=0.70
     Davidson diagonalization with overlap
     ethr =  1.01E-09,  avg # of iterations =  1.0

     total cpu time spent up to now is        0.9 secs

     total energy              =      -3.68108127 Ry
     Harris-Foulkes estimate   =      -3.68108318 Ry
     estimated scf accuracy    <       0.00000001 Ry

     iteration # 10     ecut=    30.00 Ry     beta=0.70
     Davidson diagonalization with overlap
     ethr =  3.31E-10,  avg # of iterations =  2.0

     total cpu time spent up to now is        0.9 secs

     End of self-consistent calculation

          k = 0.0000 0.0000 0.0000 ( 22119 PWs)   bands (ev):

    -6.4327  -6.3413  -6.3347  -6.2519  -0.0607   0.4912

     the Fermi energy is    -6.2947 ev

!    total energy              =      -3.68108132 Ry
     Harris-Foulkes estimate   =      -3.68108127 Ry
     estimated scf accuracy    <          1.3E-09 Ry

     convergence has been achieved in  10 iterations

     Forces acting on atoms (Ry/au):

     atom    1 type  1   force =     0.00000726    0.00001559    0.00000728
     atom    2 type  1   force =     0.00145622   -0.00000701   -0.00000773
     atom    3 type  1   force =    -0.00000771   -0.00000706    0.00145630
     atom    4 type  1   force =    -0.00145577   -0.00000151   -0.00145586

     Total force =     0.002912     Total SCF correction =     0.000004

     Molecular Dynamics Calculation

     Starting temperature  =  1000.00 K

     temperature is controlled by Andersen thermostat
     Collision frequency = 1.0000/timestep
     mass H                =     1.01
     Time step             =   100.00 a.u.,  4.8378 femto-seconds

     Entering Dynamics:    iteration =     1
                           time      =   0.0048 pico-seconds


     Andersen thermostat:    4 collisions

ATOMIC_POSITIONS (bohr)
H       -0.437313559   0.381453779  -0.342587156
H       -0.127859014   8.184094370   7.999854297
H        8.057420646   7.846038660   0.265108175
H        8.507751927   7.588413191   8.077624684


     kinetic energy (Ekin) =     0.04797091 Ry
     temperature           =  1683.11077469 K 
     Ekin + Etot (const)   =    -3.63311041 Ry

     Linear momentum :    0.0000000000   -0.0000000000   -0.0000000000

     Writing output data file pwscf.save
     Check: negative starting charge=   -0.016857
     NEW-OLD atomic charge density approx. for the potential
     Check: negative starting charge=   -0.016854

     negative rho (up, down):  2.408E-02 0.000E+00

     total cpu time spent up to now is        1.1 secs

     per-process dynamical memory:    32.5 Mb

     Self-consistent Calculation

     iteration #  1     ecut=    30.00 Ry     beta=0.70
     Davidson diagonalization with overlap
     ethr =  1.00E-06,  avg # of iterations = 11.0

     negative rho (up, down):  4.237E-03 0.000E+00

     total cpu time spent up to now is        1.2 secs

     total energy              =      -3.67414905 Ry
     Harris-Foulkes estimate   =      -3.65313180 Ry
     estimated scf accuracy    <       0.00222586 Ry

     iteration #  2     ecut=    30.00 Ry     beta=0.70
     Davidson diagonalization with overlap
     ethr =  5.56E-05,  avg # of iterations =  3.0

     negative rho (up, down):  4.033E-03 0.000E+00

     total cpu time spent up to now is        1.3 secs

     total energy              =      -3.66372057 Ry
     Harris-Foulkes estimate   =      -3.69615226 Ry
     estimated scf accuracy    <       0.57761675 Ry

     iteration #  3     ecut=    30.00 Ry     beta=0.70
     Davidson diagonalization with overlap
     ethr =  5.56E-05,  avg # of iterations =  2.0

     negative rho (up, down):  2.980E-03 0.000E+00

     total cpu time spent up to now is        1.4 secs

     total energy              =      -3.67719424 Ry
     Harris-Foulkes estimate   =      -3.67604000 Ry
     estimated scf accuracy    <       0.00124180 Ry

     iteration #  4     ecut=    30.00 Ry     beta=0.70
     Davidson diagonalization with overlap
     ethr =  3.10E-05,  avg # of iterations =  3.0

     negative rho (up, down):  1.595E-04 0.000E+00

     total cpu time spent up to now is        1.4 secs

     total energy              =      -3.67969187 Ry
     Harris-Foulkes estimate   =      -3.67860212 Ry
     estimated scf accuracy    <       0.05786391 Ry

     iteration #  5     ecut=    30.00 Ry     beta=0.70
     Davidson diagonalization with overlap
     ethr =  3.10E-05,  avg # of iterations =  5.0

     negative rho (up, down):  1.353E-04 0.000E+00

     total cpu time spent up to now is        1.5 secs

     total energy              =      -3.68069458 Ry
     Harris-Foulkes estimate   =      -3.68089436 Ry
     estimated scf accuracy    <       0.00520934 Ry

     iteration #  6     ecut=    30.00 Ry     beta=0.70
     Davidson diagonalization with overlap
     ethr =  3.10E-05,  avg # of iterations =  1.0

     negative rho (up, down):  1.633E-07 0.000E+00

     total cpu time spent up to now is        1.6 secs

     total energy              =      -3.68077220 Ry
     Harris-Foulkes estimate   =      -3.68079587 Ry
     estimated scf accuracy    <       0.00008016 Ry

     iteration #  7     ecut=    30.00 Ry     beta=0.70
     Davidson diagonalization with overlap
     ethr =  2.00E-06,  avg # of iterations = 13.0

     negative rho (up, down):  1.777E-08 0.000E+00

     total cpu time spent up to now is        1.7 secs

     total energy              =      -3.68077595 Ry
     Harris-Foulkes estimate   =      -3.68077609 Ry
     estimated scf accuracy    <       0.00000555 Ry

     iteration #  8     ecut=    30.00 Ry     beta=0.70
     Davidson diagonalization with overlap
     ethr =  1.39E-07,  avg # of iterations =  1.0

     total cpu time spent up to now is        1.7 secs

     total energy              =      -3.68077441 Ry
     Harris-Foulkes estimate   =      -3.68077656 Ry
     estimated scf accuracy    <       0.00001031 Ry

     iteration #  9     ecut=    30.00 Ry     beta=0.70
     Davidson diagonalization with overlap
     ethr =  1.39E-07,  avg # of iterations =  1.0

     total cpu time spent up to now is        1.8 secs

     total energy              =      -3.68077409 Ry
     Harris-Foulkes estimate   =      -3.68077512 Ry
     estimated scf accuracy    <       0.00000851 Ry

     iteration # 10     ecut=    30.00 Ry     beta=0.70
     Davidson diagonalization with overlap
     ethr =  1.39E-07,  avg # of iterations =  1.0

     total cpu time spent up to now is        1.9 secs

     total energy              =      -3.68077430 Ry
     Harris-Foulkes estimate   =      -3.68077432 Ry
     estimated scf accuracy    <       0.00000037 Ry

     iteration # 11     ecut=    30.00 Ry     beta=0.70
     Davidson diagonalization with overlap
     ethr =  9.15E-09,  avg # of iterations =  1.0

     total cpu time spent up to now is        1.9 secs

     End of self-consistent calculation

          k = 0.0000 0.0000 0.0000 ( 22119 PWs)   bands (ev):

    -6.4233  -6.3397  -6.3330  -6.2567  -0.0598   0.4724

     the Fermi energy is    -6.2925 ev

!    total energy              =      -3.68077430 Ry
     Harris-Foulkes estimate   =      -3.68077431 Ry
     estimated scf accuracy    <          1.5E-09 Ry

     convergence has been achieved in  11 iterations

     Forces acting on atoms (Ry/au):

     atom    1 type  1   force =     0.00000397    0.00001298    0.00000675
     atom    2 type  1   force =     0.00051899   -0.00006215   -0.00000992
     atom    3 type  1   force =     0.00012956   -0.00009490    0.00188701
     atom    4 type  1   force =    -0.00065252    0.00014407   -0.00188384

     Total force =     0.002803     Total SCF correction =     0.000003

     Entering Dynamics:    iteration =     2
                           time      =   0.0097 pico-seconds


     Andersen thermostat:    4 collisions

ATOMIC_POSITIONS (bohr)
H       -0.169778999   0.570980327  -0.728294294
H       -0.097392698   8.316705266   8.071022152
H        7.756766864   7.662551232   0.594542768
H        8.510404833   7.449763175   8.062729374


     kinetic energy (Ekin) =     0.02620995 Ry
     temperature           =   919.60416784 K 
     Ekin + Etot (const)   =    -3.65456435 Ry
     Message from routine dynamics:
     Total linear momentum <> 0

     Linear momentum :    0.0696080434    0.1664638046    0.0687383413

     Writing output data file pwscf.save

     first order wave-functions extrapolation
     Check: negative starting charge=   -0.016854
     first order charge density extrapolation
     Check: negative starting charge=   -0.016839

     negative rho (up, down):  4.479E-02 0.000E+00

     total cpu time spent up to now is        2.2 secs

     per-process dynamical memory:    32.5 Mb

     Self-consistent Calculation

     iteration #  1     ecut=    30.00 Ry     beta=0.70
     Davidson diagonalization with overlap
     ethr =  1.00E-06,  avg # of iterations = 15.0

     negative rho (up, down):  8.408E-03 0.000E+00

     total cpu time spent up to now is        2.3 secs

     total energy              =      -3.27076793 Ry
     Harris-Foulkes estimate   =      -3.66593119 Ry
     estimated scf accuracy    <       0.51813548 Ry

     iteration #  2     ecut=    30.00 Ry     beta=0.70
     Davidson diagonalization with overlap
     ethr =  1.00E-02,  avg # of iterations =  2.0

     negative rho (up, down):  6.375E-03 0.000E+00

     total cpu time spent up to now is        2.4 secs

     total energy              =      -3.81614744 Ry
     Harris-Foulkes estimate   =      -4.57777935 Ry
     estimated scf accuracy    <       2.44027208 Ry

     iteration #  3     ecut=    30.00 Ry     beta=0.70
     Davidson diagonalization with overlap
     ethr =  1.00E-02,  avg # of iterations =  1.0

     negative rho (up, down):  5.879E-03 0.000E+00

     total cpu time spent up to now is        2.4 secs

     total energy              =      -3.83341356 Ry
     Harris-Foulkes estimate   =      -4.12520910 Ry
     estimated scf accuracy    <       2.23952509 Ry

     iteration #  4     ecut=    30.00 Ry     beta=0.70
     Davidson diagonalization with overlap
     ethr =  1.00E-02,  avg # of iterations =  1.0

     negative rho (up, down):  5.729E-03 0.000E+00

     total cpu time spent up to now is        2.5 secs

     total energy              =      -3.84174162 Ry
     Harris-Foulkes estimate   =      -3.98394458 Ry
     estimated scf accuracy    <       2.37474213 Ry

     iteration #  5     ecut=    30.00 Ry     beta=0.70
     Davidson diagonalization with overlap
     ethr =  1.00E-02,  avg # of iterations =  1.0

     negative rho (up, down):  5.030E-03 0.000E+00

     total cpu time spent up to now is        2.5 secs

     total energy              =      -3.73699843 Ry
     Harris-Foulkes estimate   =      -3.85470538 Ry
     estimated scf accuracy    <       1.14079470 Ry

     iteration #  6     ecut=    30.00 Ry     beta=0.70
     Davidson diagonalization with overlap
     ethr =  1.00E-02,  avg # of iterations =  1.0

     negative rho (up, down):  4.622E-03 0.000E+00

     total cpu time spent up to now is        2.6 secs

     total energy              =      -3.67245753 Ry
     Harris-Foulkes estimate   =      -3.77611488 Ry
     estimated scf accuracy    <       1.46618039 Ry

     iteration #  7     ecut=    30.00 Ry     beta=0.70
     Davidson diagonalization with overlap
     ethr =  1.00E-02,  avg # of iterations =  1.0

     negative rho (up, down):  1.596E-03 0.000E+00

     total cpu time spent up to now is        2.7 secs

     total energy              =      -3.56638871 Ry
     Harris-Foulkes estimate   =      -3.68571367 Ry
     estimated scf accuracy    <       0.39977965 Ry

     iteration #  8     ecut=    30.00 Ry     beta=0.70
     Davidson diagonalization with overlap
     ethr =  9.99E-03,  avg # of iterations =  1.0

     negative rho (up, down):  5.992E-04 0.000E+00

     total cpu time spent up to now is        2.7 secs

     total energy              =      -3.84768277 Ry
     Harris-Foulkes estimate   =      -3.85723013 Ry
     estimated scf accuracy    <       1.49166328 Ry

     iteration #  9     ecut=    30.00 Ry     beta=0.70
     Davidson diagonalization with overlap
     ethr =  9.99E-03,  avg # of iterations =  1.0

     negative rho (up, down):  1.809E-04 0.000E+00

     total cpu time spent up to now is        2.8 secs

     total energy              =      -3.67056179 Ry
     Harris-Foulkes estimate   =      -3.84900068 Ry
     estimated scf accuracy    <       1.28865624 Ry

     iteration # 10     ecut=    30.00 Ry     beta=0.70
     Davidson diagonalization with overlap
     ethr =  9.99E-03,  avg # of iterations =  1.0

     negative rho (up, down):  1.215E-04 0.000E+00

     total cpu time spent up to now is        2.9 secs

     total energy              =      -3.65824032 Ry
     Harris-Foulkes estimate   =      -3.68581483 Ry
     estimated scf accuracy    <       0.18529611 Ry

     iteration # 11     ecut=    30.00 Ry     beta=0.70
     Davidson diagonalization with overlap
     ethr =  4.63E-03,  avg # of iterations =  1.0

     negative rho (up, down):  3.824E-06 0.000E+00

     total cpu time spent up to now is        2.9 secs

     total energy              =      -3.69432761 Ry
     Harris-Foulkes estimate   =      -3.78478226 Ry
     estimated scf accuracy    <       1.26969675 Ry

     iteration # 12     ecut=    30.00 Ry     beta=0.70
     Davidson diagonalization with overlap
     ethr =  4.63E-03,  avg # of iterations =  1.0

     negative rho (up, down):  7.069E-08 0.000E+00

     total cpu time spent up to now is        3.0 secs

     total energy              =      -3.64979026 Ry
     Harris-Foulkes estimate   =      -3.70001527 Ry
     estimated scf accuracy    <       0.62055540 Ry

     iteration # 13     ecut=    30.00 Ry     beta=0.70
     Davidson diagonalization with overlap
     ethr =  4.63E-03,  avg # of iterations =  1.0

     negative rho (up, down):  7.042E-07 0.000E+00

     total cpu time spent up to now is        3.1 secs

     total energy              =      -3.67807196 Ry
     Harris-Foulkes estimate   =      -3.69091188 Ry
     estimated scf accuracy    <       0.47083225 Ry

     iteration # 14     ecut=    30.00 Ry     beta=0.70
     Davidson diagonalization with overlap
     ethr =  4.63E-03,  avg # of iterations =  1.0

     negative rho (up, down):  3.399E-07 0.000E+00

     total cpu time spent up to now is        3.2 secs

     total energy              =      -3.68597247 Ry
     Harris-Foulkes estimate   =      -3.68233983 Ry
     estimated scf accuracy    <       0.04190355 Ry

     iteration # 15     ecut=    30.00 Ry     beta=0.70
     Davidson diagonalization with overlap
     ethr =  1.05E-03,  avg # of iterations =  1.0

     negative rho (up, down):  1.481E-06 0.000E+00

     total cpu time spent up to now is        3.3 secs

     total energy              =      -3.68816911 Ry
     Harris-Foulkes estimate   =      -3.69003159 Ry
     estimated scf accuracy    <       0.42919286 Ry

     iteration # 16     ecut=    30.00 Ry     beta=0.70
     Davidson diagonalization with overlap
     ethr =  1.05E-03,  avg # of iterations =  1.0

     negative rho (up, down):  4.692E-06 0.000E+00

     total cpu time spent up to now is        3.3 secs

     total energy              =      -3.68818979 Ry
     Harris-Foulkes estimate   =      -3.68855950 Ry
     estimated scf accuracy    <       0.36800559 Ry

     iteration # 17     ecut=    30.00 Ry     beta=0.70
     Davidson diagonalization with overlap
     ethr =  1.05E-03,  avg # of iterations =  1.0

     negative rho (up, down):  4.674E-06 0.000E+00

     total cpu time spent up to now is        3.4 secs

     total energy              =      -3.68710293 Ry
     Harris-Foulkes estimate   =      -3.68819600 Ry
     estimated scf accuracy    <       0.35187518 Ry

     iteration # 18     ecut=    30.00 Ry     beta=0.70
     Davidson diagonalization with overlap
     ethr =  1.05E-03,  avg # of iterations =  1.0

     negative rho (up, down):  7.607E-06 0.000E+00

     total cpu time spent up to now is        3.5 secs

     total energy              =      -3.68753860 Ry
     Harris-Foulkes estimate   =      -3.68720554 Ry
     estimated scf accuracy    <       0.30141600 Ry

     iteration # 19     ecut=    30.00 Ry     beta=0.70
     Davidson diagonalization with overlap
     ethr =  1.05E-03,  avg # of iterations =  1.0

     negative rho (up, down):  9.379E-08 0.000E+00

     total cpu time spent up to now is        3.6 secs

     total energy              =      -3.68856861 Ry
     Harris-Foulkes estimate   =      -3.68762099 Ry
     estimated scf accuracy    <       0.32563029 Ry

     iteration # 20     ecut=    30.00 Ry     beta=0.70
     Davidson diagonalization with overlap
     ethr =  1.05E-03,  avg # of iterations =  1.0

     negative rho (up, down):  1.183E-08 0.000E+00

     total cpu time spent up to now is        3.6 secs

     total energy              =      -3.67554293 Ry
     Harris-Foulkes estimate   =      -3.68860934 Ry
     estimated scf accuracy    <       0.37270911 Ry

     iteration # 21     ecut=    30.00 Ry     beta=0.70
     Davidson diagonalization with overlap
     ethr =  1.05E-03,  avg # of iterations =  1.0

     negative rho (up, down):  4.349E-08 0.000E+00

     total cpu time spent up to now is        3.7 secs

     total energy              =      -3.68146075 Ry
     Harris-Foulkes estimate   =      -3.68158789 Ry
     estimated scf accuracy    <       0.00239856 Ry

     iteration # 22     ecut=    30.00 Ry     beta=0.70
     Davidson diagonalization with overlap
     ethr =  6.00E-05,  avg # of iterations =  1.0

     negative rho (up, down):  2.852E-08 0.000E+00

     total cpu time spent up to now is        3.8 secs

     total energy              =      -3.68134417 Ry
     Harris-Foulkes estimate   =      -3.68168217 Ry
     estimated scf accuracy    <       0.00824658 Ry

     iteration # 23     ecut=    30.00 Ry     beta=0.70
     Davidson diagonalization with overlap
     ethr =  6.00E-05,  avg # of iterations =  1.0

     total cpu time spent up to now is        3.8 secs

     total energy              =      -3.68152815 Ry
     Harris-Foulkes estimate   =      -3.68153143 Ry
     estimated scf accuracy    <       0.00015596 Ry

     iteration # 24     ecut=    30.00 Ry     beta=0.70
     Davidson diagonalization with overlap
     ethr =  3.90E-06,  avg # of iterations =  5.0

     total cpu time spent up to now is        3.9 secs

     total energy              =      -3.68153149 Ry
     Harris-Foulkes estimate   =      -3.68153101 Ry
     estimated scf accuracy    <       0.00000147 Ry

     iteration # 25     ecut=    30.00 Ry     beta=0.70
     Davidson diagonalization with overlap
     ethr =  3.68E-08,  avg # of iterations =  1.0

     total cpu time spent up to now is        4.0 secs

     total energy              =      -3.68153143 Ry
     Harris-Foulkes estimate   =      -3.68153151 Ry
     estimated scf accuracy    <       0.00000004 Ry

     iteration # 26     ecut=    30.00 Ry     beta=0.70
     Davidson diagonalization with overlap
     ethr =  1.02E-09,  avg # of iterations =  1.0

     total cpu time spent up to now is        4.0 secs

     total energy              =      -3.68153145 Ry
     Harris-Foulkes estimate   =      -3.68153143 Ry
     estimated scf accuracy    <       0.00000002 Ry

     iteration # 27     ecut=    30.00 Ry     beta=0.70
     Davidson diagonalization with overlap
     ethr =  3.83E-10,  avg # of iterations =  1.0

     total cpu time spent up to now is        4.1 secs

     End of self-consistent calculation

          k = 0.0000 0.0000 0.0000 ( 22119 PWs)   bands (ev):

    -6.4415  -6.3428  -6.3362  -6.2438  -0.0603   0.4838

     the Fermi energy is    -6.2961 ev

!    total energy              =      -3.68153146 Ry
     Harris-Foulkes estimate   =      -3.68153145 Ry
     estimated scf accuracy    <          3.2E-10 Ry

     convergence has been achieved in  27 iterations

     Forces acting on atoms (Ry/au):

     atom    1 type  1   force =     0.00001306    0.00001420    0.00000162
     atom    2 type  1   force =     0.00051266   -0.00008280   -0.00000161
     atom    3 type  1   force =     0.00027300   -0.00012781    0.00297911
     atom    4 type  1   force =    -0.00079872    0.00019641   -0.00297912

     Total force =     0.004334     Total SCF correction =     0.000001

     Entering Dynamics:    iteration =     3
                           time      =   0.0145 pico-seconds


     Andersen thermostat:    4 collisions

ATOMIC_POSITIONS (bohr)
H       -0.293182063   0.569406471  -0.395696646
H        0.294844306   8.478936585   8.005791885
H        7.750533372   7.649869680   0.487507508
H        8.247804385   7.301787263   7.902397253


     kinetic energy (Ekin) =     0.02185712 Ry
     temperature           =   766.88057458 K 
     Ekin + Etot (const)   =    -3.65967434 Ry
     Message from routine dynamics:
     Total linear momentum <> 0

     Linear momentum :   -0.1354089656    0.1079497128   -0.0721587808

     Writing output data file pwscf.save

     second order wave-functions extrapolation
     Check: negative starting charge=   -0.016839
     second order charge density extrapolation
     Check: negative starting charge=   -0.017072

     negative rho (up, down):  2.248E-02 0.000E+00

     total cpu time spent up to now is        4.4 secs

     per-process dynamical memory:    32.5 Mb

     Self-consistent Calculation

     iteration #  1     ecut=    30.00 Ry     beta=0.70
     Davidson diagonalization with overlap
     c_bands:  1 eigenvalues not converged
     ethr =  1.00E-06,  avg # of iterations = 20.0

     negative rho (up, down):  3.920E-03 0.000E+00

     total cpu time spent up to now is        4.5 secs

     total energy              =      -3.67341626 Ry
     Harris-Foulkes estimate   =      -3.65638430 Ry
     estimated scf accuracy    <       0.00590922 Ry

     iteration #  2     ecut=    30.00 Ry     beta=0.70
     Davidson diagonalization with overlap
     ethr =  1.48E-04,  avg # of iterations =  3.0

     negative rho (up, down):  3.735E-03 0.000E+00

     total cpu time spent up to now is        4.5 secs

     total energy              =      -3.64407200 Ry
     Harris-Foulkes estimate   =      -3.74695250 Ry
     estimated scf accuracy    <       1.79387941 Ry

     iteration #  3     ecut=    30.00 Ry     beta=0.70
     Davidson diagonalization with overlap
     ethr =  1.48E-04,  avg # of iterations =  1.0

     negative rho (up, down):  3.618E-03 0.000E+00

     total cpu time spent up to now is        4.6 secs

     total energy              =      -3.67494173 Ry
     Harris-Foulkes estimate   =      -3.68214525 Ry
     estimated scf accuracy    <       0.19784400 Ry

     iteration #  4     ecut=    30.00 Ry     beta=0.70
     Davidson diagonalization with overlap
     ethr =  1.48E-04,  avg # of iterations =  1.0

     negative rho (up, down):  2.563E-03 0.000E+00

     total cpu time spent up to now is        4.7 secs

     total energy              =      -3.67956802 Ry
     Harris-Foulkes estimate   =      -3.67841726 Ry
     estimated scf accuracy    <       0.00654202 Ry

     iteration #  5     ecut=    30.00 Ry     beta=0.70
     Davidson diagonalization with overlap
     ethr =  1.48E-04,  avg # of iterations =  1.0

     negative rho (up, down):  6.642E-05 0.000E+00

     total cpu time spent up to now is        4.7 secs

     total energy              =      -3.68143809 Ry
     Harris-Foulkes estimate   =      -3.68031806 Ry
     estimated scf accuracy    <       0.03004594 Ry

     iteration #  6     ecut=    30.00 Ry     beta=0.70
     Davidson diagonalization with overlap
     ethr =  1.48E-04,  avg # of iterations =  4.0

     negative rho (up, down):  3.088E-05 0.000E+00

     total cpu time spent up to now is        4.8 secs

     total energy              =      -3.68183657 Ry
     Harris-Foulkes estimate   =      -3.68238566 Ry
     estimated scf accuracy    <       0.00782842 Ry

     iteration #  7     ecut=    30.00 Ry     beta=0.70
     Davidson diagonalization with overlap
     ethr =  1.48E-04,  avg # of iterations =  1.0

     negative rho (up, down):  2.373E-07 0.000E+00

     total cpu time spent up to now is        4.9 secs

     total energy              =      -3.68216074 Ry
     Harris-Foulkes estimate   =      -3.68231954 Ry
     estimated scf accuracy    <       0.00512084 Ry

     iteration #  8     ecut=    30.00 Ry     beta=0.70
     Davidson diagonalization with overlap
     ethr =  1.28E-04,  avg # of iterations =  1.0

     negative rho (up, down):  1.976E-08 0.000E+00

     total cpu time spent up to now is        4.9 secs

     total energy              =      -3.68225171 Ry
     Harris-Foulkes estimate   =      -3.68225197 Ry
     estimated scf accuracy    <       0.00000491 Ry

     iteration #  9     ecut=    30.00 Ry     beta=0.70
     Davidson diagonalization with overlap
     ethr =  1.23E-07,  avg # of iterations =  5.0

     total cpu time spent up to now is        5.0 secs

     total energy              =      -3.68224968 Ry
     Harris-Foulkes estimate   =      -3.68225224 Ry
     estimated scf accuracy    <       0.00004540 Ry

     iteration # 10     ecut=    30.00 Ry     beta=0.70
     Davidson diagonalization with overlap
     ethr =  1.23E-07,  avg # of iterations =  1.0

     total cpu time spent up to now is        5.1 secs

     total energy              =      -3.68224945 Ry
     Harris-Foulkes estimate   =      -3.68225013 Ry
     estimated scf accuracy    <       0.00000374 Ry

     iteration # 11     ecut=    30.00 Ry     beta=0.70
     Davidson diagonalization with overlap
     ethr =  9.35E-08,  avg # of iterations =  1.0

     total cpu time spent up to now is        5.1 secs

     End of self-consistent calculation

          k = 0.0000 0.0000 0.0000 ( 22119 PWs)   bands (ev):

    -6.4589  -6.3466  -6.3374  -6.2349  -0.0628   0.4965

     the Fermi energy is    -6.3001 ev

!    total energy              =      -3.68224930 Ry
     Harris-Foulkes estimate   =      -3.68224952 Ry
     estimated scf accuracy    <          2.4E-10 Ry

     convergence has been achieved in  11 iterations

     Forces acting on atoms (Ry/au):

     atom    1 type  1   force =     0.00000434    0.00001314    0.00000892
     atom    2 type  1   force =     0.00130780   -0.00019353   -0.00002882
     atom    3 type  1   force =     0.00025878   -0.00022194    0.00324090
     atom    4 type  1   force =    -0.00157093    0.00040233   -0.00322100

     Total force =     0.005037     Total SCF correction =     0.000005

     Entering Dynamics:    iteration =     4
                           time      =   0.0194 pico-seconds


     Andersen thermostat:    4 collisions

ATOMIC_POSITIONS (bohr)
H       -0.683244712   0.351593125  -0.291413597
H        0.726513826   8.452853535   8.154185245
H        7.653989827   7.550034988   0.944978506
H        8.302741060   7.645518353   7.192249847


     kinetic energy (Ekin) =     0.05816189 Ry
     temperature           =  2040.67233417 K 
     Ekin + Etot (const)   =    -3.62408741 Ry
     Message from routine dynamics:
     Total linear momentum <> 0

     Linear momentum :   -0.1218795288    0.0538911130   -0.1162756246

     Writing output data file pwscf.save

     second order wave-functions extrapolation
     Check: negative starting charge=   -0.017072
     second order charge density extrapolation
     Check: negative starting charge=   -0.017479

     negative rho (up, down):  4.262E-02 0.000E+00

     total cpu time spent up to now is        5.4 secs

     per-process dynamical memory:    32.5 Mb

     Self-consistent Calculation

     iteration #  1     ecut=    30.00 Ry     beta=0.70
     Davidson diagonalization with overlap
     ethr =  1.00E-06,  avg # of iterations = 15.0

     negative rho (up, down):  9.405E-03 0.000E+00

     total cpu time spent up to now is        5.5 secs

     total energy              =      -1.69317647 Ry
     Harris-Foulkes estimate   =      -4.56084329 Ry
     estimated scf accuracy    <       1.32045154 Ry

     iteration #  2     ecut=    30.00 Ry     beta=0.70
     Davidson diagonalization with overlap
     ethr =  1.00E-02,  avg # of iterations =  3.0

     negative rho (up, down):  6.317E-03 0.000E+00

     total cpu time spent up to now is        5.6 secs

     total energy              =      -3.94002282 Ry
     Harris-Foulkes estimate   =      -5.08479196 Ry
     estimated scf accuracy    <       2.86945847 Ry

     iteration #  3     ecut=    30.00 Ry     beta=0.70
     Davidson diagonalization with overlap
     ethr =  1.00E-02,  avg # of iterations =  2.0

     negative rho (up, down):  5.783E-03 0.000E+00

     total cpu time spent up to now is        5.6 secs

     total energy              =      -3.98371174 Ry
     Harris-Foulkes estimate   =      -4.40404942 Ry
     estimated scf accuracy    <       2.75318158 Ry

     iteration #  4     ecut=    30.00 Ry     beta=0.70
     Davidson diagonalization with overlap
     ethr =  1.00E-02,  avg # of iterations =  1.0

     negative rho (up, down):  5.626E-03 0.000E+00

     total cpu time spent up to now is        5.7 secs

     total energy              =      -3.95282740 Ry
     Harris-Foulkes estimate   =      -4.02808114 Ry
     estimated scf accuracy    <       1.70470058 Ry

     iteration #  5     ecut=    30.00 Ry     beta=0.70
     Davidson diagonalization with overlap
     ethr =  1.00E-02,  avg # of iterations =  1.0

     negative rho (up, down):  2.803E-03 0.000E+00

     total cpu time spent up to now is        5.8 secs

     total energy              =      -3.51592251 Ry
     Harris-Foulkes estimate   =      -3.97413578 Ry
     estimated scf accuracy    <       1.15454624 Ry

     iteration #  6     ecut=    30.00 Ry     beta=0.70
     Davidson diagonalization with overlap
     ethr =  1.00E-02,  avg # of iterations =  2.0

     negative rho (up, down):  2.777E-03 0.000E+00

     total cpu time spent up to now is        5.8 secs

     total energy              =      -3.56923093 Ry
     Harris-Foulkes estimate   =      -3.90243423 Ry
     estimated scf accuracy    <       2.00101214 Ry

     iteration #  7     ecut=    30.00 Ry     beta=0.70
     Davidson diagonalization with overlap
     ethr =  1.00E-02,  avg # of iterations =  1.0

     negative rho (up, down):  2.748E-03 0.000E+00

     total cpu time spent up to now is        5.9 secs

     total energy              =      -3.77089663 Ry
     Harris-Foulkes estimate   =      -3.77688276 Ry
     estimated scf accuracy    <       1.12286446 Ry

     iteration #  8     ecut=    30.00 Ry     beta=0.70
     Davidson diagonalization with overlap
     ethr =  1.00E-02,  avg # of iterations =  1.0

     negative rho (up, down):  2.508E-03 0.000E+00

     total cpu time spent up to now is        6.0 secs

     total energy              =      -3.74851126 Ry
     Harris-Foulkes estimate   =      -3.77111934 Ry
     estimated scf accuracy    <       1.04691200 Ry

     iteration #  9     ecut=    30.00 Ry     beta=0.70
     Davidson diagonalization with overlap
     ethr =  1.00E-02,  avg # of iterations =  1.0

     negative rho (up, down):  2.417E-03 0.000E+00

     total cpu time spent up to now is        6.0 secs

     total energy              =      -3.71970945 Ry
     Harris-Foulkes estimate   =      -3.74915769 Ry
     estimated scf accuracy    <       1.09524703 Ry

     iteration # 10     ecut=    30.00 Ry     beta=0.70
     Davidson diagonalization with overlap
     ethr =  1.00E-02,  avg # of iterations =  1.0

     negative rho (up, down):  5.253E-02 0.000E+00

     total cpu time spent up to now is        6.1 secs

     total energy              =      -3.46603954 Ry
     Harris-Foulkes estimate   =      -3.72321598 Ry
     estimated scf accuracy    <       0.59973447 Ry

     iteration # 11     ecut=    30.00 Ry     beta=0.70
     Davidson diagonalization with overlap
     ethr =  1.00E-02,  avg # of iterations =  1.0

     negative rho (up, down):  5.249E-03 0.000E+00

     total cpu time spent up to now is        6.2 secs

     total energy              =      -3.95179268 Ry
     Harris-Foulkes estimate   =      -4.14089722 Ry
     estimated scf accuracy    <       2.45426768 Ry

     iteration # 12     ecut=    30.00 Ry     beta=0.70
     Davidson diagonalization with overlap
     ethr =  1.00E-02,  avg # of iterations =  1.0

     negative rho (up, down):  2.130E-02 0.000E+00

     total cpu time spent up to now is        6.3 secs

     total energy              =      -4.47322951 Ry
     Harris-Foulkes estimate   =      -4.25936931 Ry
     estimated scf accuracy    <       2.63108893 Ry

     iteration # 13     ecut=    30.00 Ry     beta=0.70
     Davidson diagonalization with overlap
     ethr =  1.00E-02,  avg # of iterations =  1.0

     negative rho (up, down):  2.326E-04 0.000E+00

     total cpu time spent up to now is        6.3 secs

     total energy              =      -3.99567105 Ry
     Harris-Foulkes estimate   =      -4.47760609 Ry
     estimated scf accuracy    <       3.00037784 Ry

     iteration # 14     ecut=    30.00 Ry     beta=0.70
     Davidson diagonalization with overlap
     ethr =  1.00E-02,  avg # of iterations =  1.0

     negative rho (up, down):  1.103E-04 0.000E+00

     total cpu time spent up to now is        6.4 secs

     total energy              =      -3.81334568 Ry
     Harris-Foulkes estimate   =      -4.00377911 Ry
     estimated scf accuracy    <       1.63973999 Ry

     iteration # 15     ecut=    30.00 Ry     beta=0.70
     Davidson diagonalization with overlap
     ethr =  1.00E-02,  avg # of iterations =  1.0

     negative rho (up, down):  2.190E-02 0.000E+00

     total cpu time spent up to now is        6.5 secs

     total energy              =      -4.00449662 Ry
     Harris-Foulkes estimate   =      -3.93125642 Ry
     estimated scf accuracy    <       1.75448091 Ry

     iteration # 16     ecut=    30.00 Ry     beta=0.70
     Davidson diagonalization with overlap
     ethr =  1.00E-02,  avg # of iterations =  1.0

     negative rho (up, down):  5.821E-05 0.000E+00

     total cpu time spent up to now is        6.5 secs

     total energy              =      -3.99916353 Ry
     Harris-Foulkes estimate   =      -4.13682835 Ry
     estimated scf accuracy    <       2.44012042 Ry

     iteration # 17     ecut=    30.00 Ry     beta=0.70
     Davidson diagonalization with overlap
     ethr =  1.00E-02,  avg # of iterations =  1.0

     negative rho (up, down):  2.072E-04 0.000E+00

     total cpu time spent up to now is        6.6 secs

     total energy              =      -3.49877752 Ry
     Harris-Foulkes estimate   =      -4.00188647 Ry
     estimated scf accuracy    <       2.25335546 Ry

     iteration # 18     ecut=    30.00 Ry     beta=0.70
     Davidson diagonalization with overlap
     ethr =  1.00E-02,  avg # of iterations =  1.0

     negative rho (up, down):  2.616E-05 0.000E+00

     total cpu time spent up to now is        6.7 secs

     total energy              =      -3.66338877 Ry
     Harris-Foulkes estimate   =      -3.80278838 Ry
     estimated scf accuracy    <       0.93509977 Ry

     iteration # 19     ecut=    30.00 Ry     beta=0.70
     Davidson diagonalization with overlap
     ethr =  1.00E-02,  avg # of iterations =  1.0

     negative rho (up, down):  1.864E-05 0.000E+00

     total cpu time spent up to now is        6.7 secs

     total energy              =      -3.70425070 Ry
     Harris-Foulkes estimate   =      -3.70266738 Ry
     estimated scf accuracy    <       0.50846073 Ry

     iteration # 20     ecut=    30.00 Ry     beta=0.70
     Davidson diagonalization with overlap
     ethr =  1.00E-02,  avg # of iterations =  1.0

     negative rho (up, down):  1.576E-05 0.000E+00

     total cpu time spent up to now is        6.8 secs

     total energy              =      -3.65577639 Ry
     Harris-Foulkes estimate   =      -3.70944914 Ry
     estimated scf accuracy    <       0.71476592 Ry

     iteration # 21     ecut=    30.00 Ry     beta=0.70
     Davidson diagonalization with overlap
     ethr =  1.00E-02,  avg # of iterations =  1.0

     negative rho (up, down):  1.119E-06 0.000E+00

     total cpu time spent up to now is        6.9 secs

     total energy              =      -3.78652178 Ry
     Harris-Foulkes estimate   =      -3.81380640 Ry
     estimated scf accuracy    <       1.19021902 Ry

     iteration # 22     ecut=    30.00 Ry     beta=0.70
     Davidson diagonalization with overlap
     ethr =  1.00E-02,  avg # of iterations =  1.0

     negative rho (up, down):  1.120E-05 0.000E+00

     total cpu time spent up to now is        6.9 secs

     total energy              =      -3.79780046 Ry
     Harris-Foulkes estimate   =      -3.78684769 Ry
     estimated scf accuracy    <       1.14020853 Ry

     iteration # 23     ecut=    30.00 Ry     beta=0.70
     Davidson diagonalization with overlap
     ethr =  1.00E-02,  avg # of iterations =  1.0

     negative rho (up, down):  4.197E-08 0.000E+00

     total cpu time spent up to now is        7.0 secs

     total energy              =      -3.64295435 Ry
     Harris-Foulkes estimate   =      -3.79943258 Ry
     estimated scf accuracy    <       1.02360937 Ry

     iteration # 24     ecut=    30.00 Ry     beta=0.70
     Davidson diagonalization with overlap
     ethr =  1.00E-02,  avg # of iterations =  1.0

     negative rho (up, down):  2.739E-07 0.000E+00

     total cpu time spent up to now is        7.1 secs

     total energy              =      -3.73891983 Ry
     Harris-Foulkes estimate   =      -3.71139266 Ry
     estimated scf accuracy    <       0.80389221 Ry

     iteration # 25     ecut=    30.00 Ry     beta=0.70
     Davidson diagonalization with overlap
     ethr =  1.00E-02,  avg # of iterations =  1.0

     negative rho (up, down):  1.100E-07 0.000E+00

     total cpu time spent up to now is        7.2 secs

     total energy              =      -3.69288257 Ry
     Harris-Foulkes estimate   =      -3.75997893 Ry
     estimated scf accuracy    <       1.06994054 Ry

     iteration # 26     ecut=    30.00 Ry     beta=0.70
     Davidson diagonalization with overlap
     ethr =  1.00E-02,  avg # of iterations =  1.0

     negative rho (up, down):  3.169E-08 0.000E+00

     total cpu time spent up to now is        7.2 secs

     total energy              =      -3.67921086 Ry
     Harris-Foulkes estimate   =      -3.70179721 Ry
     estimated scf accuracy    <       0.47927337 Ry

     iteration # 27     ecut=    30.00 Ry     beta=0.70
     Davidson diagonalization with overlap
     ethr =  1.00E-02,  avg # of iterations =  1.0

     negative rho (up, down):  1.479E-06 0.000E+00

     total cpu time spent up to now is        7.3 secs

     total energy              =      -3.67227936 Ry
     Harris-Foulkes estimate   =      -3.70567130 Ry
     estimated scf accuracy    <       0.43817105 Ry

     iteration # 28     ecut=    30.00 Ry     beta=0.70
     Davidson diagonalization with overlap
     ethr =  1.00E-02,  avg # of iterations =  1.0

     negative rho (up, down):  3.926E-08 0.000E+00

     total cpu time spent up to now is        7.4 secs

     total energy              =      -3.69188202 Ry
     Harris-Foulkes estimate   =      -3.69452153 Ry
     estimated scf accuracy    <       0.10102707 Ry

     iteration # 29     ecut=    30.00 Ry     beta=0.70
     Davidson diagonalization with overlap
     ethr =  2.53E-03,  avg # of iterations =  1.0

     negative rho (up, down):  3.911E-08 0.000E+00

     total cpu time spent up to now is        7.4 secs

     total energy              =      -3.69402658 Ry
     Harris-Foulkes estimate   =      -3.69726574 Ry
     estimated scf accuracy    <       0.24460969 Ry

     iteration # 30     ecut=    30.00 Ry     beta=0.70
     Davidson diagonalization with overlap
     ethr =  2.53E-03,  avg # of iterations =  1.0

     negative rho (up, down):  4.720E-08 0.000E+00

     total cpu time spent up to now is        7.5 secs

     total energy              =      -3.69273644 Ry
     Harris-Foulkes estimate   =      -3.69450090 Ry
     estimated scf accuracy    <       0.12279080 Ry

     iteration # 31     ecut=    30.00 Ry     beta=0.70
     Davidson diagonalization with overlap
     ethr =  2.53E-03,  avg # of iterations =  1.0

     negative rho (up, down):  3.921E-08 0.000E+00

     total cpu time spent up to now is        7.6 secs

     total energy              =      -3.69105926 Ry
     Harris-Foulkes estimate   =      -3.69333726 Ry
     estimated scf accuracy    <       0.07161682 Ry

     iteration # 32     ecut=    30.00 Ry     beta=0.70
     Davidson diagonalization with overlap
     ethr =  1.79E-03,  avg # of iterations =  1.0

     total cpu time spent up to now is        7.6 secs

     total energy              =      -3.69190248 Ry
     Harris-Foulkes estimate   =      -3.69205129 Ry
     estimated scf accuracy    <       0.00362510 Ry

     iteration # 33     ecut=    30.00 Ry     beta=0.70
     Davidson diagonalization with overlap
     ethr =  9.06E-05,  avg # of iterations =  1.0

     total cpu time spent up to now is        7.7 secs

     total energy              =      -3.69223115 Ry
     Harris-Foulkes estimate   =      -3.69203628 Ry
     estimated scf accuracy    <       0.00309206 Ry

     iteration # 34     ecut=    30.00 Ry     beta=0.70
     Davidson diagonalization with overlap
     ethr =  7.73E-05,  avg # of iterations =  1.0

     total cpu time spent up to now is        7.8 secs

     total energy              =      -3.69147844 Ry
     Harris-Foulkes estimate   =      -3.69238241 Ry
     estimated scf accuracy    <       0.01991124 Ry

     iteration # 35     ecut=    30.00 Ry     beta=0.70
     Davidson diagonalization with overlap
     ethr =  7.73E-05,  avg # of iterations =  1.0

     total cpu time spent up to now is        7.8 secs

     total energy              =      -3.69194541 Ry
     Harris-Foulkes estimate   =      -3.69197506 Ry
     estimated scf accuracy    <       0.00031049 Ry

     iteration # 36     ecut=    30.00 Ry     beta=0.70
     Davidson diagonalization with overlap
     ethr =  7.76E-06,  avg # of iterations =  1.0

     total cpu time spent up to now is        7.9 secs

     total energy              =      -3.69196208 Ry
     Harris-Foulkes estimate   =      -3.69197468 Ry
     estimated scf accuracy    <       0.00038300 Ry

     iteration # 37     ecut=    30.00 Ry     beta=0.70
     Davidson diagonalization with overlap
     ethr =  7.76E-06,  avg # of iterations =  1.0

     total cpu time spent up to now is        8.0 secs

     total energy              =      -3.69196386 Ry
     Harris-Foulkes estimate   =      -3.69196534 Ry
     estimated scf accuracy    <       0.00006329 Ry

     iteration # 38     ecut=    30.00 Ry     beta=0.70
     Davidson diagonalization with overlap
     ethr =  1.58E-06,  avg # of iterations =  8.0

     total cpu time spent up to now is        8.1 secs

     total energy              =      -3.69196206 Ry
     Harris-Foulkes estimate   =      -3.69196402 Ry
     estimated scf accuracy    <       0.00003011 Ry

     iteration # 39     ecut=    30.00 Ry     beta=0.70
     Davidson diagonalization with overlap
     ethr =  7.53E-07,  avg # of iterations =  1.0

     total cpu time spent up to now is        8.1 secs

     total energy              =      -3.69196278 Ry
     Harris-Foulkes estimate   =      -3.69196278 Ry
     estimated scf accuracy    <       0.00000003 Ry

     iteration # 40     ecut=    30.00 Ry     beta=0.70
     Davidson diagonalization with overlap
     ethr =  6.43E-10,  avg # of iterations =  2.0

     total cpu time spent up to now is        8.2 secs

     End of self-consistent calculation

          k = 0.0000 0.0000 0.0000 ( 22119 PWs)   bands (ev):

    -6.5769  -6.3715  -6.3603  -6.1285  -0.0744   0.5138

     the Fermi energy is    -6.3251 ev

!    total energy              =      -3.69196278 Ry
     Harris-Foulkes estimate   =      -3.69196278 Ry
     estimated scf accuracy    <          2.1E-09 Ry

     convergence has been achieved in  40 iterations

     Forces acting on atoms (Ry/au):

     atom    1 type  1   force =     0.00000569    0.00000990    0.00000627
     atom    2 type  1   force =     0.00195035   -0.00019055   -0.00025478
     atom    3 type  1   force =     0.00151068    0.00021251    0.01494304
     atom    4 type  1   force =    -0.00346672   -0.00003186   -0.01469454

     Total force =     0.021389     Total SCF correction =     0.000002

     Entering Dynamics:    iteration =     5
                           time      =   0.0242 pico-seconds


     Andersen thermostat:    4 collisions

ATOMIC_POSITIONS (bohr)
H       -0.583277607   0.257308839  -0.133626833
H        0.586559268   8.700393678   8.588026495
H        7.710407645   7.603698778   0.757899658
H        8.286310694   7.438598705   6.787700680


     kinetic energy (Ekin) =     0.02770618 Ry
     temperature           =   972.10099139 K 
     Ekin + Etot (const)   =    -3.66425660 Ry
     Message from routine dynamics:
     Total linear momentum <> 0

     Linear momentum :    0.0809496971    0.0429800396    0.2040725807

     Writing output data file pwscf.save

     second order wave-functions extrapolation
     Check: negative starting charge=   -0.017479
     second order charge density extrapolation
     Check: negative starting charge=   -0.017486

     negative rho (up, down):  2.630E-02 0.000E+00

     total cpu time spent up to now is        8.5 secs

     per-process dynamical memory:    32.5 Mb

     Self-consistent Calculation

     iteration #  1     ecut=    30.00 Ry     beta=0.70
     Davidson diagonalization with overlap
     c_bands:  1 eigenvalues not converged
     ethr =  1.00E-06,  avg # of iterations = 20.0

     negative rho (up, down):  4.741E-03 0.000E+00

     total cpu time spent up to now is        8.6 secs

     total energy              =      -3.67305755 Ry
     Harris-Foulkes estimate   =      -3.66366821 Ry
     estimated scf accuracy    <       0.02369389 Ry

     iteration #  2     ecut=    30.00 Ry     beta=0.70
     Davidson diagonalization with overlap
     ethr =  5.92E-04,  avg # of iterations =  2.0

     negative rho (up, down):  4.356E-03 0.000E+00

     total cpu time spent up to now is        8.7 secs

     total energy              =      -3.65194276 Ry
     Harris-Foulkes estimate   =      -3.85769627 Ry
     estimated scf accuracy    <       2.05519640 Ry

     iteration #  3     ecut=    30.00 Ry     beta=0.70
     Davidson diagonalization with overlap
     ethr =  5.92E-04,  avg # of iterations =  1.0

     negative rho (up, down):  4.178E-03 0.000E+00

     total cpu time spent up to now is        8.7 secs

     total energy              =      -3.67617423 Ry
     Harris-Foulkes estimate   =      -3.70979035 Ry
     estimated scf accuracy    <       0.70056036 Ry

     iteration #  4     ecut=    30.00 Ry     beta=0.70
     Davidson diagonalization with overlap
     ethr =  5.92E-04,  avg # of iterations =  1.0

     negative rho (up, down):  2.520E-03 0.000E+00

     total cpu time spent up to now is        8.8 secs

     total energy              =      -3.69084976 Ry
     Harris-Foulkes estimate   =      -3.69188577 Ry
     estimated scf accuracy    <       0.05757368 Ry

     iteration #  5     ecut=    30.00 Ry     beta=0.70
     Davidson diagonalization with overlap
     ethr =  5.92E-04,  avg # of iterations =  1.0

     negative rho (up, down):  9.811E-04 0.000E+00

     total cpu time spent up to now is        8.9 secs

     total energy              =      -3.69506887 Ry
     Harris-Foulkes estimate   =      -3.69355599 Ry
     estimated scf accuracy    <       0.02967630 Ry

     iteration #  6     ecut=    30.00 Ry     beta=0.70
     Davidson diagonalization with overlap
     ethr =  5.92E-04,  avg # of iterations =  1.0

     negative rho (up, down):  1.914E-06 0.000E+00

     total cpu time spent up to now is        8.9 secs

     total energy              =      -3.69479946 Ry
     Harris-Foulkes estimate   =      -3.69728362 Ry
     estimated scf accuracy    <       0.10510903 Ry

     iteration #  7     ecut=    30.00 Ry     beta=0.70
     Davidson diagonalization with overlap
     ethr =  5.92E-04,  avg # of iterations =  1.0

     negative rho (up, down):  9.886E-07 0.000E+00

     total cpu time spent up to now is        9.0 secs

     total energy              =      -3.69459044 Ry
     Harris-Foulkes estimate   =      -3.69563841 Ry
     estimated scf accuracy    <       0.01791272 Ry

     iteration #  8     ecut=    30.00 Ry     beta=0.70
     Davidson diagonalization with overlap
     ethr =  4.48E-04,  avg # of iterations =  1.0

     negative rho (up, down):  2.667E-07 0.000E+00

     total cpu time spent up to now is        9.1 secs

     total energy              =      -3.69520027 Ry
     Harris-Foulkes estimate   =      -3.69529700 Ry
     estimated scf accuracy    <       0.00214287 Ry

     iteration #  9     ecut=    30.00 Ry     beta=0.70
     Davidson diagonalization with overlap
     ethr =  5.36E-05,  avg # of iterations =  7.0

     negative rho (up, down):  2.172E-08 0.000E+00

     total cpu time spent up to now is        9.2 secs

     total energy              =      -3.69524644 Ry
     Harris-Foulkes estimate   =      -3.69524731 Ry
     estimated scf accuracy    <       0.00000116 Ry

     iteration # 10     ecut=    30.00 Ry     beta=0.70
     Davidson diagonalization with overlap
     c_bands:  1 eigenvalues not converged
     ethr =  2.90E-08,  avg # of iterations = 20.0

     total cpu time spent up to now is        9.3 secs

     total energy              =      -3.69522921 Ry
     Harris-Foulkes estimate   =      -3.69526105 Ry
     estimated scf accuracy    <       0.00066816 Ry

     iteration # 11     ecut=    30.00 Ry     beta=0.70
     Davidson diagonalization with overlap
     ethr =  2.90E-08,  avg # of iterations =  6.0

     total cpu time spent up to now is        9.3 secs

     total energy              =      -3.69524516 Ry
     Harris-Foulkes estimate   =      -3.69524534 Ry
     estimated scf accuracy    <       0.00000171 Ry

     iteration # 12     ecut=    30.00 Ry     beta=0.70
     Davidson diagonalization with overlap
     ethr =  2.90E-08,  avg # of iterations =  1.0

     total cpu time spent up to now is        9.4 secs

     End of self-consistent calculation

          k = 0.0000 0.0000 0.0000 ( 22119 PWs)   bands (ev):

    -6.5972  -6.3766  -6.3697  -6.0912  -0.0757   0.5132

     the Fermi energy is    -6.3300 ev

!    total energy              =      -3.69524507 Ry
     Harris-Foulkes estimate   =      -3.69524520 Ry
     estimated scf accuracy    <          5.5E-09 Ry

     convergence has been achieved in  12 iterations

     Forces acting on atoms (Ry/au):

     atom    1 type  1   force =     0.00000331    0.00000866    0.00001407
     atom    2 type  1   force =     0.00105842   -0.00017247   -0.00027672
     atom    3 type  1   force =     0.00182044   -0.00052590    0.01922798
     atom    4 type  1   force =    -0.00288217    0.00068972   -0.01896534

     Total force =     0.027258     Total SCF correction =     0.000004

     Entering Dynamics:    iteration =     6
                           time      =   0.0290 pico-seconds


     Andersen thermostat:    4 collisions

ATOMIC_POSITIONS (bohr)
H       -0.495322083   0.188905634  -0.324774997
H        0.613831215   8.538685114   8.741869779
H        7.734409684   7.641806990   1.113009978
H        8.147081185   7.630602262   6.469895240


     kinetic energy (Ekin) =     0.01784581 Ry
     temperature           =   626.13948935 K 
     Ekin + Etot (const)   =    -3.67739926 Ry
     Message from routine dynamics:
     Total linear momentum <> 0

     Linear momentum :    0.2572914282    0.1999712821   -0.0346838702

     Writing output data file pwscf.save

     second order wave-functions extrapolation
     Check: negative starting charge=   -0.017486
     second order charge density extrapolation
     Check: negative starting charge=   -0.017731

     negative rho (up, down):  2.839E-02 0.000E+00

     total cpu time spent up to now is        9.6 secs

     per-process dynamical memory:    32.5 Mb

     Self-consistent Calculation

     iteration #  1     ecut=    30.00 Ry     beta=0.70
     Davidson diagonalization with overlap
     c_bands:  1 eigenvalues not converged
     ethr =  1.00E-06,  avg # of iterations = 20.0

     negative rho (up, down):  5.239E-03 0.000E+00

     total cpu time spent up to now is        9.8 secs

     total energy              =      -3.70772296 Ry
     Harris-Foulkes estimate   =      -3.68072699 Ry
     estimated scf accuracy    <       0.00138737 Ry

     iteration #  2     ecut=    30.00 Ry     beta=0.70
     Davidson diagonalization with overlap
     ethr =  3.47E-05,  avg # of iterations =  5.0

     negative rho (up, down):  4.925E-03 0.000E+00

     total cpu time spent up to now is        9.9 secs

     total energy              =      -3.70377789 Ry
     Harris-Foulkes estimate   =      -3.71405800 Ry
     estimated scf accuracy    <       0.15437073 Ry

     iteration #  3     ecut=    30.00 Ry     beta=0.70
     Davidson diagonalization with overlap
     ethr =  3.47E-05,  avg # of iterations =  1.0

     negative rho (up, down):  4.676E-03 0.000E+00

     total cpu time spent up to now is        9.9 secs

     total energy              =      -3.70798863 Ry
     Harris-Foulkes estimate   =      -3.71008473 Ry
     estimated scf accuracy    <       0.05336190 Ry

     iteration #  4     ecut=    30.00 Ry     beta=0.70
     Davidson diagonalization with overlap
     ethr =  3.47E-05,  avg # of iterations =  1.0

     negative rho (up, down):  8.544E-04 0.000E+00

     total cpu time spent up to now is       10.0 secs

     total energy              =      -3.71405606 Ry
     Harris-Foulkes estimate   =      -3.70940978 Ry
     estimated scf accuracy    <       0.00193945 Ry

     iteration #  5     ecut=    30.00 Ry     beta=0.70
     Davidson diagonalization with overlap
     ethr =  3.47E-05,  avg # of iterations = 11.0

     negative rho (up, down):  2.394E-04 0.000E+00

     total cpu time spent up to now is       10.1 secs

     total energy              =      -3.71394837 Ry
     Harris-Foulkes estimate   =      -3.71476948 Ry
     estimated scf accuracy    <       0.01510323 Ry

     iteration #  6     ecut=    30.00 Ry     beta=0.70
     Davidson diagonalization with overlap
     ethr =  3.47E-05,  avg # of iterations =  3.0

     negative rho (up, down):  2.517E-06 0.000E+00

     total cpu time spent up to now is       10.1 secs

     total energy              =      -3.71448149 Ry
     Harris-Foulkes estimate   =      -3.71451693 Ry
     estimated scf accuracy    <       0.00000588 Ry

     iteration #  7     ecut=    30.00 Ry     beta=0.70
     Davidson diagonalization with overlap
     ethr =  1.47E-07,  avg # of iterations = 11.0

     total cpu time spent up to now is       10.2 secs

     total energy              =      -3.71447610 Ry
     Harris-Foulkes estimate   =      -3.71448421 Ry
     estimated scf accuracy    <       0.00000101 Ry

     iteration #  8     ecut=    30.00 Ry     beta=0.70
     Davidson diagonalization with overlap
     ethr =  2.53E-08,  avg # of iterations =  1.0

     total cpu time spent up to now is       10.3 secs

     total energy              =      -3.71447599 Ry
     Harris-Foulkes estimate   =      -3.71447619 Ry
     estimated scf accuracy    <       0.00000012 Ry

     iteration #  9     ecut=    30.00 Ry     beta=0.70
     Davidson diagonalization with overlap
     ethr =  3.10E-09,  avg # of iterations =  1.0

     total cpu time spent up to now is       10.3 secs

     End of self-consistent calculation

          k = 0.0000 0.0000 0.0000 ( 22119 PWs)   bands (ev):

    -6.6905  -6.4075  -6.4007  -5.8843  -0.0815   0.5176

     the Fermi energy is    -6.3618 ev

!    total energy              =      -3.71447556 Ry
     Harris-Foulkes estimate   =      -3.71447600 Ry
     estimated scf accuracy    <          3.9E-09 Ry

     convergence has been achieved in   9 iterations

     Forces acting on atoms (Ry/au):

     atom    1 type  1   force =     0.00000360    0.00000050   -0.00000330
     atom    2 type  1   force =     0.00095363   -0.00009978   -0.00029504
     atom    3 type  1   force =     0.00262608   -0.00006925    0.03713362
     atom    4 type  1   force =    -0.00358331    0.00016853   -0.03683528

     Total force =     0.052503     Total SCF correction =     0.000012

     Entering Dynamics:    iteration =     7
                           time      =   0.0339 pico-seconds


     Andersen thermostat:    4 collisions

ATOMIC_POSITIONS (bohr)
H       -0.578709311   0.023451717  -0.430263285
H        0.271692815   8.557063578   8.726717946
H        7.730484323   7.733966940   1.863483179
H        8.576532173   7.685517765   5.840062160


     kinetic energy (Ekin) =     0.04283244 Ry
     temperature           =  1502.82192232 K 
     Ekin + Etot (const)   =    -3.67164313 Ry
     Message from routine dynamics:
     Total linear momentum <> 0

     Linear momentum :    0.1475837505    0.1752788992    0.0487006518

     Writing output data file pwscf.save

     second order wave-functions extrapolation
     Check: negative starting charge=   -0.017731
     second order charge density extrapolation
     Check: negative starting charge=   -0.017968

     negative rho (up, down):  5.696E-02 0.000E+00

     total cpu time spent up to now is       10.6 secs

     per-process dynamical memory:    32.5 Mb

     Self-consistent Calculation

     iteration #  1     ecut=    30.00 Ry     beta=0.70
     Davidson diagonalization with overlap
     c_bands:  1 eigenvalues not converged
     ethr =  1.00E-06,  avg # of iterations = 20.0

     negative rho (up, down):  1.447E-02 0.000E+00

     total cpu time spent up to now is       10.7 secs

     total energy              =      10.28863565 Ry
     Harris-Foulkes estimate   =      -9.42243758 Ry
     estimated scf accuracy    <       6.38663854 Ry

     iteration #  2     ecut=    30.00 Ry     beta=0.70
     Davidson diagonalization with overlap
     ethr =  1.00E-02,  avg # of iterations =  3.0

     negative rho (up, down):  9.435E-03 0.000E+00

     total cpu time spent up to now is       10.8 secs

     total energy              =      -5.05123688 Ry
     Harris-Foulkes estimate   =      -9.04131218 Ry
     estimated scf accuracy    <       9.32642569 Ry

     iteration #  3     ecut=    30.00 Ry     beta=0.70
     Davidson diagonalization with overlap
     ethr =  1.00E-02,  avg # of iterations =  1.0

     negative rho (up, down):  2.931E-03 0.000E+00

     total cpu time spent up to now is       10.9 secs

     total energy              =      -2.68610799 Ry
     Harris-Foulkes estimate   =      -5.10224354 Ry
     estimated scf accuracy    <       4.00728827 Ry

     iteration #  4     ecut=    30.00 Ry     beta=0.70
     Davidson diagonalization with overlap
     ethr =  1.00E-02,  avg # of iterations =  6.0

     negative rho (up, down):  4.000E-03 0.000E+00

     total cpu time spent up to now is       10.9 secs

     total energy              =      -3.44229119 Ry
     Harris-Foulkes estimate   =      -5.00041103 Ry
     estimated scf accuracy    <       4.25319535 Ry

     iteration #  5     ecut=    30.00 Ry     beta=0.70
     Davidson diagonalization with overlap
     ethr =  1.00E-02,  avg # of iterations =  2.0

     negative rho (up, down):  3.265E-03 0.000E+00

     total cpu time spent up to now is       11.0 secs

     total energy              =      -3.91234559 Ry
     Harris-Foulkes estimate   =      -3.94768339 Ry
     estimated scf accuracy    <       1.12804361 Ry

     iteration #  6     ecut=    30.00 Ry     beta=0.70
     Davidson diagonalization with overlap
     ethr =  1.00E-02,  avg # of iterations =  1.0

     negative rho (up, down):  3.220E-03 0.000E+00

     total cpu time spent up to now is       11.1 secs

     total energy              =      -3.90997410 Ry
     Harris-Foulkes estimate   =      -3.91351777 Ry
     estimated scf accuracy    <       0.88108331 Ry

     iteration #  7     ecut=    30.00 Ry     beta=0.70
     Davidson diagonalization with overlap
     ethr =  1.00E-02,  avg # of iterations =  1.0

     negative rho (up, down):  3.027E-03 0.000E+00

     total cpu time spent up to now is       11.1 secs

     total energy              =      -3.88348366 Ry
     Harris-Foulkes estimate   =      -3.91040244 Ry
     estimated scf accuracy    <       0.84857800 Ry

     iteration #  8     ecut=    30.00 Ry     beta=0.70
     Davidson diagonalization with overlap
     ethr =  1.00E-02,  avg # of iterations =  1.0

     negative rho (up, down):  3.049E-03 0.000E+00

     total cpu time spent up to now is       11.2 secs

     total energy              =      -3.88147108 Ry
     Harris-Foulkes estimate   =      -3.88417896 Ry
     estimated scf accuracy    <       0.60603258 Ry

     iteration #  9     ecut=    30.00 Ry     beta=0.70
     Davidson diagonalization with overlap
     ethr =  1.00E-02,  avg # of iterations =  1.0

     negative rho (up, down):  5.986E-04 0.000E+00

     total cpu time spent up to now is       11.3 secs

     total energy              =      -3.43253101 Ry
     Harris-Foulkes estimate   =      -3.89016704 Ry
     estimated scf accuracy    <       1.53132168 Ry

     iteration # 10     ecut=    30.00 Ry     beta=0.70
     Davidson diagonalization with overlap
     ethr =  1.00E-02,  avg # of iterations =  2.0

     negative rho (up, down):  6.010E-04 0.000E+00

     total cpu time spent up to now is       11.3 secs

     total energy              =      -4.08879691 Ry
     Harris-Foulkes estimate   =      -3.96453850 Ry
     estimated scf accuracy    <       2.62269320 Ry

     iteration # 11     ecut=    30.00 Ry     beta=0.70
     Davidson diagonalization with overlap
     ethr =  1.00E-02,  avg # of iterations =  1.0

     negative rho (up, down):  1.559E-04 0.000E+00

     total cpu time spent up to now is       11.4 secs

     total energy              =      -4.16817697 Ry
     Harris-Foulkes estimate   =      -4.09043124 Ry
     estimated scf accuracy    <       2.82475204 Ry

     iteration # 12     ecut=    30.00 Ry     beta=0.70
     Davidson diagonalization with overlap
     ethr =  1.00E-02,  avg # of iterations =  1.0

     negative rho (up, down):  2.565E-04 0.000E+00

     total cpu time spent up to now is       11.5 secs

     total energy              =      -3.31453353 Ry
     Harris-Foulkes estimate   =      -4.16865967 Ry
     estimated scf accuracy    <       2.93841354 Ry

     iteration # 13     ecut=    30.00 Ry     beta=0.70
     Davidson diagonalization with overlap
     ethr =  1.00E-02,  avg # of iterations =  1.0

     negative rho (up, down):  4.701E-03 0.000E+00

     total cpu time spent up to now is       11.6 secs

     total energy              =      -3.32124986 Ry
     Harris-Foulkes estimate   =      -3.94991414 Ry
     estimated scf accuracy    <       2.51858965 Ry

     iteration # 14     ecut=    30.00 Ry     beta=0.70
     Davidson diagonalization with overlap
     ethr =  1.00E-02,  avg # of iterations =  1.0

     negative rho (up, down):  8.679E-07 0.000E+00

     total cpu time spent up to now is       11.6 secs

     total energy              =      -3.80931573 Ry
     Harris-Foulkes estimate   =      -3.94149075 Ry
     estimated scf accuracy    <       2.49221385 Ry

     iteration # 15     ecut=    30.00 Ry     beta=0.70
     Davidson diagonalization with overlap
     ethr =  1.00E-02,  avg # of iterations =  1.0

     negative rho (up, down):  1.427E-05 0.000E+00

     total cpu time spent up to now is       11.7 secs

     total energy              =      -3.76990162 Ry
     Harris-Foulkes estimate   =      -3.82580037 Ry
     estimated scf accuracy    <       0.83329420 Ry

     iteration # 16     ecut=    30.00 Ry     beta=0.70
     Davidson diagonalization with overlap
     ethr =  1.00E-02,  avg # of iterations =  1.0

     negative rho (up, down):  6.713E-07 0.000E+00

     total cpu time spent up to now is       11.8 secs

     total energy              =      -3.80742727 Ry
     Harris-Foulkes estimate   =      -3.79802748 Ry
     estimated scf accuracy    <       0.04823246 Ry

     iteration # 17     ecut=    30.00 Ry     beta=0.70
     Davidson diagonalization with overlap
     ethr =  1.21E-03,  avg # of iterations =  1.0

     negative rho (up, down):  6.170E-03 0.000E+00

     total cpu time spent up to now is       11.8 secs

     total energy              =      -3.99054898 Ry
     Harris-Foulkes estimate   =      -3.82286672 Ry
     estimated scf accuracy    <       0.70600085 Ry

     iteration # 18     ecut=    30.00 Ry     beta=0.70
     Davidson diagonalization with overlap
     ethr =  1.21E-03,  avg # of iterations =  1.0

     negative rho (up, down):  2.904E-04 0.000E+00

     total cpu time spent up to now is       11.9 secs

     total energy              =      -3.77682853 Ry
     Harris-Foulkes estimate   =      -4.10938692 Ry
     estimated scf accuracy    <       2.75425962 Ry

     iteration # 19     ecut=    30.00 Ry     beta=0.70
     Davidson diagonalization with overlap
     ethr =  1.21E-03,  avg # of iterations =  1.0

     negative rho (up, down):  3.672E-04 0.000E+00

     total cpu time spent up to now is       12.0 secs

     total energy              =      -3.81465057 Ry
     Harris-Foulkes estimate   =      -3.80977417 Ry
     estimated scf accuracy    <       0.37915454 Ry

     iteration # 20     ecut=    30.00 Ry     beta=0.70
     Davidson diagonalization with overlap
     ethr =  1.21E-03,  avg # of iterations =  1.0

     negative rho (up, down):  3.726E-04 0.000E+00

     total cpu time spent up to now is       12.0 secs

     total energy              =      -3.79110416 Ry
     Harris-Foulkes estimate   =      -3.81543518 Ry
     estimated scf accuracy    <       0.54156533 Ry

     iteration # 21     ecut=    30.00 Ry     beta=0.70
     Davidson diagonalization with overlap
     ethr =  1.21E-03,  avg # of iterations =  1.0

     negative rho (up, down):  4.551E-04 0.000E+00

     total cpu time spent up to now is       12.1 secs

     total energy              =      -3.79942752 Ry
     Harris-Foulkes estimate   =      -3.80065558 Ry
     estimated scf accuracy    <       0.07935902 Ry

     iteration # 22     ecut=    30.00 Ry     beta=0.70
     Davidson diagonalization with overlap
     ethr =  1.21E-03,  avg # of iterations =  1.0

     negative rho (up, down):  3.814E-06 0.000E+00

     total cpu time spent up to now is       12.2 secs

     total energy              =      -3.81465831 Ry
     Harris-Foulkes estimate   =      -3.79958031 Ry
     estimated scf accuracy    <       0.06064316 Ry

     iteration # 23     ecut=    30.00 Ry     beta=0.70
     Davidson diagonalization with overlap
     ethr =  1.21E-03,  avg # of iterations =  4.0

     negative rho (up, down):  7.558E-04 0.000E+00

     total cpu time spent up to now is       12.3 secs

     total energy              =      -4.08654433 Ry
     Harris-Foulkes estimate   =      -4.44904560 Ry
     estimated scf accuracy    <       3.25520856 Ry

     iteration # 24     ecut=    30.00 Ry     beta=0.70
     Davidson diagonalization with overlap
     ethr =  1.21E-03,  avg # of iterations =  1.0

     negative rho (up, down):  2.815E-05 0.000E+00

     total cpu time spent up to now is       12.3 secs

     total energy              =      -3.44954941 Ry
     Harris-Foulkes estimate   =      -4.08169230 Ry
     estimated scf accuracy    <       2.72147504 Ry

     iteration # 25     ecut=    30.00 Ry     beta=0.70
     Davidson diagonalization with overlap
     ethr =  1.21E-03,  avg # of iterations =  3.0

     negative rho (up, down):  1.280E-07 0.000E+00

     total cpu time spent up to now is       12.4 secs

     total energy              =      -3.70800545 Ry
     Harris-Foulkes estimate   =      -3.81530266 Ry
     estimated scf accuracy    <       0.50680122 Ry

     iteration # 26     ecut=    30.00 Ry     beta=0.70
     Davidson diagonalization with overlap
     ethr =  1.21E-03,  avg # of iterations =  1.0

     negative rho (up, down):  4.016E-06 0.000E+00

     total cpu time spent up to now is       12.5 secs

     total energy              =      -3.79406874 Ry
     Harris-Foulkes estimate   =      -3.79418842 Ry
     estimated scf accuracy    <       0.02025655 Ry

     iteration # 27     ecut=    30.00 Ry     beta=0.70
     Davidson diagonalization with overlap
     ethr =  5.06E-04,  avg # of iterations =  1.0

     negative rho (up, down):  4.643E-06 0.000E+00

     total cpu time spent up to now is       12.5 secs

     total energy              =      -3.79418377 Ry
     Harris-Foulkes estimate   =      -3.79416428 Ry
     estimated scf accuracy    <       0.01555692 Ry

     iteration # 28     ecut=    30.00 Ry     beta=0.70
     Davidson diagonalization with overlap
     ethr =  3.89E-04,  avg # of iterations =  1.0

     negative rho (up, down):  4.898E-07 0.000E+00

     total cpu time spent up to now is       12.6 secs

     total energy              =      -3.79471411 Ry
     Harris-Foulkes estimate   =      -3.79419422 Ry
     estimated scf accuracy    <       0.01731908 Ry

     iteration # 29     ecut=    30.00 Ry     beta=0.70
     Davidson diagonalization with overlap
     ethr =  3.89E-04,  avg # of iterations =  1.0

     total cpu time spent up to now is       12.7 secs

     total energy              =      -3.79522834 Ry
     Harris-Foulkes estimate   =      -3.79470195 Ry
     estimated scf accuracy    <       0.01784525 Ry

     iteration # 30     ecut=    30.00 Ry     beta=0.70
     Davidson diagonalization with overlap
     ethr =  3.89E-04,  avg # of iterations =  1.0

     negative rho (up, down):  5.279E-07 0.000E+00

     total cpu time spent up to now is       12.7 secs

     total energy              =      -3.79516955 Ry
     Harris-Foulkes estimate   =      -3.79520161 Ry
     estimated scf accuracy    <       0.01876313 Ry

     iteration # 31     ecut=    30.00 Ry     beta=0.70
     Davidson diagonalization with overlap
     ethr =  3.89E-04,  avg # of iterations =  1.0

     negative rho (up, down):  6.912E-05 0.000E+00

     total cpu time spent up to now is       12.8 secs

     total energy              =      -3.79460839 Ry
     Harris-Foulkes estimate   =      -3.79510929 Ry
     estimated scf accuracy    <       0.01499299 Ry

     iteration # 32     ecut=    30.00 Ry     beta=0.70
     Davidson diagonalization with overlap
     ethr =  3.75E-04,  avg # of iterations =  1.0

     negative rho (up, down):  1.044E-05 0.000E+00

     total cpu time spent up to now is       12.9 secs

     total energy              =      -3.79364173 Ry
     Harris-Foulkes estimate   =      -3.79423152 Ry
     estimated scf accuracy    <       0.00560138 Ry

     iteration # 33     ecut=    30.00 Ry     beta=0.70
     Davidson diagonalization with overlap
     ethr =  1.40E-04,  avg # of iterations =  1.0

     total cpu time spent up to now is       12.9 secs

     total energy              =      -3.79351964 Ry
     Harris-Foulkes estimate   =      -3.79369168 Ry
     estimated scf accuracy    <       0.00097082 Ry

     iteration # 34     ecut=    30.00 Ry     beta=0.70
     Davidson diagonalization with overlap
     ethr =  2.43E-05,  avg # of iterations =  1.0

     total cpu time spent up to now is       13.0 secs

     total energy              =      -3.79352245 Ry
     Harris-Foulkes estimate   =      -3.79354578 Ry
     estimated scf accuracy    <       0.00019215 Ry

     iteration # 35     ecut=    30.00 Ry     beta=0.70
[...]
     Davidson diagonalization with overlap
     ethr =  2.32E-06,  avg # of iterations =  1.0

     total cpu time spent up to now is       14.6 secs

     total energy              =      -3.79341120 Ry
     Harris-Foulkes estimate   =      -3.79334038 Ry
     estimated scf accuracy    <       0.00011141 Ry

     iteration # 53     ecut=    30.00 Ry     beta=0.70
     Davidson diagonalization with overlap
     ethr =  2.32E-06,  avg # of iterations =  1.0

     total cpu time spent up to now is       14.7 secs

     total energy              =      -3.79340912 Ry
     Harris-Foulkes estimate   =      -3.79339667 Ry
     estimated scf accuracy    <       0.00008764 Ry

     iteration # 54     ecut=    30.00 Ry     beta=0.70
     Davidson diagonalization with overlap
     ethr =  2.19E-06,  avg # of iterations =  1.0

     total cpu time spent up to now is       14.7 secs

     total energy              =      -3.79346513 Ry
     Harris-Foulkes estimate   =      -3.79340874 Ry
     estimated scf accuracy    <       0.00008896 Ry

     iteration # 55     ecut=    30.00 Ry     beta=0.70
     Davidson diagonalization with overlap
     ethr =  2.19E-06,  avg # of iterations =  1.0

     total cpu time spent up to now is       14.8 secs

     total energy              =      -3.79337262 Ry
     Harris-Foulkes estimate   =      -3.79346004 Ry
     estimated scf accuracy    <       0.00011436 Ry

     iteration # 56     ecut=    30.00 Ry     beta=0.70
     Davidson diagonalization with overlap
     ethr =  2.19E-06,  avg # of iterations =  2.0

     total cpu time spent up to now is       14.9 secs

     total energy              =      -3.79468547 Ry
     Harris-Foulkes estimate   =      -3.79316475 Ry
     estimated scf accuracy    <       0.00055454 Ry

     iteration # 57     ecut=    30.00 Ry     beta=0.70
     Davidson diagonalization with overlap
     ethr =  2.19E-06,  avg # of iterations =  4.0

     total cpu time spent up to now is       15.0 secs

     total energy              =      -3.79378870 Ry
     Harris-Foulkes estimate   =      -3.79375568 Ry
     estimated scf accuracy    <       0.00047676 Ry

     iteration # 58     ecut=    30.00 Ry     beta=0.70
     Davidson diagonalization with overlap
     ethr =  2.19E-06,  avg # of iterations =  1.0

     total cpu time spent up to now is       15.1 secs

     total energy              =      -3.79354450 Ry
     Harris-Foulkes estimate   =      -3.79378889 Ry
     estimated scf accuracy    <       0.00052353 Ry

     iteration # 59     ecut=    30.00 Ry     beta=0.70
     Davidson diagonalization with overlap
     ethr =  2.19E-06,  avg # of iterations =  1.0

     total cpu time spent up to now is       15.2 secs

     total energy              =      -3.79378638 Ry
     Harris-Foulkes estimate   =      -3.79355097 Ry
     estimated scf accuracy    <       0.00020676 Ry

     iteration # 60     ecut=    30.00 Ry     beta=0.70
     Davidson diagonalization with overlap
     ethr =  2.19E-06,  avg # of iterations =  1.0

     total cpu time spent up to now is       15.2 secs

     total energy              =      -3.79345843 Ry
     Harris-Foulkes estimate   =      -3.79378883 Ry
     estimated scf accuracy    <       0.00051796 Ry

     iteration # 61     ecut=    30.00 Ry     beta=0.70
     Davidson diagonalization with overlap
     ethr =  2.19E-06,  avg # of iterations =  2.0

     total cpu time spent up to now is       15.3 secs

     total energy              =      -3.79346343 Ry
     Harris-Foulkes estimate   =      -3.79346714 Ry
     estimated scf accuracy    <       0.00012062 Ry

     iteration # 62     ecut=    30.00 Ry     beta=0.70
     Davidson diagonalization with overlap
     ethr =  2.19E-06,  avg # of iterations =  1.0

     total cpu time spent up to now is       15.4 secs

     total energy              =      -3.79343561 Ry
     Harris-Foulkes estimate   =      -3.79346346 Ry
     estimated scf accuracy    <       0.00011812 Ry

     iteration # 63     ecut=    30.00 Ry     beta=0.70
     Davidson diagonalization with overlap
     ethr =  2.19E-06,  avg # of iterations =  1.0

     total cpu time spent up to now is       15.5 secs

     total energy              =      -3.79371592 Ry
     Harris-Foulkes estimate   =      -3.79343467 Ry
     estimated scf accuracy    <       0.00009944 Ry

     iteration # 64     ecut=    30.00 Ry     beta=0.70
     Davidson diagonalization with overlap
     ethr =  2.19E-06,  avg # of iterations =  2.0

     total cpu time spent up to now is       15.6 secs

     total energy              =      -3.79386029 Ry
     Harris-Foulkes estimate   =      -3.79369357 Ry
     estimated scf accuracy    <       0.00038920 Ry

     iteration # 65     ecut=    30.00 Ry     beta=0.70
     Davidson diagonalization with overlap
     ethr =  2.19E-06,  avg # of iterations =  1.0

     total cpu time spent up to now is       15.6 secs

     total energy              =      -3.79333826 Ry
     Harris-Foulkes estimate   =      -3.79386327 Ry
     estimated scf accuracy    <       0.00063223 Ry

     iteration # 66     ecut=    30.00 Ry     beta=0.70
     Davidson diagonalization with overlap
     ethr =  2.19E-06,  avg # of iterations =  4.0

     total cpu time spent up to now is       15.7 secs

     total energy              =      -3.79323218 Ry
     Harris-Foulkes estimate   =      -3.79327207 Ry
     estimated scf accuracy    <       0.00022001 Ry

     iteration # 67     ecut=    30.00 Ry     beta=0.70
     Davidson diagonalization with overlap
     ethr =  2.19E-06,  avg # of iterations =  1.0

     total cpu time spent up to now is       15.8 secs

     total energy              =      -3.79316598 Ry
     Harris-Foulkes estimate   =      -3.79322468 Ry
     estimated scf accuracy    <       0.00034722 Ry

     iteration # 68     ecut=    30.00 Ry     beta=0.70
     Davidson diagonalization with overlap
     ethr =  2.19E-06,  avg # of iterations =  1.0

     total cpu time spent up to now is       15.9 secs

     total energy              =      -3.79267739 Ry
     Harris-Foulkes estimate   =      -3.79315336 Ry
     estimated scf accuracy    <       0.00060236 Ry

     iteration # 69     ecut=    30.00 Ry     beta=0.70
     Davidson diagonalization with overlap
     ethr =  2.19E-06,  avg # of iterations =  5.0

     total cpu time spent up to now is       16.0 secs

     total energy              =      -3.79034637 Ry
     Harris-Foulkes estimate   =      -3.79102402 Ry
     estimated scf accuracy    <       0.01001030 Ry

     iteration # 70     ecut=    30.00 Ry     beta=0.70
     Davidson diagonalization with overlap
     ethr =  2.19E-06,  avg # of iterations =  1.0

     total cpu time spent up to now is       16.1 secs

     total energy              =      -3.79062561 Ry
     Harris-Foulkes estimate   =      -3.79066406 Ry
     estimated scf accuracy    <       0.00007378 Ry

     iteration # 71     ecut=    30.00 Ry     beta=0.70
     Davidson diagonalization with overlap
     ethr =  1.84E-06,  avg # of iterations =  3.0

     total cpu time spent up to now is       16.1 secs

     total energy              =      -3.79053701 Ry
     Harris-Foulkes estimate   =      -3.79205582 Ry
     estimated scf accuracy    <       0.00695374 Ry

     iteration # 72     ecut=    30.00 Ry     beta=0.70
     Davidson diagonalization with overlap
     ethr =  1.84E-06,  avg # of iterations =  3.0

     total cpu time spent up to now is       16.2 secs

     total energy              =      -3.79314312 Ry
     Harris-Foulkes estimate   =      -3.79067643 Ry
     estimated scf accuracy    <       0.00031622 Ry

     iteration # 73     ecut=    30.00 Ry     beta=0.70
     Davidson diagonalization with overlap
     ethr =  1.84E-06,  avg # of iterations =  5.0

     total cpu time spent up to now is       16.3 secs

     total energy              =      -3.79338633 Ry
     Harris-Foulkes estimate   =      -3.79347885 Ry
     estimated scf accuracy    <       0.00013002 Ry

     iteration # 74     ecut=    30.00 Ry     beta=0.70
     Davidson diagonalization with overlap
     ethr =  1.84E-06,  avg # of iterations =  1.0

     total cpu time spent up to now is       16.4 secs

     total energy              =      -3.79351221 Ry
     Harris-Foulkes estimate   =      -3.79336324 Ry
     estimated scf accuracy    <       0.00009619 Ry

     iteration # 75     ecut=    30.00 Ry     beta=0.70
     Davidson diagonalization with overlap
     ethr =  1.84E-06,  avg # of iterations =  1.0

     total cpu time spent up to now is       16.5 secs

     total energy              =      -3.79372383 Ry
     Harris-Foulkes estimate   =      -3.79347520 Ry
     estimated scf accuracy    <       0.00012476 Ry

     iteration # 76     ecut=    30.00 Ry     beta=0.70
     Davidson diagonalization with overlap
     ethr =  1.84E-06,  avg # of iterations =  2.0

     total cpu time spent up to now is       16.6 secs

     total energy              =      -3.79450099 Ry
     Harris-Foulkes estimate   =      -3.79371971 Ry
     estimated scf accuracy    <       0.00042660 Ry

     iteration # 77     ecut=    30.00 Ry     beta=0.70
     Davidson diagonalization with overlap
     ethr =  1.84E-06,  avg # of iterations =  3.0

     total cpu time spent up to now is       16.7 secs

     total energy              =      -3.79353365 Ry
     Harris-Foulkes estimate   =      -3.79455834 Ry
     estimated scf accuracy    <       0.00180526 Ry

     iteration # 78     ecut=    30.00 Ry     beta=0.70
     Davidson diagonalization with overlap
     ethr =  1.84E-06,  avg # of iterations =  3.0

     total cpu time spent up to now is       16.8 secs

     total energy              =      -3.79337555 Ry
     Harris-Foulkes estimate   =      -3.79364465 Ry
     estimated scf accuracy    <       0.00032313 Ry

     iteration # 79     ecut=    30.00 Ry     beta=0.70
     Davidson diagonalization with overlap
     ethr =  1.84E-06,  avg # of iterations =  4.0

     total cpu time spent up to now is       16.9 secs

     total energy              =      -3.79332232 Ry
     Harris-Foulkes estimate   =      -3.79327867 Ry
     estimated scf accuracy    <       0.00020574 Ry

     iteration # 80     ecut=    30.00 Ry     beta=0.70
     Davidson diagonalization with overlap
     ethr =  1.84E-06,  avg # of iterations =  1.0

     total cpu time spent up to now is       16.9 secs

     total energy              =      -3.79320958 Ry
     Harris-Foulkes estimate   =      -3.79331607 Ry
     estimated scf accuracy    <       0.00013957 Ry

     iteration # 81     ecut=    30.00 Ry     beta=0.70
     Davidson diagonalization with overlap
     ethr =  1.84E-06,  avg # of iterations =  2.0

     total cpu time spent up to now is       17.0 secs

     total energy              =      -3.79377815 Ry
     Harris-Foulkes estimate   =      -3.79302099 Ry
     estimated scf accuracy    <       0.00123679 Ry

     iteration # 82     ecut=    30.00 Ry     beta=0.70
     Davidson diagonalization with overlap
     ethr =  1.84E-06,  avg # of iterations =  2.0

     total cpu time spent up to now is       17.1 secs

     total energy              =      -3.79333844 Ry
     Harris-Foulkes estimate   =      -3.79336530 Ry
     estimated scf accuracy    <       0.00009433 Ry

     iteration # 83     ecut=    30.00 Ry     beta=0.70
     Davidson diagonalization with overlap
     ethr =  1.84E-06,  avg # of iterations =  1.0

     total cpu time spent up to now is       17.2 secs

     total energy              =      -3.79338913 Ry
     Harris-Foulkes estimate   =      -3.79333425 Ry
     estimated scf accuracy    <       0.00011799 Ry

     iteration # 84     ecut=    30.00 Ry     beta=0.70
     Davidson diagonalization with overlap
     ethr =  1.84E-06,  avg # of iterations =  1.0

     total cpu time spent up to now is       17.3 secs

     total energy              =      -3.79337726 Ry
     Harris-Foulkes estimate   =      -3.79337926 Ry
     estimated scf accuracy    <       0.00008892 Ry

     iteration # 85     ecut=    30.00 Ry     beta=0.70
     Davidson diagonalization with overlap
     ethr =  1.84E-06,  avg # of iterations =  1.0

     total cpu time spent up to now is       17.3 secs

     total energy              =      -3.79347003 Ry
     Harris-Foulkes estimate   =      -3.79337728 Ry
     estimated scf accuracy    <       0.00008976 Ry

     iteration # 86     ecut=    30.00 Ry     beta=0.70
     Davidson diagonalization with overlap
     ethr =  1.84E-06,  avg # of iterations =  1.0

     total cpu time spent up to now is       17.4 secs

     total energy              =      -3.79347933 Ry
     Harris-Foulkes estimate   =      -3.79345336 Ry
     estimated scf accuracy    <       0.00010978 Ry

     iteration # 87     ecut=    30.00 Ry     beta=0.70
     Davidson diagonalization with overlap
     ethr =  1.84E-06,  avg # of iterations =  1.0

     total cpu time spent up to now is       17.5 secs

     total energy              =      -3.79347174 Ry
     Harris-Foulkes estimate   =      -3.79347884 Ry
     estimated scf accuracy    <       0.00012924 Ry

     iteration # 88     ecut=    30.00 Ry     beta=0.70
     Davidson diagonalization with overlap
     ethr =  1.84E-06,  avg # of iterations =  1.0

     total cpu time spent up to now is       17.6 secs

     total energy              =      -3.79346853 Ry
     Harris-Foulkes estimate   =      -3.79347171 Ry
     estimated scf accuracy    <       0.00012437 Ry

     iteration # 89     ecut=    30.00 Ry     beta=0.70
     Davidson diagonalization with overlap
     ethr =  1.84E-06,  avg # of iterations =  1.0

     total cpu time spent up to now is       17.7 secs

     total energy              =      -3.79347239 Ry
     Harris-Foulkes estimate   =      -3.79346853 Ry
     estimated scf accuracy    <       0.00012161 Ry

     iteration # 90     ecut=    30.00 Ry     beta=0.70
     Davidson diagonalization with overlap
     ethr =  1.84E-06,  avg # of iterations =  1.0

     total cpu time spent up to now is       17.7 secs

     total energy              =      -3.79337405 Ry
     Harris-Foulkes estimate   =      -3.79347238 Ry
     estimated scf accuracy    <       0.00012444 Ry

     iteration # 91     ecut=    30.00 Ry     beta=0.70
     Davidson diagonalization with overlap
     ethr =  1.84E-06,  avg # of iterations =  2.0

     total cpu time spent up to now is       17.8 secs

     total energy              =      -3.79343622 Ry
     Harris-Foulkes estimate   =      -3.79333085 Ry
     estimated scf accuracy    <       0.00012160 Ry

     iteration # 92     ecut=    30.00 Ry     beta=0.70
     Davidson diagonalization with overlap
     ethr =  1.84E-06,  avg # of iterations =  5.0

     total cpu time spent up to now is       17.9 secs

     total energy              =      -3.79205764 Ry
     Harris-Foulkes estimate   =      -3.79095906 Ry
     estimated scf accuracy    <       0.00436367 Ry

     iteration # 93     ecut=    30.00 Ry     beta=0.70
     Davidson diagonalization with overlap
     ethr =  1.84E-06,  avg # of iterations =  2.0

     total cpu time spent up to now is       18.0 secs

     total energy              =      -3.79447499 Ry
     Harris-Foulkes estimate   =      -3.79224257 Ry
     estimated scf accuracy    <       0.00608042 Ry

     iteration # 94     ecut=    30.00 Ry     beta=0.70
     Davidson diagonalization with overlap
     ethr =  1.84E-06,  avg # of iterations =  3.0

     total cpu time spent up to now is       18.1 secs

     total energy              =      -3.79355099 Ry
     Harris-Foulkes estimate   =      -3.79329447 Ry
     estimated scf accuracy    <       0.00017460 Ry

     iteration # 95     ecut=    30.00 Ry     beta=0.70
     Davidson diagonalization with overlap
     ethr =  1.84E-06,  avg # of iterations =  2.0

     total cpu time spent up to now is       18.2 secs

     total energy              =      -3.79342503 Ry
     Harris-Foulkes estimate   =      -3.79344470 Ry
     estimated scf accuracy    <       0.00010475 Ry

     iteration # 96     ecut=    30.00 Ry     beta=0.70
     Davidson diagonalization with overlap
     ethr =  1.84E-06,  avg # of iterations =  1.0

     total cpu time spent up to now is       18.3 secs

     total energy              =      -3.79339340 Ry
     Harris-Foulkes estimate   =      -3.79342437 Ry
     estimated scf accuracy    <       0.00009479 Ry

     iteration # 97     ecut=    30.00 Ry     beta=0.70
     Davidson diagonalization with overlap
     ethr =  1.84E-06,  avg # of iterations =  1.0

     total cpu time spent up to now is       18.3 secs

     total energy              =      -3.79334669 Ry
     Harris-Foulkes estimate   =      -3.79339045 Ry
     estimated scf accuracy    <       0.00008825 Ry

     iteration # 98     ecut=    30.00 Ry     beta=0.70
     Davidson diagonalization with overlap
     ethr =  1.84E-06,  avg # of iterations =  1.0

     total cpu time spent up to now is       18.4 secs

     total energy              =      -3.79331252 Ry
     Harris-Foulkes estimate   =      -3.79333459 Ry
     estimated scf accuracy    <       0.00011737 Ry

     iteration # 99     ecut=    30.00 Ry     beta=0.70
     Davidson diagonalization with overlap
     ethr =  1.84E-06,  avg # of iterations =  1.0

     total cpu time spent up to now is       18.5 secs

     total energy              =      -3.79335002 Ry
     Harris-Foulkes estimate   =      -3.79330979 Ry
     estimated scf accuracy    <       0.00014948 Ry

     iteration #100     ecut=    30.00 Ry     beta=0.70
     Davidson diagonalization with overlap
     ethr =  1.84E-06,  avg # of iterations =  1.0

     total cpu time spent up to now is       18.6 secs

     total energy              =      -3.79337467 Ry
     Harris-Foulkes estimate   =      -3.79334417 Ry
     estimated scf accuracy    <       0.00010741 Ry

     End of self-consistent calculation

     convergence NOT achieved after 100 iterations: stopping

     Writing output data file pwscf.save
 
     init_run     :      0.09s CPU      0.11s WALL (       1 calls)
     electrons    :     13.36s CPU     16.89s WALL (       8 calls)
     update_pot   :      0.81s CPU      1.07s WALL (       7 calls)
     forces       :      0.18s CPU      0.18s WALL (       7 calls)

     Called by init_run:
     wfcinit      :      0.01s CPU      0.02s WALL (       1 calls)
     potinit      :      0.03s CPU      0.03s WALL (       1 calls)

     Called by electrons:
     c_bands      :      4.47s CPU      4.86s WALL (     221 calls)
     sum_band     :      1.25s CPU      1.31s WALL (     221 calls)
     v_of_rho     :      4.50s CPU      4.60s WALL (     228 calls)
     mix_rho      :      2.89s CPU      5.18s WALL (     221 calls)

     Called by c_bands:
     cegterg      :      4.43s CPU      4.55s WALL (     221 calls)

     Called by sum_band:

     Called by *egterg:
     h_psi        :      3.92s CPU      4.01s WALL (     813 calls)
     g_psi        :      0.04s CPU      0.04s WALL (     591 calls)
     cdiaghg      :      0.10s CPU      0.11s WALL (     804 calls)

     Called by h_psi:
     h_psi:pot    :      3.88s CPU      3.98s WALL (     813 calls)
     vloc_psi     :      3.88s CPU      3.98s WALL (     813 calls)

     General routines
     calbec       :      0.01s CPU      0.02s WALL (       6 calls)
     fft          :      2.85s CPU      2.96s WALL (    2524 calls)
     fftw         :      4.09s CPU      4.21s WALL (    8186 calls)
     davcio       :      0.45s CPU      1.89s WALL (    3701 calls)
 
     Parallel routines
     fft_scatter  :      2.44s CPU      2.59s WALL (   10710 calls)
 
     PWSCF        :    14.66s CPU        18.66s WALL

 
   This run was terminated on:  21:37:44  23Jan2018            

=------------------------------------------------------------------------------=
   JOB DONE.
=------------------------------------------------------------------------------=
