
     Program PWSCF v.6.0 (svn rev. 13079) starts on 23Jan2018 at 21:37:44 

     This program is part of the open-source Quantum ESPRESSO suite
     for quantum simulation of materials; please cite
         "P. Giannozzi et al., J. Phys.:Condens. Matter 21 395502 (2009);
          URL http://www.quantum-espresso.org", 
     in publications or presentations arising from this work. More details at
     http://www.quantum-espresso.org/quote

     Parallel version (MPI), running on    10 processors
     R & G space division:  proc/nbgrp/npool/nimage =      10
     Reading input from inputs/H4-100.in

     Current dimensions of program PWSCF are:
     Max number of different atomic species (ntypx) = 10
     Max number of k-points (npk) =  40000
     Max angular momentum in pseudopotentials (lmaxx) =  3

     Subspace diagonalization in iterative solution of the eigenvalue problem:
     a serial algorithm will be used

 
     Parallelization info
     --------------------
     sticks:   dense  smooth     PW     G-vecs:    dense   smooth      PW
     Min         380     380     94                17748    17748    2208
     Max         381     381     95                17753    17753    2213
     Sum        3809    3809    949               177509   177509   22119
 


     bravais-lattice index     =            1
     lattice parameter (alat)  =      20.0000  a.u.
     unit-cell volume          =    8000.0000 (a.u.)^3
     number of atoms/cell      =            4
     number of atomic types    =            1
     number of electrons       =         4.00
     number of Kohn-Sham states=            6
     kinetic-energy cutoff     =      30.0000  Ry
     charge density cutoff     =     120.0000  Ry
     convergence threshold     =      1.0E-08
     mixing beta               =       0.7000
     number of iterations used =            8  plain     mixing
     Exchange-correlation      = BLYP ( 1  3  1  3 0 0)
     nstep                     =         5000


     celldm(1)=  20.000000  celldm(2)=   0.000000  celldm(3)=   0.000000
     celldm(4)=   0.000000  celldm(5)=   0.000000  celldm(6)=   0.000000

     crystal axes: (cart. coord. in units of alat)
               a(1) = (   1.000000   0.000000   0.000000 )  
               a(2) = (   0.000000   1.000000   0.000000 )  
               a(3) = (   0.000000   0.000000   1.000000 )  

     reciprocal axes: (cart. coord. in units 2 pi/alat)
               b(1) = (  1.000000  0.000000  0.000000 )  
               b(2) = (  0.000000  1.000000  0.000000 )  
               b(3) = (  0.000000  0.000000  1.000000 )  


     PseudoPot. # 1 for  H read from file:
     ./H.blyp-hgh.UPF
     MD5 check sum: c576e69559cde411e611be972c763230
     Pseudo is Norm-conserving, Zval =  1.0
     Generated in analytical, separable form
     Using radial grid of  929 points,  0 beta functions with: 

     atomic species   valence    mass     pseudopotential
        H              1.00     1.01000      H( 1.00)

     No symmetry found



   Cartesian axes

     site n.     atom                  positions (alat units)
         1           H   tau(   1) = (   0.0000000   0.0000000   0.0000000  )
         2           H   tau(   2) = (   0.0000000   0.4000000   0.4000000  )
         3           H   tau(   3) = (   0.4000000   0.4000000   0.0000000  )
         4           H   tau(   4) = (   0.4000000   0.4000000   0.4000000  )

     number of k points=     1  Marzari-Vanderbilt smearing, width (Ry)=  0.0250
                       cart. coord. in units 2pi/alat
        k(    1) = (   0.0000000   0.0000000   0.0000000), wk =   2.0000000

     Dense  grid:   177509 G-vectors     FFT dimensions: (  72,  72,  72)

     Estimated max dynamical RAM per process >       6.66Mb

     Estimated total allocated dynamical RAM >      66.58Mb

     Initial potential from superposition of free atoms
     Check: negative starting charge=   -0.016857

     starting charge    3.99996, renormalised to    4.00000

     negative rho (up, down):  1.686E-02 0.000E+00
     Starting wfc are    4 randomized atomic wfcs +    2 random wfc

     total cpu time spent up to now is        0.1 secs

     per-process dynamical memory:    27.2 Mb

     Self-consistent Calculation

     iteration #  1     ecut=    30.00 Ry     beta=0.70
     Davidson diagonalization with overlap
     ethr =  1.00E-02,  avg # of iterations =  6.0

     Threshold (ethr) on eigenvalues was too large:
     Diagonalizing with lowered threshold

     Davidson diagonalization with overlap
     ethr =  1.74E-05,  avg # of iterations = 10.0

     negative rho (up, down):  2.835E-03 0.000E+00

     total cpu time spent up to now is        0.3 secs

     total energy              =      -3.67775218 Ry
     Harris-Foulkes estimate   =      -3.66268968 Ry
     estimated scf accuracy    <       0.00104851 Ry

     iteration #  2     ecut=    30.00 Ry     beta=0.70
     Davidson diagonalization with overlap
     ethr =  2.62E-05,  avg # of iterations =  7.0

     negative rho (up, down):  6.738E-04 0.000E+00

     total cpu time spent up to now is        0.3 secs

     total energy              =      -3.68080694 Ry
     Harris-Foulkes estimate   =      -3.67811988 Ry
     estimated scf accuracy    <       0.00024283 Ry

     iteration #  3     ecut=    30.00 Ry     beta=0.70
     Davidson diagonalization with overlap
     c_bands:  1 eigenvalues not converged
     ethr =  6.07E-06,  avg # of iterations = 20.0

     negative rho (up, down):  2.391E-04 0.000E+00

     total cpu time spent up to now is        0.4 secs

     total energy              =      -3.67874131 Ry
     Harris-Foulkes estimate   =      -3.68346810 Ry
     estimated scf accuracy    <       0.12496094 Ry

     iteration #  4     ecut=    30.00 Ry     beta=0.70
     Davidson diagonalization with overlap
     ethr =  6.07E-06,  avg # of iterations =  5.0

     negative rho (up, down):  2.250E-04 0.000E+00

     total cpu time spent up to now is        0.5 secs

     total energy              =      -3.68109301 Ry
     Harris-Foulkes estimate   =      -3.68113907 Ry
     estimated scf accuracy    <       0.00089680 Ry

     iteration #  5     ecut=    30.00 Ry     beta=0.70
     Davidson diagonalization with overlap
     ethr =  6.07E-06,  avg # of iterations =  1.0

     negative rho (up, down):  5.719E-08 0.000E+00

     total cpu time spent up to now is        0.6 secs

     total energy              =      -3.68108014 Ry
     Harris-Foulkes estimate   =      -3.68112161 Ry
     estimated scf accuracy    <       0.00007996 Ry

     iteration #  6     ecut=    30.00 Ry     beta=0.70
     Davidson diagonalization with overlap
     ethr =  2.00E-06,  avg # of iterations = 15.0

     negative rho (up, down):  3.027E-08 0.000E+00

     total cpu time spent up to now is        0.7 secs

     total energy              =      -3.68108375 Ry
     Harris-Foulkes estimate   =      -3.68108390 Ry
     estimated scf accuracy    <       0.00000025 Ry

     iteration #  7     ecut=    30.00 Ry     beta=0.70
     Davidson diagonalization with overlap
     ethr =  6.37E-09,  avg # of iterations =  2.0

     negative rho (up, down):  1.521E-08 0.000E+00

     total cpu time spent up to now is        0.7 secs

     total energy              =      -3.68108345 Ry
     Harris-Foulkes estimate   =      -3.68108408 Ry
     estimated scf accuracy    <       0.00001150 Ry

     iteration #  8     ecut=    30.00 Ry     beta=0.70
     Davidson diagonalization with overlap
     ethr =  6.37E-09,  avg # of iterations =  1.0

     total cpu time spent up to now is        0.8 secs

     total energy              =      -3.68108318 Ry
     Harris-Foulkes estimate   =      -3.68108366 Ry
     estimated scf accuracy    <       0.00000004 Ry

     iteration #  9     ecut=    30.00 Ry     beta=0.70
     Davidson diagonalization with overlap
     ethr =  1.01E-09,  avg # of iterations =  1.0

     total cpu time spent up to now is        0.8 secs

     total energy              =      -3.68108127 Ry
     Harris-Foulkes estimate   =      -3.68108318 Ry
     estimated scf accuracy    <       0.00000001 Ry

     iteration # 10     ecut=    30.00 Ry     beta=0.70
     Davidson diagonalization with overlap
     ethr =  3.31E-10,  avg # of iterations =  2.0

     total cpu time spent up to now is        0.9 secs

     End of self-consistent calculation

          k = 0.0000 0.0000 0.0000 ( 22119 PWs)   bands (ev):

    -6.4327  -6.3413  -6.3347  -6.2519  -0.0607   0.4912

     the Fermi energy is    -6.2947 ev

!    total energy              =      -3.68108132 Ry
     Harris-Foulkes estimate   =      -3.68108127 Ry
     estimated scf accuracy    <          1.3E-09 Ry

     convergence has been achieved in  10 iterations

     Forces acting on atoms (Ry/au):

     atom    1 type  1   force =     0.00000726    0.00001559    0.00000728
     atom    2 type  1   force =     0.00145622   -0.00000701   -0.00000773
     atom    3 type  1   force =    -0.00000771   -0.00000706    0.00145630
     atom    4 type  1   force =    -0.00145577   -0.00000151   -0.00145586

     Total force =     0.002912     Total SCF correction =     0.000004

     Molecular Dynamics Calculation

     Starting temperature  =   100.00 K

     temperature is controlled by Andersen thermostat
     Collision frequency = 1.0000/timestep
     mass H                =     1.01
     Time step             =   100.00 a.u.,  4.8378 femto-seconds

     Entering Dynamics:    iteration =     1
                           time      =   0.0048 pico-seconds


     Andersen thermostat:    4 collisions

ATOMIC_POSITIONS (bohr)
H       -0.137337219   0.076558069  -0.087031768
H        0.112749194   8.030273015   7.969242967
H        7.940188985   7.996122257  -0.048928530
H        8.084399040   7.897046659   8.166717332


     kinetic energy (Ekin) =     0.00467575 Ry
     temperature           =   164.05380299 K 
     Ekin + Etot (const)   =    -3.67640557 Ry

     Linear momentum :   -0.0000000000    0.0000000000   -0.0000000000

     Writing output data file pwscf.save
     Check: negative starting charge=   -0.016857
     NEW-OLD atomic charge density approx. for the potential
     Check: negative starting charge=   -0.016893

     negative rho (up, down):  1.434E-02 0.000E+00

     total cpu time spent up to now is        1.1 secs

     per-process dynamical memory:    32.5 Mb

     Self-consistent Calculation

     iteration #  1     ecut=    30.00 Ry     beta=0.70
     Davidson diagonalization with overlap
     ethr =  1.00E-06,  avg # of iterations =  9.0

     negative rho (up, down):  2.462E-03 0.000E+00

     total cpu time spent up to now is        1.2 secs

     total energy              =      -3.67790446 Ry
     Harris-Foulkes estimate   =      -3.66524833 Ry
     estimated scf accuracy    <       0.00064979 Ry

     iteration #  2     ecut=    30.00 Ry     beta=0.70
     Davidson diagonalization with overlap
     ethr =  1.62E-05,  avg # of iterations =  5.0

     negative rho (up, down):  2.371E-03 0.000E+00

     total cpu time spent up to now is        1.3 secs

     total energy              =      -3.67184123 Ry
     Harris-Foulkes estimate   =      -3.68657394 Ry
     estimated scf accuracy    <       0.35706982 Ry

     iteration #  3     ecut=    30.00 Ry     beta=0.70
     Davidson diagonalization with overlap
     ethr =  1.62E-05,  avg # of iterations =  2.0

     negative rho (up, down):  1.822E-03 0.000E+00

     total cpu time spent up to now is        1.3 secs

     total energy              =      -3.67933090 Ry
     Harris-Foulkes estimate   =      -3.67865192 Ry
     estimated scf accuracy    <       0.00054224 Ry

     iteration #  4     ecut=    30.00 Ry     beta=0.70
     Davidson diagonalization with overlap
     ethr =  1.36E-05,  avg # of iterations =  3.0

     negative rho (up, down):  1.232E-05 0.000E+00

     total cpu time spent up to now is        1.4 secs

     total energy              =      -3.68064700 Ry
     Harris-Foulkes estimate   =      -3.67954618 Ry
     estimated scf accuracy    <       0.00866217 Ry

     iteration #  5     ecut=    30.00 Ry     beta=0.70
     Davidson diagonalization with overlap
     ethr =  1.36E-05,  avg # of iterations =  5.0

     negative rho (up, down):  9.203E-06 0.000E+00

     total cpu time spent up to now is        1.5 secs

     total energy              =      -3.68083254 Ry
     Harris-Foulkes estimate   =      -3.68083472 Ry
     estimated scf accuracy    <       0.00005303 Ry

     iteration #  6     ecut=    30.00 Ry     beta=0.70
     Davidson diagonalization with overlap
     ethr =  1.33E-06,  avg # of iterations =  3.0

     negative rho (up, down):  4.531E-08 0.000E+00

     total cpu time spent up to now is        1.6 secs

     total energy              =      -3.68084872 Ry
     Harris-Foulkes estimate   =      -3.68084034 Ry
     estimated scf accuracy    <       0.00021068 Ry

     iteration #  7     ecut=    30.00 Ry     beta=0.70
     Davidson diagonalization with overlap
     ethr =  1.33E-06,  avg # of iterations =  1.0

     negative rho (up, down):  1.088E-08 0.000E+00

     total cpu time spent up to now is        1.6 secs

     total energy              =      -3.68085278 Ry
     Harris-Foulkes estimate   =      -3.68085264 Ry
     estimated scf accuracy    <       0.00000076 Ry

     iteration #  8     ecut=    30.00 Ry     beta=0.70
     Davidson diagonalization with overlap
     ethr =  1.90E-08,  avg # of iterations =  1.0

     total cpu time spent up to now is        1.7 secs

     total energy              =      -3.68085291 Ry
     Harris-Foulkes estimate   =      -3.68085283 Ry
     estimated scf accuracy    <       0.00000015 Ry

     iteration #  9     ecut=    30.00 Ry     beta=0.70
     Davidson diagonalization with overlap
     ethr =  3.78E-09,  avg # of iterations =  1.0

     total cpu time spent up to now is        1.8 secs

     total energy              =      -3.68085298 Ry
     Harris-Foulkes estimate   =      -3.68085292 Ry
     estimated scf accuracy    <       0.00000002 Ry

     iteration # 10     ecut=    30.00 Ry     beta=0.70
     Davidson diagonalization with overlap
     ethr =  6.02E-10,  avg # of iterations =  1.0

     total cpu time spent up to now is        1.8 secs

     End of self-consistent calculation

          k = 0.0000 0.0000 0.0000 ( 22119 PWs)   bands (ev):

    -6.4268  -6.3401  -6.3331  -6.2559  -0.0602   0.4886

     the Fermi energy is    -6.2934 ev

!    total energy              =      -3.68085301 Ry
     Harris-Foulkes estimate   =      -3.68085298 Ry
     estimated scf accuracy    <          3.8E-10 Ry

     convergence has been achieved in  10 iterations

     Forces acting on atoms (Ry/au):

     atom    1 type  1   force =     0.00000668    0.00000835    0.00000721
     atom    2 type  1   force =     0.00151229   -0.00004332    0.00004996
     atom    3 type  1   force =     0.00001945   -0.00002154    0.00099877
     atom    4 type  1   force =    -0.00153841    0.00005652   -0.00105594

     Total force =     0.002603     Total SCF correction =     0.000002

     Entering Dynamics:    iteration =     2
                           time      =   0.0097 pico-seconds


     Andersen thermostat:    4 collisions

ATOMIC_POSITIONS (bohr)
H        0.013625893   0.136509924  -0.121821142
H        0.073313862   7.986784501   7.946274516
H        7.894278502   8.032213550   0.068426347
H        8.018781743   7.844492025   8.107120280


     kinetic energy (Ekin) =     0.00299167 Ry
     temperature           =   104.96579576 K 
     Ekin + Etot (const)   =    -3.67786134 Ry
     Message from routine dynamics:
     Total linear momentum <> 0

     Linear momentum :    0.0251309014   -0.0648073444   -0.0422055845

     Writing output data file pwscf.save

     first order wave-functions extrapolation
     Check: negative starting charge=   -0.016893
     first order charge density extrapolation
     Check: negative starting charge=   -0.016965

     negative rho (up, down):  2.432E-02 0.000E+00

     total cpu time spent up to now is        2.0 secs

     per-process dynamical memory:    32.5 Mb

     Self-consistent Calculation

     iteration #  1     ecut=    30.00 Ry     beta=0.70
     Davidson diagonalization with overlap
     ethr =  1.00E-06,  avg # of iterations =  9.0

     negative rho (up, down):  4.304E-03 0.000E+00

     total cpu time spent up to now is        2.2 secs

     total energy              =      -3.67457984 Ry
     Harris-Foulkes estimate   =      -3.65417939 Ry
     estimated scf accuracy    <       0.00220379 Ry

     iteration #  2     ecut=    30.00 Ry     beta=0.70
     Davidson diagonalization with overlap
     ethr =  5.51E-05,  avg # of iterations =  3.0

     negative rho (up, down):  4.133E-03 0.000E+00

     total cpu time spent up to now is        2.2 secs

     total energy              =      -3.65672134 Ry
     Harris-Foulkes estimate   =      -3.70411278 Ry
     estimated scf accuracy    <       1.04140105 Ry

     iteration #  3     ecut=    30.00 Ry     beta=0.70
     Davidson diagonalization with overlap
     ethr =  5.51E-05,  avg # of iterations =  1.0

     negative rho (up, down):  3.988E-03 0.000E+00

     total cpu time spent up to now is        2.3 secs

     total energy              =      -3.67625612 Ry
     Harris-Foulkes estimate   =      -3.67709366 Ry
     estimated scf accuracy    <       0.02480881 Ry

     iteration #  4     ecut=    30.00 Ry     beta=0.70
     Davidson diagonalization with overlap
     ethr =  5.51E-05,  avg # of iterations =  1.0

     negative rho (up, down):  2.008E-04 0.000E+00

     total cpu time spent up to now is        2.3 secs

     total energy              =      -3.68101672 Ry
     Harris-Foulkes estimate   =      -3.67684731 Ry
     estimated scf accuracy    <       0.00205904 Ry

     iteration #  5     ecut=    30.00 Ry     beta=0.70
     Davidson diagonalization with overlap
     ethr =  5.15E-05,  avg # of iterations =  5.0

     negative rho (up, down):  1.594E-04 0.000E+00

     total cpu time spent up to now is        2.4 secs

     total energy              =      -3.68110449 Ry
     Harris-Foulkes estimate   =      -3.68120003 Ry
     estimated scf accuracy    <       0.00243857 Ry

     iteration #  6     ecut=    30.00 Ry     beta=0.70
     Davidson diagonalization with overlap
     ethr =  5.15E-05,  avg # of iterations =  1.0

     negative rho (up, down):  7.803E-07 0.000E+00

     total cpu time spent up to now is        2.5 secs

     total energy              =      -3.68108696 Ry
     Harris-Foulkes estimate   =      -3.68115383 Ry
     estimated scf accuracy    <       0.00024050 Ry

     iteration #  7     ecut=    30.00 Ry     beta=0.70
     Davidson diagonalization with overlap
     ethr =  6.01E-06,  avg # of iterations =  3.0

     negative rho (up, down):  2.129E-08 0.000E+00

     total cpu time spent up to now is        2.6 secs

     total energy              =      -3.68109446 Ry
     Harris-Foulkes estimate   =      -3.68109532 Ry
     estimated scf accuracy    <       0.00001149 Ry

     iteration #  8     ecut=    30.00 Ry     beta=0.70
     Davidson diagonalization with overlap
     ethr =  2.87E-07,  avg # of iterations =  2.0

     total cpu time spent up to now is        2.6 secs

     total energy              =      -3.68109469 Ry
     Harris-Foulkes estimate   =      -3.68109538 Ry
     estimated scf accuracy    <       0.00001022 Ry

     iteration #  9     ecut=    30.00 Ry     beta=0.70
     Davidson diagonalization with overlap
     ethr =  2.56E-07,  avg # of iterations =  1.0

     total cpu time spent up to now is        2.7 secs

     total energy              =      -3.68109496 Ry
     Harris-Foulkes estimate   =      -3.68109504 Ry
     estimated scf accuracy    <       0.00000098 Ry

     iteration # 10     ecut=    30.00 Ry     beta=0.70
     Davidson diagonalization with overlap
     ethr =  2.45E-08,  avg # of iterations =  1.0

     total cpu time spent up to now is        2.8 secs

     total energy              =      -3.68109497 Ry
     Harris-Foulkes estimate   =      -3.68109498 Ry
     estimated scf accuracy    <       0.00000001 Ry

     iteration # 11     ecut=    30.00 Ry     beta=0.70
     Davidson diagonalization with overlap
     ethr =  2.83E-10,  avg # of iterations =  1.0

     total cpu time spent up to now is        2.8 secs

     End of self-consistent calculation

          k = 0.0000 0.0000 0.0000 ( 22119 PWs)   bands (ev):

    -6.4334  -6.3414  -6.3339  -6.2519  -0.0603   0.4915

     the Fermi energy is    -6.2948 ev

!    total energy              =      -3.68109496 Ry
     Harris-Foulkes estimate   =      -3.68109497 Ry
     estimated scf accuracy    <          3.1E-09 Ry

     convergence has been achieved in  11 iterations

     Forces acting on atoms (Ry/au):

     atom    1 type  1   force =     0.00000629    0.00000938    0.00000826
     atom    2 type  1   force =     0.00157879   -0.00004903    0.00004198
     atom    3 type  1   force =     0.00002614   -0.00005476    0.00134576
     atom    4 type  1   force =    -0.00161122    0.00009440   -0.00139600

     Total force =     0.002977     Total SCF correction =     0.000001

     Entering Dynamics:    iteration =     3
                           time      =   0.0145 pico-seconds


     Andersen thermostat:    4 collisions

ATOMIC_POSITIONS (bohr)
H       -0.070064770   0.092208002  -0.070323253
H        0.158660817   7.944627327   7.872780111
H        7.835910151   8.034348576   0.039725841
H        8.075493803   7.928816094   8.157817300


     kinetic energy (Ekin) =     0.00228575 Ry
     temperature           =    80.19807888 K 
     Ekin + Etot (const)   =    -3.67880920 Ry
     Message from routine dynamics:
     Total linear momentum <> 0

     Linear momentum :   -0.0075641900    0.0188986462    0.0652921163

     Writing output data file pwscf.save

     second order wave-functions extrapolation
     Check: negative starting charge=   -0.016965
     second order charge density extrapolation
     Check: negative starting charge=   -0.017024

     negative rho (up, down):  7.202E-03 0.000E+00

     total cpu time spent up to now is        3.1 secs

     per-process dynamical memory:    32.5 Mb

     Self-consistent Calculation

     iteration #  1     ecut=    30.00 Ry     beta=0.70
     Davidson diagonalization with overlap
     c_bands:  1 eigenvalues not converged
     ethr =  1.00E-06,  avg # of iterations = 20.0

     negative rho (up, down):  1.215E-03 0.000E+00

     total cpu time spent up to now is        3.2 secs

     total energy              =      -3.68012408 Ry
     Harris-Foulkes estimate   =      -3.67369803 Ry
     estimated scf accuracy    <       0.00026534 Ry

     iteration #  2     ecut=    30.00 Ry     beta=0.70
     Davidson diagonalization with overlap
     ethr =  6.63E-06,  avg # of iterations =  9.0

     negative rho (up, down):  1.173E-03 0.000E+00

     total cpu time spent up to now is        3.3 secs

     total energy              =      -3.67707123 Ry
     Harris-Foulkes estimate   =      -3.68406612 Ry
     estimated scf accuracy    <       0.18485695 Ry

     iteration #  3     ecut=    30.00 Ry     beta=0.70
     Davidson diagonalization with overlap
     ethr =  6.63E-06,  avg # of iterations =  1.0

     negative rho (up, down):  1.109E-03 0.000E+00

     total cpu time spent up to now is        3.3 secs

     total energy              =      -3.68048448 Ry
     Harris-Foulkes estimate   =      -3.68045707 Ry
     estimated scf accuracy    <       0.00080115 Ry

     iteration #  4     ecut=    30.00 Ry     beta=0.70
     Davidson diagonalization with overlap
     ethr =  6.63E-06,  avg # of iterations =  1.0

     negative rho (up, down):  1.149E-06 0.000E+00

     total cpu time spent up to now is        3.4 secs

     total energy              =      -3.68100429 Ry
     Harris-Foulkes estimate   =      -3.68052293 Ry
     estimated scf accuracy    <       0.00037196 Ry

     iteration #  5     ecut=    30.00 Ry     beta=0.70
     Davidson diagonalization with overlap
     ethr =  6.63E-06,  avg # of iterations =  6.0

     total cpu time spent up to now is        3.5 secs

     total energy              =      -3.68102201 Ry
     Harris-Foulkes estimate   =      -3.68103587 Ry
     estimated scf accuracy    <       0.00047820 Ry

     iteration #  6     ecut=    30.00 Ry     beta=0.70
     Davidson diagonalization with overlap
     ethr =  6.63E-06,  avg # of iterations =  1.0

     total cpu time spent up to now is        3.5 secs

     total energy              =      -3.68103341 Ry
     Harris-Foulkes estimate   =      -3.68103103 Ry
     estimated scf accuracy    <       0.00000240 Ry

     iteration #  7     ecut=    30.00 Ry     beta=0.70
     Davidson diagonalization with overlap
     ethr =  5.99E-08,  avg # of iterations =  1.0

     total cpu time spent up to now is        3.6 secs

     total energy              =      -3.68103506 Ry
     Harris-Foulkes estimate   =      -3.68103355 Ry
     estimated scf accuracy    <       0.00000001 Ry

     iteration #  8     ecut=    30.00 Ry     beta=0.70
     Davidson diagonalization with overlap
     ethr =  3.61E-10,  avg # of iterations =  3.0

     total cpu time spent up to now is        3.7 secs

     End of self-consistent calculation

          k = 0.0000 0.0000 0.0000 ( 22119 PWs)   bands (ev):

    -6.4320  -6.3410  -6.3330  -6.2530  -0.0600   0.4954

     the Fermi energy is    -6.2943 ev

!    total energy              =      -3.68103521 Ry
     Harris-Foulkes estimate   =      -3.68103508 Ry
     estimated scf accuracy    <          4.0E-09 Ry

     convergence has been achieved in   8 iterations

     Forces acting on atoms (Ry/au):

     atom    1 type  1   force =     0.00000649    0.00001229    0.00000676
     atom    2 type  1   force =     0.00164426   -0.00001559    0.00007788
     atom    3 type  1   force =     0.00004351   -0.00002650    0.00117334
     atom    4 type  1   force =    -0.00169425    0.00002979   -0.00125799

     Total force =     0.002923     Total SCF correction =     0.000010

     Entering Dynamics:    iteration =     4
                           time      =   0.0194 pico-seconds


     Andersen thermostat:    4 collisions

ATOMIC_POSITIONS (bohr)
H       -0.051908397  -0.043515881  -0.160706253
H        0.218027735   7.872117074   7.924765100
H        7.764168899   8.113391710   0.079074049
H        8.069711763   8.058007097   8.156867104


     kinetic energy (Ekin) =     0.00326986 Ry
     temperature           =   114.72671867 K 
     Ekin + Etot (const)   =    -3.67776534 Ry
     Message from routine dynamics:
     Total linear momentum <> 0

     Linear momentum :    0.0309352087    0.0455895159   -0.0265902761

     Writing output data file pwscf.save

     second order wave-functions extrapolation
     Check: negative starting charge=   -0.017024
     second order charge density extrapolation
     Check: negative starting charge=   -0.016947

     negative rho (up, down):  1.290E-02 0.000E+00

     total cpu time spent up to now is        3.9 secs

     per-process dynamical memory:    32.5 Mb

     Self-consistent Calculation

     iteration #  1     ecut=    30.00 Ry     beta=0.70
     Davidson diagonalization with overlap
     c_bands:  1 eigenvalues not converged
     ethr =  1.00E-06,  avg # of iterations = 20.0

     negative rho (up, down):  2.230E-03 0.000E+00

     total cpu time spent up to now is        4.1 secs

     total energy              =      -3.67873353 Ry
     Harris-Foulkes estimate   =      -3.66740364 Ry
     estimated scf accuracy    <       0.00048885 Ry

     iteration #  2     ecut=    30.00 Ry     beta=0.70
     Davidson diagonalization with overlap
     ethr =  1.22E-05,  avg # of iterations =  6.0

     negative rho (up, down):  2.159E-03 0.000E+00

     total cpu time spent up to now is        4.1 secs

     total energy              =      -3.67264123 Ry
     Harris-Foulkes estimate   =      -3.68671905 Ry
     estimated scf accuracy    <       0.39301574 Ry

     iteration #  3     ecut=    30.00 Ry     beta=0.70
     Davidson diagonalization with overlap
     ethr =  1.22E-05,  avg # of iterations =  2.0

     negative rho (up, down):  1.998E-03 0.000E+00

     total cpu time spent up to now is        4.2 secs

     total energy              =      -3.67949256 Ry
     Harris-Foulkes estimate   =      -3.67933885 Ry
     estimated scf accuracy    <       0.00081763 Ry

     iteration #  4     ecut=    30.00 Ry     beta=0.70
     Davidson diagonalization with overlap
     ethr =  1.22E-05,  avg # of iterations =  1.0

     negative rho (up, down):  3.132E-05 0.000E+00

     total cpu time spent up to now is        4.3 secs

     total energy              =      -3.68112613 Ry
     Harris-Foulkes estimate   =      -3.67955972 Ry
     estimated scf accuracy    <       0.00110466 Ry

     iteration #  5     ecut=    30.00 Ry     beta=0.70
     Davidson diagonalization with overlap
     ethr =  1.22E-05,  avg # of iterations =  6.0

     negative rho (up, down):  3.688E-06 0.000E+00

     total cpu time spent up to now is        4.3 secs

     total energy              =      -3.68114433 Ry
     Harris-Foulkes estimate   =      -3.68121364 Ry
     estimated scf accuracy    <       0.00165384 Ry

     iteration #  6     ecut=    30.00 Ry     beta=0.70
     Davidson diagonalization with overlap
     ethr =  1.22E-05,  avg # of iterations =  1.0

     negative rho (up, down):  3.413E-08 0.000E+00

     total cpu time spent up to now is        4.4 secs

     total energy              =      -3.68118768 Ry
     Harris-Foulkes estimate   =      -3.68117780 Ry
     estimated scf accuracy    <       0.00000419 Ry

     iteration #  7     ecut=    30.00 Ry     beta=0.70
     Davidson diagonalization with overlap
     ethr =  1.05E-07,  avg # of iterations = 13.0

     total cpu time spent up to now is        4.5 secs

     total energy              =      -3.68118885 Ry
     Harris-Foulkes estimate   =      -3.68118798 Ry
     estimated scf accuracy    <       0.00000019 Ry

     iteration #  8     ecut=    30.00 Ry     beta=0.70
     Davidson diagonalization with overlap
     ethr =  4.68E-09,  avg # of iterations =  2.0

     total cpu time spent up to now is        4.6 secs

     total energy              =      -3.68118886 Ry
     Harris-Foulkes estimate   =      -3.68118888 Ry
     estimated scf accuracy    <       0.00000005 Ry

     iteration #  9     ecut=    30.00 Ry     beta=0.70
     Davidson diagonalization with overlap
     ethr =  1.24E-09,  avg # of iterations =  1.0

     total cpu time spent up to now is        4.6 secs

     End of self-consistent calculation

          k = 0.0000 0.0000 0.0000 ( 22119 PWs)   bands (ev):

    -6.4360  -6.3419  -6.3335  -6.2507  -0.0611   0.4939

     the Fermi energy is    -6.2952 ev

!    total energy              =      -3.68118886 Ry
     Harris-Foulkes estimate   =      -3.68118887 Ry
     estimated scf accuracy    <          2.8E-09 Ry

     convergence has been achieved in   9 iterations

     Forces acting on atoms (Ry/au):

     atom    1 type  1   force =     0.00000088    0.00001114    0.00000934
     atom    2 type  1   force =     0.00182158    0.00006628    0.00007235
     atom    3 type  1   force =     0.00006300   -0.00001812    0.00124494
     atom    4 type  1   force =    -0.00188546   -0.00005929   -0.00132663

     Total force =     0.003194     Total SCF correction =     0.000004

     Entering Dynamics:    iteration =     5
                           time      =   0.0242 pico-seconds


     Andersen thermostat:    4 collisions

ATOMIC_POSITIONS (bohr)
H       -0.092443370  -0.069074472  -0.078745126
H        0.344606602   7.763761575   7.959781447
H        7.884293192   8.212287291  -0.009798752
H        7.863543576   8.093025606   8.128762431


     kinetic energy (Ekin) =     0.00513414 Ry
     temperature           =   180.13679857 K 
     Ekin + Etot (const)   =    -3.67605472 Ry
     Message from routine dynamics:
     Total linear momentum <> 0

     Linear momentum :   -0.0237497609    0.0371741552   -0.0142167806

     Writing output data file pwscf.save

     second order wave-functions extrapolation
     Check: negative starting charge=   -0.016947
     second order charge density extrapolation
     Check: negative starting charge=   -0.017052

     negative rho (up, down):  1.625E-02 0.000E+00

     total cpu time spent up to now is        4.9 secs

     per-process dynamical memory:    32.5 Mb

     Self-consistent Calculation

     iteration #  1     ecut=    30.00 Ry     beta=0.70
     Davidson diagonalization with overlap
     c_bands:  1 eigenvalues not converged
     ethr =  1.00E-06,  avg # of iterations = 20.0

     negative rho (up, down):  2.795E-03 0.000E+00

     total cpu time spent up to now is        5.0 secs

     total energy              =      -3.67816566 Ry
     Harris-Foulkes estimate   =      -3.66400032 Ry
     estimated scf accuracy    <       0.00102118 Ry

     iteration #  2     ecut=    30.00 Ry     beta=0.70
     Davidson diagonalization with overlap
     ethr =  2.55E-05,  avg # of iterations =  6.0

     negative rho (up, down):  2.698E-03 0.000E+00

     total cpu time spent up to now is        5.1 secs

     total energy              =      -3.66811572 Ry
     Harris-Foulkes estimate   =      -3.69328263 Ry
     estimated scf accuracy    <       0.60481356 Ry

     iteration #  3     ecut=    30.00 Ry     beta=0.70
     Davidson diagonalization with overlap
     ethr =  2.55E-05,  avg # of iterations =  1.0

     negative rho (up, down):  1.880E-03 0.000E+00

     total cpu time spent up to now is        5.1 secs

     total energy              =      -3.68025759 Ry
     Harris-Foulkes estimate   =      -3.67921825 Ry
     estimated scf accuracy    <       0.00057644 Ry

     iteration #  4     ecut=    30.00 Ry     beta=0.70
     Davidson diagonalization with overlap
     ethr =  1.44E-05,  avg # of iterations =  3.0

     negative rho (up, down):  5.272E-05 0.000E+00

     total cpu time spent up to now is        5.2 secs

     total energy              =      -3.68160311 Ry
     Harris-Foulkes estimate   =      -3.68057433 Ry
     estimated scf accuracy    <       0.01332115 Ry

     iteration #  5     ecut=    30.00 Ry     beta=0.70
     Davidson diagonalization with overlap
     ethr =  1.44E-05,  avg # of iterations =  7.0

     negative rho (up, down):  4.642E-05 0.000E+00

     total cpu time spent up to now is        5.4 secs

     total energy              =      -3.68187451 Ry
     Harris-Foulkes estimate   =      -3.68188831 Ry
     estimated scf accuracy    <       0.00025655 Ry

     iteration #  6     ecut=    30.00 Ry     beta=0.70
     Davidson diagonalization with overlap
     ethr =  6.41E-06,  avg # of iterations =  1.0

     negative rho (up, down):  3.016E-07 0.000E+00

     total cpu time spent up to now is        5.5 secs

     total energy              =      -3.68188360 Ry
     Harris-Foulkes estimate   =      -3.68188383 Ry
     estimated scf accuracy    <       0.00007514 Ry

     iteration #  7     ecut=    30.00 Ry     beta=0.70
     Davidson diagonalization with overlap
     ethr =  1.88E-06,  avg # of iterations = 12.0

     negative rho (up, down):  2.709E-08 0.000E+00

     total cpu time spent up to now is        5.6 secs

     total energy              =      -3.68188611 Ry
     Harris-Foulkes estimate   =      -3.68188571 Ry
     estimated scf accuracy    <       0.00000062 Ry

     iteration #  8     ecut=    30.00 Ry     beta=0.70
     Davidson diagonalization with overlap
     ethr =  1.56E-08,  avg # of iterations =  1.0

     total cpu time spent up to now is        5.6 secs

     total energy              =      -3.68188580 Ry
     Harris-Foulkes estimate   =      -3.68188622 Ry
     estimated scf accuracy    <       0.00000157 Ry

     iteration #  9     ecut=    30.00 Ry     beta=0.70
     Davidson diagonalization with overlap
     ethr =  1.56E-08,  avg # of iterations =  1.0

     total cpu time spent up to now is        5.7 secs

     total energy              =      -3.68188585 Ry
     Harris-Foulkes estimate   =      -3.68188585 Ry
     estimated scf accuracy    <       0.00000011 Ry

     iteration # 10     ecut=    30.00 Ry     beta=0.70
     Davidson diagonalization with overlap
     ethr =  2.74E-09,  avg # of iterations =  1.0

     total cpu time spent up to now is        5.8 secs

     End of self-consistent calculation

          k = 0.0000 0.0000 0.0000 ( 22119 PWs)   bands (ev):

    -6.4506  -6.3451  -6.3374  -6.2392  -0.0629   0.4929

     the Fermi energy is    -6.2984 ev

!    total energy              =      -3.68188583 Ry
     Harris-Foulkes estimate   =      -3.68188586 Ry
     estimated scf accuracy    <          3.1E-09 Ry

     convergence has been achieved in  10 iterations

     Forces acting on atoms (Ry/au):

     atom    1 type  1   force =    -0.00000116    0.00001015    0.00000782
     atom    2 type  1   force =     0.00292139    0.00019915    0.00010129
     atom    3 type  1   force =    -0.00000541   -0.00003103    0.00112326
     atom    4 type  1   force =    -0.00291482   -0.00017827   -0.00123238

     Total force =     0.004460     Total SCF correction =     0.000002

     Entering Dynamics:    iteration =     6
                           time      =   0.0290 pico-seconds


     Andersen thermostat:    4 collisions

ATOMIC_POSITIONS (bohr)
H        0.084884915  -0.068246283  -0.126274427
H        0.233583911   7.744994390   8.032366186
H        7.810978958   8.300959800   0.016469133
H        7.870552216   8.022292093   8.077439108


     kinetic energy (Ekin) =     0.00358648 Ry
     temperature           =   125.83553273 K 
     Ekin + Etot (const)   =    -3.67829935 Ry
     Message from routine dynamics:
     Total linear momentum <> 0

     Linear momentum :    0.0117026736   -0.0168818286   -0.0287541711

     Writing output data file pwscf.save

     second order wave-functions extrapolation
     Check: negative starting charge=   -0.017052
     second order charge density extrapolation
     Check: negative starting charge=   -0.016973

     negative rho (up, down):  1.243E-02 0.000E+00

     total cpu time spent up to now is        6.0 secs

     per-process dynamical memory:    32.5 Mb

     Self-consistent Calculation

     iteration #  1     ecut=    30.00 Ry     beta=0.70
     Davidson diagonalization with overlap
     c_bands:  1 eigenvalues not converged
     ethr =  1.00E-06,  avg # of iterations = 20.0

     negative rho (up, down):  2.178E-03 0.000E+00

     total cpu time spent up to now is        6.1 secs

     total energy              =      -3.67949036 Ry
     Harris-Foulkes estimate   =      -3.66847628 Ry
     estimated scf accuracy    <       0.00029739 Ry

     iteration #  2     ecut=    30.00 Ry     beta=0.70
     Davidson diagonalization with overlap
     c_bands:  1 eigenvalues not converged
     ethr =  7.43E-06,  avg # of iterations = 20.0

     negative rho (up, down):  2.109E-03 0.000E+00

     total cpu time spent up to now is        6.2 secs

     total energy              =      -3.67618939 Ry
     Harris-Foulkes estimate   =      -3.68379553 Ry
     estimated scf accuracy    <       0.21343744 Ry

     iteration #  3     ecut=    30.00 Ry     beta=0.70
     Davidson diagonalization with overlap
     ethr =  7.43E-06,  avg # of iterations =  3.0

     negative rho (up, down):  1.974E-03 0.000E+00

     total cpu time spent up to now is        6.3 secs

     total energy              =      -3.68002810 Ry
     Harris-Foulkes estimate   =      -3.67993711 Ry
     estimated scf accuracy    <       0.00119842 Ry

     iteration #  4     ecut=    30.00 Ry     beta=0.70
     Davidson diagonalization with overlap
     ethr =  7.43E-06,  avg # of iterations =  1.0

     negative rho (up, down):  1.026E-05 0.000E+00

     total cpu time spent up to now is        6.4 secs

     total energy              =      -3.68160074 Ry
     Harris-Foulkes estimate   =      -3.68010850 Ry
     estimated scf accuracy    <       0.00090628 Ry

     iteration #  5     ecut=    30.00 Ry     beta=0.70
     Davidson diagonalization with overlap
     ethr =  7.43E-06,  avg # of iterations =  8.0

     negative rho (up, down):  2.389E-06 0.000E+00

     total cpu time spent up to now is        6.5 secs

     total energy              =      -3.68163831 Ry
     Harris-Foulkes estimate   =      -3.68166941 Ry
     estimated scf accuracy    <       0.00095404 Ry

     iteration #  6     ecut=    30.00 Ry     beta=0.70
     Davidson diagonalization with overlap
     ethr =  7.43E-06,  avg # of iterations =  1.0

     negative rho (up, down):  2.763E-08 0.000E+00

     total cpu time spent up to now is        6.5 secs

     total energy              =      -3.68166850 Ry
     Harris-Foulkes estimate   =      -3.68165652 Ry
     estimated scf accuracy    <       0.00000096 Ry

     iteration #  7     ecut=    30.00 Ry     beta=0.70
     Davidson diagonalization with overlap
     ethr =  2.40E-08,  avg # of iterations =  2.0

     total cpu time spent up to now is        6.6 secs

     total energy              =      -3.68166891 Ry
     Harris-Foulkes estimate   =      -3.68166867 Ry
     estimated scf accuracy    <       0.00000009 Ry

     iteration #  8     ecut=    30.00 Ry     beta=0.70
     Davidson diagonalization with overlap
     ethr =  2.28E-09,  avg # of iterations =  1.0

     total cpu time spent up to now is        6.6 secs

     End of self-consistent calculation

          k = 0.0000 0.0000 0.0000 ( 22119 PWs)   bands (ev):

    -6.4463  -6.3442  -6.3365  -6.2426  -0.0627   0.5075

     the Fermi energy is    -6.2975 ev

!    total energy              =      -3.68166890 Ry
     Harris-Foulkes estimate   =      -3.68166892 Ry
     estimated scf accuracy    <          1.1E-09 Ry

     convergence has been achieved in   8 iterations

     Forces acting on atoms (Ry/au):

     atom    1 type  1   force =     0.00001650    0.00001590    0.00000726
     atom    2 type  1   force =     0.00250202    0.00015030    0.00002068
     atom    3 type  1   force =     0.00000419   -0.00006132    0.00127529
     atom    4 type  1   force =    -0.00252271   -0.00010487   -0.00130323

     Total force =     0.003998     Total SCF correction =     0.000027

     Entering Dynamics:    iteration =     7
                           time      =   0.0339 pico-seconds


     Andersen thermostat:    4 collisions

ATOMIC_POSITIONS (bohr)
H        0.158127673  -0.064563484  -0.103630381
H        0.225985418   7.775705268   7.916201993
H        7.823750576   8.202418353   0.093697406
H        7.792136333   8.086439863   8.093730982


     kinetic energy (Ekin) =     0.00238035 Ry
     temperature           =    83.51700958 K 
     Ekin + Etot (const)   =    -3.67928856 Ry
     Message from routine dynamics:
     Total linear momentum <> 0

     Linear momentum :    0.0027763221    0.0762591910   -0.0191650897

     Writing output data file pwscf.save

     second order wave-functions extrapolation
     Check: negative starting charge=   -0.016973
     second order charge density extrapolation
     Check: negative starting charge=   -0.017048

     negative rho (up, down):  9.274E-03 0.000E+00

     total cpu time spent up to now is        6.9 secs

     per-process dynamical memory:    32.5 Mb

     Self-consistent Calculation

     iteration #  1     ecut=    30.00 Ry     beta=0.70
     Davidson diagonalization with overlap
     c_bands:  1 eigenvalues not converged
     ethr =  1.00E-06,  avg # of iterations = 20.0

     negative rho (up, down):  1.575E-03 0.000E+00

     total cpu time spent up to now is        7.0 secs

     total energy              =      -3.68069193 Ry
     Harris-Foulkes estimate   =      -3.67227096 Ry
     estimated scf accuracy    <       0.00008226 Ry

     iteration #  2     ecut=    30.00 Ry     beta=0.70
     Davidson diagonalization with overlap
     c_bands:  1 eigenvalues not converged
     ethr =  2.06E-06,  avg # of iterations = 20.0

     negative rho (up, down):  1.525E-03 0.000E+00

     total cpu time spent up to now is        7.1 secs

     total energy              =      -3.68022631 Ry
     Harris-Foulkes estimate   =      -3.68153713 Ry
     estimated scf accuracy    <       0.03744125 Ry

     iteration #  3     ecut=    30.00 Ry     beta=0.70
     Davidson diagonalization with overlap
     c_bands:  1 eigenvalues not converged
     ethr =  2.06E-06,  avg # of iterations = 20.0

     negative rho (up, down):  7.938E-04 0.000E+00

     total cpu time spent up to now is        7.2 secs

     total energy              =      -3.68174007 Ry
     Harris-Foulkes estimate   =      -3.68091072 Ry
     estimated scf accuracy    <       0.00004403 Ry

     iteration #  4     ecut=    30.00 Ry     beta=0.70
     Davidson diagonalization with overlap
     ethr =  1.10E-06,  avg # of iterations =  6.0

     negative rho (up, down):  2.545E-06 0.000E+00

     total cpu time spent up to now is        7.3 secs

     total energy              =      -3.68179390 Ry
     Harris-Foulkes estimate   =      -3.68187747 Ry
     estimated scf accuracy    <       0.00577362 Ry

     iteration #  5     ecut=    30.00 Ry     beta=0.70
     Davidson diagonalization with overlap
     ethr =  1.10E-06,  avg # of iterations =  7.0

     negative rho (up, down):  1.707E-06 0.000E+00

     total cpu time spent up to now is        7.4 secs

     total energy              =      -3.68191548 Ry
     Harris-Foulkes estimate   =      -3.68191828 Ry
     estimated scf accuracy    <       0.00009304 Ry

     iteration #  6     ecut=    30.00 Ry     beta=0.70
     Davidson diagonalization with overlap
     ethr =  1.10E-06,  avg # of iterations =  1.0

     negative rho (up, down):  3.157E-08 0.000E+00

     total cpu time spent up to now is        7.4 secs

     total energy              =      -3.68192810 Ry
     Harris-Foulkes estimate   =      -3.68191794 Ry
     estimated scf accuracy    <       0.00000301 Ry

     iteration #  7     ecut=    30.00 Ry     beta=0.70
     Davidson diagonalization with overlap
     ethr =  7.51E-08,  avg # of iterations =  1.0

     total cpu time spent up to now is        7.5 secs

     total energy              =      -3.68192828 Ry
     Harris-Foulkes estimate   =      -3.68192820 Ry
     estimated scf accuracy    <       0.00000009 Ry

     iteration #  8     ecut=    30.00 Ry     beta=0.70
     Davidson diagonalization with overlap
     ethr =  2.29E-09,  avg # of iterations =  1.0

     total cpu time spent up to now is        7.5 secs

     End of self-consistent calculation

          k = 0.0000 0.0000 0.0000 ( 22119 PWs)   bands (ev):

    -6.4521  -6.3454  -6.3370  -6.2389  -0.0625   0.5023

     the Fermi energy is    -6.2987 ev

!    total energy              =      -3.68192825 Ry
     Harris-Foulkes estimate   =      -3.68192829 Ry
     estimated scf accuracy    <          7.9E-10 Ry

     convergence has been achieved in   8 iterations

     Forces acting on atoms (Ry/au):

     atom    1 type  1   force =     0.00000759    0.00001473    0.00000625
     atom    2 type  1   force =     0.00273701    0.00017860    0.00009269
     atom    3 type  1   force =    -0.00001062   -0.00004780    0.00143602
     atom    4 type  1   force =    -0.00273398   -0.00014554   -0.00153495

     Total force =     0.004410     Total SCF correction =     0.000015

     Entering Dynamics:    iteration =     8
                           time      =   0.0387 pico-seconds


     Andersen thermostat:    4 collisions

ATOMIC_POSITIONS (bohr)
H        0.252829805  -0.130801788  -0.124210959
H        0.138071382   7.835621446   7.951492398
H        7.811022551   8.212912146   0.003066010
H        7.798076261   8.082268195   8.169652551


     kinetic energy (Ekin) =     0.00263746 Ry
     temperature           =    92.53808055 K 
     Ekin + Etot (const)   =    -3.67929079 Ry
     Message from routine dynamics:
     Total linear momentum <> 0

     Linear momentum :   -0.0868497911    0.0253963508   -0.0305171534

     Writing output data file pwscf.save

     second order wave-functions extrapolation
     Check: negative starting charge=   -0.017048
     second order charge density extrapolation
     Check: negative starting charge=   -0.017094

     negative rho (up, down):  9.947E-03 0.000E+00

     total cpu time spent up to now is        7.8 secs

     per-process dynamical memory:    32.5 Mb

     Self-consistent Calculation

     iteration #  1     ecut=    30.00 Ry     beta=0.70
     Davidson diagonalization with overlap
     ethr =  1.00E-06,  avg # of iterations = 13.0

     negative rho (up, down):  1.692E-03 0.000E+00

     total cpu time spent up to now is        7.9 secs

     total energy              =      -3.68008777 Ry
     Harris-Foulkes estimate   =      -3.67104454 Ry
     estimated scf accuracy    <       0.00004717 Ry

     iteration #  2     ecut=    30.00 Ry     beta=0.70
     Davidson diagonalization with overlap
     ethr =  1.18E-06,  avg # of iterations =  9.0

     negative rho (up, down):  1.633E-03 0.000E+00

     total cpu time spent up to now is        8.0 secs

     total energy              =      -3.68011701 Ry
     Harris-Foulkes estimate   =      -3.68040120 Ry
     estimated scf accuracy    <       0.00914398 Ry

     iteration #  3     ecut=    30.00 Ry     beta=0.70
     Davidson diagonalization with overlap
     ethr =  1.18E-06,  avg # of iterations =  1.0

     negative rho (up, down):  5.735E-04 0.000E+00

     total cpu time spent up to now is        8.1 secs

     total energy              =      -3.68145605 Ry
     Harris-Foulkes estimate   =      -3.68030331 Ry
     estimated scf accuracy    <       0.00004017 Ry

     iteration #  4     ecut=    30.00 Ry     beta=0.70
     Davidson diagonalization with overlap
     ethr =  1.00E-06,  avg # of iterations = 16.0

     negative rho (up, down):  6.735E-07 0.000E+00

     total cpu time spent up to now is        8.2 secs

     total energy              =      -3.68136728 Ry
     Harris-Foulkes estimate   =      -3.68159040 Ry
     estimated scf accuracy    <       0.00558280 Ry

     iteration #  5     ecut=    30.00 Ry     beta=0.70
     Davidson diagonalization with overlap
     ethr =  1.00E-06,  avg # of iterations =  7.0

     negative rho (up, down):  3.527E-07 0.000E+00

     total cpu time spent up to now is        8.3 secs

     total energy              =      -3.68148313 Ry
     Harris-Foulkes estimate   =      -3.68148660 Ry
     estimated scf accuracy    <       0.00009513 Ry

     iteration #  6     ecut=    30.00 Ry     beta=0.70
     Davidson diagonalization with overlap
     ethr =  1.00E-06,  avg # of iterations =  1.0

     total cpu time spent up to now is        8.3 secs

     total energy              =      -3.68148986 Ry
     Harris-Foulkes estimate   =      -3.68148546 Ry
     estimated scf accuracy    <       0.00000263 Ry

     iteration #  7     ecut=    30.00 Ry     beta=0.70
     Davidson diagonalization with overlap
     ethr =  6.58E-08,  avg # of iterations =  1.0

     total cpu time spent up to now is        8.4 secs

     total energy              =      -3.68149065 Ry
     Harris-Foulkes estimate   =      -3.68148993 Ry
     estimated scf accuracy    <       0.00000004 Ry

     iteration #  8     ecut=    30.00 Ry     beta=0.70
     Davidson diagonalization with overlap
     ethr =  8.87E-10,  avg # of iterations =  2.0

     total cpu time spent up to now is        8.4 secs

     End of self-consistent calculation

          k = 0.0000 0.0000 0.0000 ( 22119 PWs)   bands (ev):

    -6.4421  -6.3435  -6.3356  -6.2451  -0.0614   0.4947

     the Fermi energy is    -6.2965 ev

!    total energy              =      -3.68149071 Ry
     Harris-Foulkes estimate   =      -3.68149066 Ry
     estimated scf accuracy    <          5.4E-10 Ry

     convergence has been achieved in   8 iterations

     Forces acting on atoms (Ry/au):

     atom    1 type  1   force =     0.00000689    0.00001019    0.00000604
     atom    2 type  1   force =     0.00241989    0.00012670    0.00010679
     atom    3 type  1   force =    -0.00000811   -0.00003436    0.00107696
     atom    4 type  1   force =    -0.00241867   -0.00010253   -0.00118980

     Total force =     0.003784     Total SCF correction =     0.000005

     Entering Dynamics:    iteration =     9
                           time      =   0.0435 pico-seconds


     Andersen thermostat:    4 collisions

ATOMIC_POSITIONS (bohr)
H        0.239921050  -0.039932703  -0.154926985
H        0.132176990   7.765050359   7.942347566
H        7.823442454   8.215571989  -0.049218411
H        7.804459507   8.059310356   8.261797829


     kinetic energy (Ekin) =     0.00143294 Ry
     temperature           =    50.27622553 K 
     Ekin + Etot (const)   =    -3.68005777 Ry
     Message from routine dynamics:
     Total linear momentum <> 0

     Linear momentum :   -0.0375630488   -0.0018061567    0.0188353433

     Writing output data file pwscf.save

     second order wave-functions extrapolation
     Check: negative starting charge=   -0.017094
     second order charge density extrapolation
     Check: negative starting charge=   -0.017006

     negative rho (up, down):  6.526E-03 0.000E+00

     total cpu time spent up to now is        8.7 secs

     per-process dynamical memory:    32.5 Mb

     Self-consistent Calculation

     iteration #  1     ecut=    30.00 Ry     beta=0.70
     Davidson diagonalization with overlap
     c_bands:  1 eigenvalues not converged
     ethr =  1.00E-06,  avg # of iterations = 20.0

     negative rho (up, down):  1.061E-03 0.000E+00

     total cpu time spent up to now is        8.8 secs

     total energy              =      -3.68069598 Ry
     Harris-Foulkes estimate   =      -3.67464942 Ry
     estimated scf accuracy    <       0.00006488 Ry

     iteration #  2     ecut=    30.00 Ry     beta=0.70
     Davidson diagonalization with overlap
     ethr =  1.62E-06,  avg # of iterations = 10.0

     negative rho (up, down):  1.023E-03 0.000E+00

     total cpu time spent up to now is        8.9 secs

     total energy              =      -3.68024375 Ry
     Harris-Foulkes estimate   =      -3.68145189 Ry
     estimated scf accuracy    <       0.03305073 Ry

     iteration #  3     ecut=    30.00 Ry     beta=0.70
     Davidson diagonalization with overlap
     ethr =  1.62E-06,  avg # of iterations =  1.0

     negative rho (up, down):  9.361E-04 0.000E+00

     total cpu time spent up to now is        9.0 secs

     total energy              =      -3.68093751 Ry
     Harris-Foulkes estimate   =      -3.68086279 Ry
     estimated scf accuracy    <       0.00026181 Ry

     iteration #  4     ecut=    30.00 Ry     beta=0.70
     Davidson diagonalization with overlap
     ethr =  1.62E-06,  avg # of iterations =  3.0

     negative rho (up, down):  7.476E-07 0.000E+00

     total cpu time spent up to now is        9.0 secs

     total energy              =      -3.68127847 Ry
     Harris-Foulkes estimate   =      -3.68096772 Ry
     estimated scf accuracy    <       0.00058784 Ry

     iteration #  5     ecut=    30.00 Ry     beta=0.70
     Davidson diagonalization with overlap
     ethr =  1.62E-06,  avg # of iterations = 18.0

     total cpu time spent up to now is        9.1 secs

     total energy              =      -3.68129731 Ry
     Harris-Foulkes estimate   =      -3.68130896 Ry
     estimated scf accuracy    <       0.00033420 Ry

     iteration #  6     ecut=    30.00 Ry     beta=0.70
     Davidson diagonalization with overlap
     ethr =  1.62E-06,  avg # of iterations =  1.0

     total cpu time spent up to now is        9.2 secs

     total energy              =      -3.68130617 Ry
     Harris-Foulkes estimate   =      -3.68130384 Ry
     estimated scf accuracy    <       0.00000050 Ry

     iteration #  7     ecut=    30.00 Ry     beta=0.70
     Davidson diagonalization with overlap
     ethr =  1.26E-08,  avg # of iterations =  1.0

     total cpu time spent up to now is        9.3 secs

     total energy              =      -3.68130734 Ry
     Harris-Foulkes estimate   =      -3.68130620 Ry
     estimated scf accuracy    <       0.00000001 Ry

     iteration #  8     ecut=    30.00 Ry     beta=0.70
     Davidson diagonalization with overlap
     ethr =  3.44E-10,  avg # of iterations =  2.0

     total cpu time spent up to now is        9.3 secs

     End of self-consistent calculation

          k = 0.0000 0.0000 0.0000 ( 22119 PWs)   bands (ev):

    -6.4374  -6.3425  -6.3347  -6.2477  -0.0605   0.4862

     the Fermi energy is    -6.2954 ev

!    total energy              =      -3.68130744 Ry
     Harris-Foulkes estimate   =      -3.68130735 Ry
     estimated scf accuracy    <          1.9E-09 Ry

     convergence has been achieved in   8 iterations

     Forces acting on atoms (Ry/au):

     atom    1 type  1   force =     0.00000331    0.00001170    0.00000977
     atom    2 type  1   force =     0.00234849    0.00013303    0.00013673
     atom    3 type  1   force =    -0.00000713   -0.00002998    0.00084651
     atom    4 type  1   force =    -0.00234467   -0.00011474   -0.00099300

     Total force =     0.003573     Total SCF correction =     0.000003

     Entering Dynamics:    iteration =    10
                           time      =   0.0484 pico-seconds


     Andersen thermostat:    4 collisions

ATOMIC_POSITIONS (bohr)
H        0.155324658  -0.026085928  -0.126812500
H        0.197493393   7.744818659   7.985317667
H        7.776062784   8.256882146  -0.139892952
H        7.871119165   8.024385123   8.281387785


     kinetic energy (Ekin) =     0.00178887 Ry
     temperature           =    62.76447680 K 
     Ekin + Etot (const)   =    -3.67951857 Ry
     Message from routine dynamics:
     Total linear momentum <> 0

     Linear momentum :   -0.0138899112   -0.0185119181   -0.0579927684

     Writing output data file pwscf.save

     second order wave-functions extrapolation
     Check: negative starting charge=   -0.017006
     second order charge density extrapolation
     Check: negative starting charge=   -0.016892

     negative rho (up, down):  7.312E-03 0.000E+00

     total cpu time spent up to now is        9.6 secs

     per-process dynamical memory:    32.5 Mb

     Self-consistent Calculation

     iteration #  1     ecut=    30.00 Ry     beta=0.70
     Davidson diagonalization with overlap
     c_bands:  1 eigenvalues not converged
     ethr =  1.00E-06,  avg # of iterations = 20.0

     negative rho (up, down):  1.207E-03 0.000E+00

     total cpu time spent up to now is        9.7 secs

     total energy              =      -3.68045799 Ry
     Harris-Foulkes estimate   =      -3.67368791 Ry
     estimated scf accuracy    <       0.00005410 Ry

     iteration #  2     ecut=    30.00 Ry     beta=0.70
     Davidson diagonalization with overlap
     ethr =  1.35E-06,  avg # of iterations = 10.0

     negative rho (up, down):  1.164E-03 0.000E+00

     total cpu time spent up to now is        9.8 secs

     total energy              =      -3.68022932 Ry
     Harris-Foulkes estimate   =      -3.68097766 Ry
     estimated scf accuracy    <       0.02054315 Ry

     iteration #  3     ecut=    30.00 Ry     beta=0.70
     Davidson diagonalization with overlap
     ethr =  1.35E-06,  avg # of iterations =  1.0

     negative rho (up, down):  9.552E-04 0.000E+00

     total cpu time spent up to now is        9.9 secs

     total energy              =      -3.68085617 Ry
     Harris-Foulkes estimate   =      -3.68062925 Ry
     estimated scf accuracy    <       0.00010550 Ry

     iteration #  4     ecut=    30.00 Ry     beta=0.70
     Davidson diagonalization with overlap
     ethr =  1.35E-06,  avg # of iterations =  4.0

     negative rho (up, down):  1.660E-07 0.000E+00

     total cpu time spent up to now is        9.9 secs

     total energy              =      -3.68117170 Ry
     Harris-Foulkes estimate   =      -3.68091024 Ry
     estimated scf accuracy    <       0.00189085 Ry

     iteration #  5     ecut=    30.00 Ry     beta=0.70
     Davidson diagonalization with overlap
     ethr =  1.35E-06,  avg # of iterations = 18.0

     total cpu time spent up to now is       10.0 secs

     total energy              =      -3.68121597 Ry
     Harris-Foulkes estimate   =      -3.68122340 Ry
     estimated scf accuracy    <       0.00022736 Ry

     iteration #  6     ecut=    30.00 Ry     beta=0.70
     Davidson diagonalization with overlap
     ethr =  1.35E-06,  avg # of iterations =  1.0

     total cpu time spent up to now is       10.1 secs

     total energy              =      -3.68122253 Ry
     Harris-Foulkes estimate   =      -3.68122040 Ry
     estimated scf accuracy    <       0.00000104 Ry

     iteration #  7     ecut=    30.00 Ry     beta=0.70
     Davidson diagonalization with overlap
     ethr =  2.61E-08,  avg # of iterations =  1.0

     total cpu time spent up to now is       10.2 secs

     total energy              =      -3.68122354 Ry
     Harris-Foulkes estimate   =      -3.68122257 Ry
     estimated scf accuracy    <       0.00000004 Ry

     iteration #  8     ecut=    30.00 Ry     beta=0.70
     Davidson diagonalization with overlap
     ethr =  1.04E-09,  avg # of iterations =  2.0

     total cpu time spent up to now is       10.2 secs

     End of self-consistent calculation

          k = 0.0000 0.0000 0.0000 ( 22119 PWs)   bands (ev):

    -6.4350  -6.3420  -6.3345  -6.2488  -0.0603   0.4824

     the Fermi energy is    -6.2948 ev

!    total energy              =      -3.68122370 Ry
     Harris-Foulkes estimate   =      -3.68122355 Ry
     estimated scf accuracy    <          2.3E-09 Ry

     convergence has been achieved in   8 iterations

     Forces acting on atoms (Ry/au):

     atom    1 type  1   force =    -0.00000051    0.00001081    0.00001078
     atom    2 type  1   force =     0.00235937    0.00013310    0.00013095
     atom    3 type  1   force =    -0.00000080   -0.00003557    0.00070732
     atom    4 type  1   force =    -0.00235807   -0.00010834   -0.00084905

     Total force =     0.003521     Total SCF correction =     0.000011

     Entering Dynamics:    iteration =    11
                           time      =   0.0532 pico-seconds


     Andersen thermostat:    4 collisions

ATOMIC_POSITIONS (bohr)
H        0.051267572  -0.086629487  -0.097917697
H        0.245261099   7.757385065   7.880861980
H        7.769241181   8.293885811  -0.093888647
H        7.934230148   8.035358611   8.310944365


     kinetic energy (Ekin) =     0.00205835 Ry
     temperature           =    72.21936476 K 
     Ekin + Etot (const)   =    -3.67916536 Ry
     Message from routine dynamics:
     Total linear momentum <> 0

     Linear momentum :    0.0291585195    0.0012397151   -0.0694296660

     Writing output data file pwscf.save

     second order wave-functions extrapolation
     Check: negative starting charge=   -0.016892
     second order charge density extrapolation
     Check: negative starting charge=   -0.016965

     negative rho (up, down):  7.966E-03 0.000E+00

     total cpu time spent up to now is       10.7 secs

     per-process dynamical memory:    32.5 Mb

     Self-consistent Calculation

     iteration #  1     ecut=    30.00 Ry     beta=0.70
     Davidson diagonalization with overlap
     c_bands:  1 eigenvalues not converged
     ethr =  1.00E-06,  avg # of iterations = 20.0

     negative rho (up, down):  1.323E-03 0.000E+00

     total cpu time spent up to now is       10.8 secs

     total energy              =      -3.68010641 Ry
     Harris-Foulkes estimate   =      -3.67291818 Ry
     estimated scf accuracy    <       0.00024778 Ry

     iteration #  2     ecut=    30.00 Ry     beta=0.70
     Davidson diagonalization with overlap
     ethr =  6.19E-06,  avg # of iterations =  6.0

     negative rho (up, down):  1.277E-03 0.000E+00

     total cpu time spent up to now is       10.9 secs

     total energy              =      -3.67734927 Ry
     Harris-Foulkes estimate   =      -3.68368443 Ry
     estimated scf accuracy    <       0.16711542 Ry

     iteration #  3     ecut=    30.00 Ry     beta=0.70
     Davidson diagonalization with overlap
     ethr =  6.19E-06,  avg # of iterations =  2.0

     negative rho (up, down):  1.200E-03 0.000E+00

     total cpu time spent up to now is       10.9 secs

     total energy              =      -3.68049337 Ry
     Harris-Foulkes estimate   =      -3.68044586 Ry
     estimated scf accuracy    <       0.00074949 Ry

     iteration #  4     ecut=    30.00 Ry     beta=0.70
     Davidson diagonalization with overlap
     ethr =  6.19E-06,  avg # of iterations =  1.0

     negative rho (up, down):  3.178E-07 0.000E+00

     total cpu time spent up to now is       11.0 secs

     total energy              =      -3.68114454 Ry
     Harris-Foulkes estimate   =      -3.68053624 Ry
     estimated scf accuracy    <       0.00045713 Ry

     iteration #  5     ecut=    30.00 Ry     beta=0.70
     Davidson diagonalization with overlap
     ethr =  6.19E-06,  avg # of iterations =  7.0

     negative rho (up, down):  2.987E-08 0.000E+00

     total cpu time spent up to now is       11.1 secs

     total energy              =      -3.68116983 Ry
     Harris-Foulkes estimate   =      -3.68117602 Ry
     estimated scf accuracy    <       0.00020143 Ry

     iteration #  6     ecut=    30.00 Ry     beta=0.70
     Davidson diagonalization with overlap
     ethr =  5.04E-06,  avg # of iterations =  1.0

     total cpu time spent up to now is       11.1 secs

     total energy              =      -3.68117768 Ry
     Harris-Foulkes estimate   =      -3.68117437 Ry
     estimated scf accuracy    <       0.00000161 Ry

     iteration #  7     ecut=    30.00 Ry     beta=0.70
     Davidson diagonalization with overlap
     ethr =  4.02E-08,  avg # of iterations =  1.0

     total cpu time spent up to now is       11.2 secs

     total energy              =      -3.68117859 Ry
     Harris-Foulkes estimate   =      -3.68117782 Ry
     estimated scf accuracy    <       0.00000003 Ry

     iteration #  8     ecut=    30.00 Ry     beta=0.70
     Davidson diagonalization with overlap
     ethr =  7.18E-10,  avg # of iterations =  3.0

     total cpu time spent up to now is       11.3 secs

     End of self-consistent calculation

          k = 0.0000 0.0000 0.0000 ( 22119 PWs)   bands (ev):

    -6.4344  -6.3415  -6.3339  -6.2500  -0.0607   0.4901

     the Fermi energy is    -6.2946 ev

!    total energy              =      -3.68117858 Ry
     Harris-Foulkes estimate   =      -3.68117861 Ry
     estimated scf accuracy    <          1.5E-09 Ry

     convergence has been achieved in   8 iterations

     Forces acting on atoms (Ry/au):

     atom    1 type  1   force =     0.00000066    0.00001048    0.00001042
     atom    2 type  1   force =     0.00227101    0.00011504    0.00016262
     atom    3 type  1   force =     0.00000967   -0.00003599    0.00072067
     atom    4 type  1   force =    -0.00228134   -0.00008953   -0.00089370

     Total force =     0.003425     Total SCF correction =     0.000005

     Entering Dynamics:    iteration =    12
                           time      =   0.0581 pico-seconds


     Andersen thermostat:    4 collisions

ATOMIC_POSITIONS (bohr)
H        0.091910844  -0.017976144   0.053211057
H        0.194404559   7.722174549   7.758213430
H        7.873038503   8.225719442  -0.143668347
H        7.840646094   8.070082153   8.332243860


     kinetic energy (Ekin) =     0.00363033 Ry
     temperature           =   127.37417160 K 
     Ekin + Etot (const)   =    -3.67754825 Ry
     Message from routine dynamics:
     Total linear momentum <> 0

     Linear momentum :    0.0084439927    0.0425243973    0.0114595268

     Writing output data file pwscf.save

     second order wave-functions extrapolation
     Check: negative starting charge=   -0.016965
     second order charge density extrapolation
     Check: negative starting charge=   -0.016882

     negative rho (up, down):  1.202E-02 0.000E+00

     total cpu time spent up to now is       11.5 secs

     per-process dynamical memory:    32.5 Mb

     Self-consistent Calculation

     iteration #  1     ecut=    30.00 Ry     beta=0.70
     Davidson diagonalization with overlap
     c_bands:  1 eigenvalues not converged
     ethr =  1.00E-06,  avg # of iterations = 20.0

     negative rho (up, down):  2.041E-03 0.000E+00

     total cpu time spent up to now is       11.6 secs

     total energy              =      -3.67906138 Ry
     Harris-Foulkes estimate   =      -3.66840024 Ry
     estimated scf accuracy    <       0.00036774 Ry

     iteration #  2     ecut=    30.00 Ry     beta=0.70
     Davidson diagonalization with overlap
     ethr =  9.19E-06,  avg # of iterations = 19.0

     negative rho (up, down):  1.976E-03 0.000E+00

     total cpu time spent up to now is       11.7 secs

     total energy              =      -3.67467041 Ry
     Harris-Foulkes estimate   =      -3.68479118 Ry
     estimated scf accuracy    <       0.28580443 Ry

     iteration #  3     ecut=    30.00 Ry     beta=0.70
     Davidson diagonalization with overlap
     ethr =  9.19E-06,  avg # of iterations =  2.0

     negative rho (up, down):  1.758E-03 0.000E+00

     total cpu time spent up to now is       11.8 secs

     total energy              =      -3.67979271 Ry
     Harris-Foulkes estimate   =      -3.67955394 Ry
     estimated scf accuracy    <       0.00047311 Ry

     iteration #  4     ecut=    30.00 Ry     beta=0.70
     Davidson diagonalization with overlap
     ethr =  9.19E-06,  avg # of iterations =  1.0

     negative rho (up, down):  2.332E-05 0.000E+00

     total cpu time spent up to now is       11.9 secs

     total energy              =      -3.68110682 Ry
     Harris-Foulkes estimate   =      -3.67987633 Ry
     estimated scf accuracy    <       0.00213862 Ry

     iteration #  5     ecut=    30.00 Ry     beta=0.70
     Davidson diagonalization with overlap
     ethr =  9.19E-06,  avg # of iterations =  7.0

     negative rho (up, down):  2.541E-06 0.000E+00

     total cpu time spent up to now is       12.0 secs

     total energy              =      -3.68115082 Ry
     Harris-Foulkes estimate   =      -3.68121384 Ry
     estimated scf accuracy    <       0.00174812 Ry

     iteration #  6     ecut=    30.00 Ry     beta=0.70
     Davidson diagonalization with overlap
     ethr =  9.19E-06,  avg # of iterations =  1.0

     negative rho (up, down):  1.135E-08 0.000E+00

     total cpu time spent up to now is       12.0 secs

     total energy              =      -3.68119775 Ry
     Harris-Foulkes estimate   =      -3.68118664 Ry
     estimated scf accuracy    <       0.00000316 Ry

     iteration #  7     ecut=    30.00 Ry     beta=0.70
     Davidson diagonalization with overlap
     ethr =  7.90E-08,  avg # of iterations =  1.0

     total cpu time spent up to now is       12.1 secs

     total energy              =      -3.68119853 Ry
     Harris-Foulkes estimate   =      -3.68119801 Ry
     estimated scf accuracy    <       0.00000013 Ry

     iteration #  8     ecut=    30.00 Ry     beta=0.70
     Davidson diagonalization with overlap
     ethr =  3.29E-09,  avg # of iterations =  2.0

     total cpu time spent up to now is       12.2 secs

     total energy              =      -3.68119857 Ry
     Harris-Foulkes estimate   =      -3.68119856 Ry
     estimated scf accuracy    <       0.00000002 Ry

     iteration #  9     ecut=    30.00 Ry     beta=0.70
     Davidson diagonalization with overlap
     ethr =  4.38E-10,  avg # of iterations =  1.0

     total cpu time spent up to now is       12.2 secs

     total energy              =      -3.68119859 Ry
     Harris-Foulkes estimate   =      -3.68119857 Ry
     estimated scf accuracy    <       0.00000001 Ry

     iteration # 10     ecut=    30.00 Ry     beta=0.70
     Davidson diagonalization with overlap
     ethr =  3.24E-10,  avg # of iterations =  1.0

     total cpu time spent up to now is       12.3 secs

     End of self-consistent calculation

          k = 0.0000 0.0000 0.0000 ( 22119 PWs)   bands (ev):

    -6.4347  -6.3416  -6.3344  -6.2495  -0.0596   0.4969

     the Fermi energy is    -6.2948 ev

!    total energy              =      -3.68119859 Ry
     Harris-Foulkes estimate   =      -3.68119859 Ry
     estimated scf accuracy    <          6.8E-11 Ry

     convergence has been achieved in  10 iterations

     Forces acting on atoms (Ry/au):

     atom    1 type  1   force =     0.00000191    0.00001666    0.00001157
     atom    2 type  1   force =     0.00234835    0.00012919    0.00018884
     atom    3 type  1   force =    -0.00000590   -0.00002568    0.00065515
     atom    4 type  1   force =    -0.00234437   -0.00012017   -0.00085555

     Total force =     0.003499     Total SCF correction =     0.000001

     Entering Dynamics:    iteration =    13
                           time      =   0.0629 pico-seconds


     Andersen thermostat:    4 collisions

ATOMIC_POSITIONS (bohr)
H        0.019935737  -0.081501485   0.052995453
H        0.247627123   7.704110985   7.818495943
H        7.912620026   8.253239257  -0.198569153
H        7.819817114   8.124151242   8.327077758


     kinetic energy (Ekin) =     0.00127553 Ry
     temperature           =    44.75319880 K 
     Ekin + Etot (const)   =    -3.67992307 Ry
     Message from routine dynamics:
     Total linear momentum <> 0

     Linear momentum :   -0.0440073905   -0.0172003734    0.0360716531

     Writing output data file pwscf.save

     second order wave-functions extrapolation
     Check: negative starting charge=   -0.016882
     second order charge density extrapolation
     Check: negative starting charge=   -0.016891

     negative rho (up, down):  6.348E-03 0.000E+00

     total cpu time spent up to now is       12.5 secs

     per-process dynamical memory:    32.5 Mb

     Self-consistent Calculation

     iteration #  1     ecut=    30.00 Ry     beta=0.70
     Davidson diagonalization with overlap
     c_bands:  1 eigenvalues not converged
     ethr =  1.00E-06,  avg # of iterations = 20.0

     negative rho (up, down):  1.062E-03 0.000E+00

     total cpu time spent up to now is       12.7 secs

     total energy              =      -3.68081352 Ry
     Harris-Foulkes estimate   =      -3.67498039 Ry
     estimated scf accuracy    <       0.00002550 Ry

     iteration #  2     ecut=    30.00 Ry     beta=0.70
     Davidson diagonalization with overlap
     ethr =  6.38E-07,  avg # of iterations =  9.0

     negative rho (up, down):  1.023E-03 0.000E+00

     total cpu time spent up to now is       12.8 secs

     total energy              =      -3.68086762 Ry
     Harris-Foulkes estimate   =      -3.68096212 Ry
     estimated scf accuracy    <       0.00338641 Ry

     iteration #  3     ecut=    30.00 Ry     beta=0.70
     Davidson diagonalization with overlap
     ethr =  6.38E-07,  avg # of iterations =  1.0

     negative rho (up, down):  4.169E-04 0.000E+00

     total cpu time spent up to now is       12.8 secs

     total energy              =      -3.68139675 Ry
     Harris-Foulkes estimate   =      -3.68094461 Ry
     estimated scf accuracy    <       0.00006982 Ry

     iteration #  4     ecut=    30.00 Ry     beta=0.70
     Davidson diagonalization with overlap
     ethr =  6.38E-07,  avg # of iterations =  7.0

     total cpu time spent up to now is       12.9 secs

     total energy              =      -3.68127854 Ry
     Harris-Foulkes estimate   =      -3.68147790 Ry
     estimated scf accuracy    <       0.00351177 Ry

     iteration #  5     ecut=    30.00 Ry     beta=0.70
     Davidson diagonalization with overlap
     ethr =  6.38E-07,  avg # of iterations = 13.0

     negative rho (up, down):  1.293E-08 0.000E+00

     total cpu time spent up to now is       13.0 secs

     total energy              =      -3.68134862 Ry
     Harris-Foulkes estimate   =      -3.68135009 Ry
     estimated scf accuracy    <       0.00004082 Ry

     iteration #  6     ecut=    30.00 Ry     beta=0.70
     Davidson diagonalization with overlap
     ethr =  6.38E-07,  avg # of iterations =  1.0

     total cpu time spent up to now is       13.1 secs

     total energy              =      -3.68135033 Ry
     Harris-Foulkes estimate   =      -3.68134964 Ry
     estimated scf accuracy    <       0.00000078 Ry

     iteration #  7     ecut=    30.00 Ry     beta=0.70
     Davidson diagonalization with overlap
     ethr =  1.94E-08,  avg # of iterations =  1.0

     total cpu time spent up to now is       13.1 secs

     total energy              =      -3.68135139 Ry
     Harris-Foulkes estimate   =      -3.68135035 Ry
     estimated scf accuracy    <       0.00000002 Ry

     iteration #  8     ecut=    30.00 Ry     beta=0.70
     Davidson diagonalization with overlap
     ethr =  6.22E-10,  avg # of iterations =  2.0

     total cpu time spent up to now is       13.2 secs

     End of self-consistent calculation

          k = 0.0000 0.0000 0.0000 ( 22119 PWs)   bands (ev):

    -6.4375  -6.3421  -6.3354  -6.2465  -0.0605   0.4866

     the Fermi energy is    -6.2952 ev

!    total energy              =      -3.68135144 Ry
     Harris-Foulkes estimate   =      -3.68135139 Ry
     estimated scf accuracy    <          2.1E-09 Ry

     convergence has been achieved in   8 iterations

     Forces acting on atoms (Ry/au):

     atom    1 type  1   force =    -0.00000002    0.00001358    0.00001025
     atom    2 type  1   force =     0.00261411    0.00017539    0.00020164
     atom    3 type  1   force =    -0.00001069   -0.00002035    0.00060737
     atom    4 type  1   force =    -0.00260339   -0.00016862   -0.00081925

     Total force =     0.003841     Total SCF correction =     0.000004

     Entering Dynamics:    iteration =    14
                           time      =   0.0677 pico-seconds


     Andersen thermostat:    4 collisions

ATOMIC_POSITIONS (bohr)
H        0.070046162   0.021820083  -0.039541963
H        0.332214937   7.646340147   7.929804552
H        7.818148044   8.258023626  -0.167855656
H        7.779590857   8.073816144   8.277593068


     kinetic energy (Ekin) =     0.00291602 Ry
     temperature           =   102.31172118 K 
     Ekin + Etot (const)   =    -3.67843542 Ry
     Message from routine dynamics:
     Total linear momentum <> 0

     Linear momentum :   -0.0315367365    0.0630810991    0.0171938911

     Writing output data file pwscf.save

     second order wave-functions extrapolation
     Check: negative starting charge=   -0.016891
     second order charge density extrapolation
     Check: negative starting charge=   -0.016911

     negative rho (up, down):  9.449E-03 0.000E+00

     total cpu time spent up to now is       13.4 secs

     per-process dynamical memory:    32.5 Mb

     Self-consistent Calculation

     iteration #  1     ecut=    30.00 Ry     beta=0.70
     Davidson diagonalization with overlap
     ethr =  1.00E-06,  avg # of iterations = 20.0

     negative rho (up, down):  1.569E-03 0.000E+00

     total cpu time spent up to now is       13.6 secs

     total energy              =      -3.68037558 Ry
     Harris-Foulkes estimate   =      -3.67178528 Ry
     estimated scf accuracy    <       0.00025809 Ry

     iteration #  2     ecut=    30.00 Ry     beta=0.70
     Davidson diagonalization with overlap
     ethr =  6.45E-06,  avg # of iterations =  7.0

     negative rho (up, down):  1.515E-03 0.000E+00

     total cpu time spent up to now is       13.6 secs

[...]

     iteration # 58     ecut=    30.00 Ry     beta=0.70
     Davidson diagonalization with overlap
     ethr =  1.00E-02,  avg # of iterations =  6.0

     negative rho (up, down):  9.900E-02 0.000E+00

     total cpu time spent up to now is       58.1 secs

     total energy              =       8.70453609 Ry
     Harris-Foulkes estimate   =     -12.24994805 Ry
     estimated scf accuracy    <      13.93220090 Ry

     iteration # 59     ecut=    30.00 Ry     beta=0.70
     Davidson diagonalization with overlap
     ethr =  1.00E-02,  avg # of iterations =  6.0

     negative rho (up, down):  7.806E-02 0.000E+00

     total cpu time spent up to now is       58.2 secs

     total energy              =     380.14457058 Ry
     Harris-Foulkes estimate   =     -44.64577933 Ry
     estimated scf accuracy    <      16.93092061 Ry

     iteration # 60     ecut=    30.00 Ry     beta=0.70
     Davidson diagonalization with overlap
     ethr =  1.00E-02,  avg # of iterations =  9.0

     negative rho (up, down):  2.813E-02 0.000E+00

     total cpu time spent up to now is       58.3 secs

     total energy              =      50.42664786 Ry
     Harris-Foulkes estimate   =     -78.53444393 Ry
     estimated scf accuracy    <      19.83714319 Ry

     iteration # 61     ecut=    30.00 Ry     beta=0.70
     Davidson diagonalization with overlap
     ethr =  1.00E-02,  avg # of iterations =  6.0

     negative rho (up, down):  7.073E-02 0.000E+00

     total cpu time spent up to now is       58.4 secs

     total energy              =      -8.13234839 Ry
     Harris-Foulkes estimate   =    -545.14355342 Ry
     estimated scf accuracy    <       7.29996714 Ry

     iteration # 62     ecut=    30.00 Ry     beta=0.70
     Davidson diagonalization with overlap
     ethr =  1.00E-02,  avg # of iterations =  5.0

     negative rho (up, down):  7.425E-02 0.000E+00

     total cpu time spent up to now is       58.5 secs

     total energy              =      39.19901135 Ry
     Harris-Foulkes estimate   =    -120.04125957 Ry
     estimated scf accuracy    <      16.91850561 Ry

     iteration # 63     ecut=    30.00 Ry     beta=0.70
     Davidson diagonalization with overlap
     ethr =  1.00E-02,  avg # of iterations =  8.0

     negative rho (up, down):  4.164E-02 0.000E+00

     total cpu time spent up to now is       58.6 secs

     total energy              =      -3.46096704 Ry
     Harris-Foulkes estimate   =     -61.61728973 Ry
     estimated scf accuracy    <      15.31234566 Ry

     iteration # 64     ecut=    30.00 Ry     beta=0.70
     Davidson diagonalization with overlap
     ethr =  1.00E-02,  avg # of iterations =  6.0

     negative rho (up, down):  3.863E-01 0.000E+00

     total cpu time spent up to now is       58.7 secs

     total energy              =      24.59752269 Ry
     Harris-Foulkes estimate   =    -255.81888226 Ry
     estimated scf accuracy    <      14.60239667 Ry

     iteration # 65     ecut=    30.00 Ry     beta=0.70
     Davidson diagonalization with overlap
     ethr =  1.00E-02,  avg # of iterations =  7.0

     negative rho (up, down):  7.333E-01 0.000E+00

     total cpu time spent up to now is       58.8 secs

     total energy              =      43.45805024 Ry
     Harris-Foulkes estimate   =    -857.26505601 Ry
     estimated scf accuracy    <      10.83380871 Ry

     iteration # 66     ecut=    30.00 Ry     beta=0.70
     Davidson diagonalization with overlap
     ethr =  1.00E-02,  avg # of iterations =  7.0

     negative rho (up, down):  6.206E-01 0.000E+00

     total cpu time spent up to now is       58.9 secs

     total energy              =     -51.35396054 Ry
     Harris-Foulkes estimate   =    -723.60799471 Ry
     estimated scf accuracy    <      10.90218245 Ry

     iteration # 67     ecut=    30.00 Ry     beta=0.70
     Davidson diagonalization with overlap
     ethr =  1.00E-02,  avg # of iterations =  7.0

     negative rho (up, down):  7.537E-01 0.000E+00

     total cpu time spent up to now is       59.0 secs

     total energy              =    -198.20875784 Ry
     Harris-Foulkes estimate   =   -6228.85296660 Ry
     estimated scf accuracy    <      10.93853826 Ry

     iteration # 68     ecut=    30.00 Ry     beta=0.70
     Davidson diagonalization with overlap
     ethr =  1.00E-02,  avg # of iterations =  7.0

     negative rho (up, down):  7.869E-01 0.000E+00

     total cpu time spent up to now is       59.1 secs

     total energy              =   -1605.09899981 Ry
     Harris-Foulkes estimate   =    -702.56057618 Ry
     estimated scf accuracy    <      11.09157093 Ry

     iteration # 69     ecut=    30.00 Ry     beta=0.70
     Davidson diagonalization with overlap
     ethr =  1.00E-02,  avg # of iterations =  8.0

     negative rho (up, down):  7.360E-01 0.000E+00

     total cpu time spent up to now is       59.3 secs

     total energy              =     -35.96720818 Ry
     Harris-Foulkes estimate   =   -8096.68867557 Ry
     estimated scf accuracy    <      13.38717728 Ry

     iteration # 70     ecut=    30.00 Ry     beta=0.70
     Davidson diagonalization with overlap
     ethr =  1.00E-02,  avg # of iterations =  7.0

     negative rho (up, down):  4.417E-01 0.000E+00

     total cpu time spent up to now is       59.4 secs

     total energy              =       7.83861181 Ry
     Harris-Foulkes estimate   =   -1423.86041104 Ry
     estimated scf accuracy    <      11.73019634 Ry

     iteration # 71     ecut=    30.00 Ry     beta=0.70
     Davidson diagonalization with overlap
     ethr =  1.00E-02,  avg # of iterations = 10.0

     negative rho (up, down):  3.396E-01 0.000E+00

     total cpu time spent up to now is       59.5 secs

     total energy              =      29.71796271 Ry
     Harris-Foulkes estimate   =   -3131.32628034 Ry
     estimated scf accuracy    <       9.02028976 Ry

     iteration # 72     ecut=    30.00 Ry     beta=0.70
     Davidson diagonalization with overlap
     ethr =  1.00E-02,  avg # of iterations =  5.0

     negative rho (up, down):  7.755E-02 0.000E+00

     total cpu time spent up to now is       59.6 secs

     total energy              =      67.58614854 Ry
     Harris-Foulkes estimate   =    -581.24596399 Ry
     estimated scf accuracy    <       8.57082571 Ry

     iteration # 73     ecut=    30.00 Ry     beta=0.70
     Davidson diagonalization with overlap
     ethr =  1.00E-02,  avg # of iterations = 14.0

     negative rho (up, down):  5.873E-02 0.000E+00

     total cpu time spent up to now is       59.7 secs

     total energy              =    -137.18978570 Ry
     Harris-Foulkes estimate   =    -337.71713817 Ry
     estimated scf accuracy    <       7.14207632 Ry

     iteration # 74     ecut=    30.00 Ry     beta=0.70
     Davidson diagonalization with overlap
     ethr =  1.00E-02,  avg # of iterations = 12.0

     negative rho (up, down):  9.227E-02 0.000E+00

     total cpu time spent up to now is       59.8 secs

     total energy              =      45.57832283 Ry
     Harris-Foulkes estimate   =   -1666.75580535 Ry
     estimated scf accuracy    <       7.07035679 Ry

     iteration # 75     ecut=    30.00 Ry     beta=0.70
     Davidson diagonalization with overlap
     ethr =  1.00E-02,  avg # of iterations =  9.0

     negative rho (up, down):  8.538E-02 0.000E+00

     total cpu time spent up to now is       60.0 secs

     total energy              =    -324.20263480 Ry
     Harris-Foulkes estimate   =    -323.73256152 Ry
     estimated scf accuracy    <      15.14138963 Ry

     iteration # 76     ecut=    30.00 Ry     beta=0.70
     Davidson diagonalization with overlap
     ethr =  1.00E-02,  avg # of iterations =  6.0

     negative rho (up, down):  1.690E-02 0.000E+00

     total cpu time spent up to now is       60.0 secs

     total energy              =      30.51452433 Ry
     Harris-Foulkes estimate   =    -513.61325975 Ry
     estimated scf accuracy    <       9.79217381 Ry

     iteration # 77     ecut=    30.00 Ry     beta=0.70
     Davidson diagonalization with overlap
     ethr =  1.00E-02,  avg # of iterations =  6.0

     negative rho (up, down):  5.821E-03 0.000E+00

     total cpu time spent up to now is       60.2 secs

     total energy              =      65.39104125 Ry
     Harris-Foulkes estimate   =     -98.98658612 Ry
     estimated scf accuracy    <       7.28478332 Ry

     iteration # 78     ecut=    30.00 Ry     beta=0.70
     Davidson diagonalization with overlap
     ethr =  1.00E-02,  avg # of iterations =  9.0

     negative rho (up, down):  2.493E-02 0.000E+00

     total cpu time spent up to now is       60.3 secs

     total energy              =      16.29080784 Ry
     Harris-Foulkes estimate   =     -29.29976434 Ry
     estimated scf accuracy    <      10.14018523 Ry

     iteration # 79     ecut=    30.00 Ry     beta=0.70
     Davidson diagonalization with overlap
     ethr =  1.00E-02,  avg # of iterations =  4.0

     negative rho (up, down):  1.555E-02 0.000E+00

     total cpu time spent up to now is       60.3 secs

     total energy              =     -11.48667012 Ry
     Harris-Foulkes estimate   =     -11.15989808 Ry
     estimated scf accuracy    <      11.97768545 Ry

     iteration # 80     ecut=    30.00 Ry     beta=0.70
     Davidson diagonalization with overlap
     ethr =  1.00E-02,  avg # of iterations =  1.0

     negative rho (up, down):  2.778E-05 0.000E+00

     total cpu time spent up to now is       60.4 secs

     total energy              =     -11.31461421 Ry
     Harris-Foulkes estimate   =     -11.48918629 Ry
     estimated scf accuracy    <      11.61901754 Ry

     iteration # 81     ecut=    30.00 Ry     beta=0.70
     Davidson diagonalization with overlap
     ethr =  1.00E-02,  avg # of iterations =  1.0

     negative rho (up, down):  4.346E-02 0.000E+00

     total cpu time spent up to now is       60.5 secs

     total energy              =     -11.04728406 Ry
     Harris-Foulkes estimate   =     -11.48332033 Ry
     estimated scf accuracy    <      11.88645564 Ry

     iteration # 82     ecut=    30.00 Ry     beta=0.70
     Davidson diagonalization with overlap
     ethr =  1.00E-02,  avg # of iterations =  1.0

     negative rho (up, down):  1.367E-01 0.000E+00

     total cpu time spent up to now is       60.6 secs

     total energy              =     -11.17726003 Ry
     Harris-Foulkes estimate   =     -11.17280398 Ry
     estimated scf accuracy    <      11.32212049 Ry

     iteration # 83     ecut=    30.00 Ry     beta=0.70
     Davidson diagonalization with overlap
     ethr =  1.00E-02,  avg # of iterations = 11.0

     negative rho (up, down):  1.821E-01 0.000E+00

     total cpu time spent up to now is       60.8 secs

     total energy              =    -190.09350734 Ry
     Harris-Foulkes estimate   =   -1335.21420367 Ry
     estimated scf accuracy    <      14.02981235 Ry

     iteration # 84     ecut=    30.00 Ry     beta=0.70
     Davidson diagonalization with overlap
     ethr =  1.00E-02,  avg # of iterations =  6.0

     negative rho (up, down):  1.289E-01 0.000E+00

     total cpu time spent up to now is       60.9 secs

     total energy              =      59.01230660 Ry
     Harris-Foulkes estimate   =    -428.57112275 Ry
     estimated scf accuracy    <      13.03941632 Ry

     iteration # 85     ecut=    30.00 Ry     beta=0.70
     Davidson diagonalization with overlap
     ethr =  1.00E-02,  avg # of iterations =  5.0

     negative rho (up, down):  3.600E-02 0.000E+00

     total cpu time spent up to now is       61.0 secs

     total energy              =      73.86446473 Ry
     Harris-Foulkes estimate   =    -825.69137168 Ry
     estimated scf accuracy    <      13.91830022 Ry

     iteration # 86     ecut=    30.00 Ry     beta=0.70
     Davidson diagonalization with overlap
     ethr =  1.00E-02,  avg # of iterations =  7.0

     negative rho (up, down):  9.144E-02 0.000E+00

     total cpu time spent up to now is       61.1 secs

     total energy              =    -163.12890863 Ry
     Harris-Foulkes estimate   =     -19.84420841 Ry
     estimated scf accuracy    <       9.48088413 Ry

     iteration # 87     ecut=    30.00 Ry     beta=0.70
     Davidson diagonalization with overlap
     ethr =  1.00E-02,  avg # of iterations =  8.0

     negative rho (up, down):  1.639E-08 0.000E+00

     total cpu time spent up to now is       61.2 secs

     total energy              =      74.98964069 Ry
     Harris-Foulkes estimate   =   -1788.19462432 Ry
     estimated scf accuracy    <      12.31149106 Ry

     iteration # 88     ecut=    30.00 Ry     beta=0.70
     Davidson diagonalization with overlap
     ethr =  1.00E-02,  avg # of iterations =  8.0

     negative rho (up, down):  8.968E-02 0.000E+00

     total cpu time spent up to now is       61.3 secs

     total energy              =      -6.96938071 Ry
     Harris-Foulkes estimate   =      -7.80414902 Ry
     estimated scf accuracy    <       7.56808648 Ry

     iteration # 89     ecut=    30.00 Ry     beta=0.70
     Davidson diagonalization with overlap
     ethr =  1.00E-02,  avg # of iterations =  1.0

     negative rho (up, down):  1.352E-01 0.000E+00

     total cpu time spent up to now is       61.4 secs

     total energy              =      -5.27678309 Ry
     Harris-Foulkes estimate   =      -6.97392087 Ry
     estimated scf accuracy    <       6.17978355 Ry

     iteration # 90     ecut=    30.00 Ry     beta=0.70
     Davidson diagonalization with overlap
     ethr =  1.00E-02,  avg # of iterations =  8.0

     negative rho (up, down):  9.027E-02 0.000E+00

     total cpu time spent up to now is       61.5 secs

     total energy              =      37.44112218 Ry
     Harris-Foulkes estimate   =     -67.48011716 Ry
     estimated scf accuracy    <      14.47620398 Ry

     iteration # 91     ecut=    30.00 Ry     beta=0.70
     Davidson diagonalization with overlap
     ethr =  1.00E-02,  avg # of iterations =  6.0

     negative rho (up, down):  3.519E-02 0.000E+00

     total cpu time spent up to now is       61.6 secs

     total energy              =      31.84542698 Ry
     Harris-Foulkes estimate   =     -25.08331141 Ry
     estimated scf accuracy    <      11.10429462 Ry

     iteration # 92     ecut=    30.00 Ry     beta=0.70
     Davidson diagonalization with overlap
     ethr =  1.00E-02,  avg # of iterations = 10.0

     negative rho (up, down):  2.157E-05 0.000E+00

     total cpu time spent up to now is       61.8 secs

     total energy              =      13.95310161 Ry
     Harris-Foulkes estimate   =     -18.14765066 Ry
     estimated scf accuracy    <       7.24812995 Ry

     iteration # 93     ecut=    30.00 Ry     beta=0.70
     Davidson diagonalization with overlap
     ethr =  1.00E-02,  avg # of iterations =  4.0

     negative rho (up, down):  2.700E-02 0.000E+00

     total cpu time spent up to now is       61.8 secs

     total energy              =      -6.00722240 Ry
     Harris-Foulkes estimate   =      -6.63022748 Ry
     estimated scf accuracy    <       5.61900006 Ry

     iteration # 94     ecut=    30.00 Ry     beta=0.70
     Davidson diagonalization with overlap
     ethr =  1.00E-02,  avg # of iterations =  5.0

     negative rho (up, down):  2.347E-02 0.000E+00

     total cpu time spent up to now is       62.0 secs

     total energy              =      25.03084776 Ry
     Harris-Foulkes estimate   =     -92.40249650 Ry
     estimated scf accuracy    <       5.32884080 Ry

     iteration # 95     ecut=    30.00 Ry     beta=0.70
     Davidson diagonalization with overlap
     ethr =  1.00E-02,  avg # of iterations =  7.0

     negative rho (up, down):  2.296E-02 0.000E+00

     total cpu time spent up to now is       62.1 secs

     total energy              =      34.33055253 Ry
     Harris-Foulkes estimate   =     -26.71882331 Ry
     estimated scf accuracy    <      14.57699492 Ry

     iteration # 96     ecut=    30.00 Ry     beta=0.70
     Davidson diagonalization with overlap
     ethr =  1.00E-02,  avg # of iterations =  5.0

     total cpu time spent up to now is       62.2 secs

     total energy              =      65.37184726 Ry
     Harris-Foulkes estimate   =    -209.11370200 Ry
     estimated scf accuracy    <      16.21126001 Ry

     iteration # 97     ecut=    30.00 Ry     beta=0.70
     Davidson diagonalization with overlap
     ethr =  1.00E-02,  avg # of iterations =  7.0

     negative rho (up, down):  6.289E-04 0.000E+00

     total cpu time spent up to now is       62.3 secs

     total energy              =      -5.44857955 Ry
     Harris-Foulkes estimate   =      -6.30616938 Ry
     estimated scf accuracy    <       4.49355341 Ry

     iteration # 98     ecut=    30.00 Ry     beta=0.70
     Davidson diagonalization with overlap
     ethr =  1.00E-02,  avg # of iterations =  1.0

     negative rho (up, down):  1.816E-02 0.000E+00

     total cpu time spent up to now is       62.3 secs

     total energy              =      -5.62676518 Ry
     Harris-Foulkes estimate   =      -5.96863038 Ry
     estimated scf accuracy    <       5.06491809 Ry

     iteration # 99     ecut=    30.00 Ry     beta=0.70
     Davidson diagonalization with overlap
     ethr =  1.00E-02,  avg # of iterations =  7.0

     negative rho (up, down):  9.585E-03 0.000E+00

     total cpu time spent up to now is       62.4 secs

     total energy              =      37.09413540 Ry
     Harris-Foulkes estimate   =     -65.16985978 Ry
     estimated scf accuracy    <      14.27209827 Ry

     iteration #100     ecut=    30.00 Ry     beta=0.70
     Davidson diagonalization with overlap
     ethr =  1.00E-02,  avg # of iterations =  5.0

     total cpu time spent up to now is       62.6 secs

     total energy              =      21.93781530 Ry
     Harris-Foulkes estimate   =     -22.24453473 Ry
     estimated scf accuracy    <       6.59569023 Ry

     End of self-consistent calculation

     convergence NOT achieved after 100 iterations: stopping

     Writing output data file pwscf.save
 
     init_run     :      0.09s CPU      0.11s WALL (       1 calls)
     electrons    :     41.83s CPU     51.75s WALL (      46 calls)
     update_pot   :      5.59s CPU      7.48s WALL (      45 calls)
     forces       :      1.17s CPU      1.28s WALL (      45 calls)

     Called by init_run:
     wfcinit      :      0.01s CPU      0.02s WALL (       1 calls)
     potinit      :      0.03s CPU      0.03s WALL (       1 calls)

     Called by electrons:
     c_bands      :     17.45s CPU     18.48s WALL (     608 calls)
     sum_band     :      3.42s CPU      3.58s WALL (     608 calls)
     v_of_rho     :     13.28s CPU     13.54s WALL (     653 calls)
     mix_rho      :      6.80s CPU     12.53s WALL (     608 calls)

     Called by c_bands:
     cegterg      :     17.32s CPU     17.81s WALL (     608 calls)

     Called by sum_band:

     Called by *egterg:
     h_psi        :     14.90s CPU     15.21s WALL (    3689 calls)
     g_psi        :      0.18s CPU      0.18s WALL (    3080 calls)
     cdiaghg      :      0.48s CPU      0.51s WALL (    3642 calls)

     Called by h_psi:
     h_psi:pot    :     14.77s CPU     15.07s WALL (    3689 calls)
     vloc_psi     :     14.76s CPU     15.06s WALL (    3689 calls)

     General routines
     calbec       :      0.11s CPU      0.15s WALL (      44 calls)
     fft          :      8.33s CPU      8.67s WALL (    7275 calls)
     fftw         :     14.92s CPU     15.29s WALL (   29448 calls)
     davcio       :      1.01s CPU      4.65s WALL (    8099 calls)
 
     Parallel routines
     fft_scatter  :      7.77s CPU      8.25s WALL (   36723 calls)
 
     PWSCF        :  0m49.78s CPU     1m 2.70s WALL

 
   This run was terminated on:  21:38:47  23Jan2018            

=------------------------------------------------------------------------------=
   JOB DONE.
=------------------------------------------------------------------------------=
