
     Program PWSCF v.6.0 (svn rev. 13079) starts on 10Feb2018 at 23:40:35 

     This program is part of the open-source Quantum ESPRESSO suite
     for quantum simulation of materials; please cite
         "P. Giannozzi et al., J. Phys.:Condens. Matter 21 395502 (2009);
          URL http://www.quantum-espresso.org", 
     in publications or presentations arising from this work. More details at
     http://www.quantum-espresso.org/quote

     Parallel version (MPI), running on    28 processors
     R & G space division:  proc/nbgrp/npool/nimage =      28
     Reading input from inputs/water-1-md/12.in

     Current dimensions of program PWSCF are:
     Max number of different atomic species (ntypx) = 10
     Max number of k-points (npk) =  40000
     Max angular momentum in pseudopotentials (lmaxx) =  3

     Subspace diagonalization in iterative solution of the eigenvalue problem:
     a serial algorithm will be used

 
     Parallelization info
     --------------------
     sticks:   dense  smooth     PW     G-vecs:    dense   smooth      PW
     Min         136     136     33                 6338     6338     787
     Max         137     137     34                 6341     6341     792
     Sum        3809    3809    949               177509   177509   22119
 


     bravais-lattice index     =            1
     lattice parameter (alat)  =      20.0000  a.u.
     unit-cell volume          =    8000.0000 (a.u.)^3
     number of atoms/cell      =            3
     number of atomic types    =            2
     number of electrons       =         8.00
     number of Kohn-Sham states=            8
     kinetic-energy cutoff     =      30.0000  Ry
     charge density cutoff     =     120.0000  Ry
     convergence threshold     =      1.0E-08
     mixing beta               =       0.7000
     number of iterations used =            8  plain     mixing
     Exchange-correlation      = BLYP ( 1  3  1  3 0 0)
     nstep                     =         5000


     celldm(1)=  20.000000  celldm(2)=   0.000000  celldm(3)=   0.000000
     celldm(4)=   0.000000  celldm(5)=   0.000000  celldm(6)=   0.000000

     crystal axes: (cart. coord. in units of alat)
               a(1) = (   1.000000   0.000000   0.000000 )  
               a(2) = (   0.000000   1.000000   0.000000 )  
               a(3) = (   0.000000   0.000000   1.000000 )  

     reciprocal axes: (cart. coord. in units 2 pi/alat)
               b(1) = (  1.000000  0.000000  0.000000 )  
               b(2) = (  0.000000  1.000000  0.000000 )  
               b(3) = (  0.000000  0.000000  1.000000 )  


     PseudoPot. # 1 for  H read from file:
     ./H.blyp-hgh.UPF
     MD5 check sum: c576e69559cde411e611be972c763230
     Pseudo is Norm-conserving, Zval =  1.0
     Generated in analytical, separable form
     Using radial grid of  929 points,  0 beta functions with: 

     PseudoPot. # 2 for  O read from file:
     ./O.blyp-hgh.UPF
     MD5 check sum: d0b7156309aa9befef28faac7bc56342
     Pseudo is Norm-conserving, Zval =  6.0
     Generated in analytical, separable form
     Using radial grid of 1095 points,  1 beta functions with: 
                l(1) =   0

     atomic species   valence    mass     pseudopotential
        H              1.00     1.01000      H( 1.00)
        O              6.00    16.00000      O( 1.00)

     No symmetry found



   Cartesian axes

     site n.     atom                  positions (alat units)
         1           H   tau(   1) = (   0.5319409   0.0426168   0.5642571  )
         2           H   tau(   2) = (   0.2300835   0.2899244   0.4284751  )
         3           O   tau(   3) = (   0.2956650   0.3300817   0.2893478  )

     number of k points=     1  Marzari-Vanderbilt smearing, width (Ry)=  0.0250
                       cart. coord. in units 2pi/alat
        k(    1) = (   0.0000000   0.0000000   0.0000000), wk =   2.0000000

     Dense  grid:   177509 G-vectors     FFT dimensions: (  72,  72,  72)

     Estimated max dynamical RAM per process >       6.09Mb

     Estimated total allocated dynamical RAM >     170.64Mb

     Initial potential from superposition of free atoms
     Check: negative starting charge=   -0.343466

     starting charge    7.99998, renormalised to    8.00000

     negative rho (up, down):  3.435E-01 0.000E+00
     Starting wfc are    6 randomized atomic wfcs +    2 random wfc

     total cpu time spent up to now is        0.2 secs

     per-process dynamical memory:    18.8 Mb

     Self-consistent Calculation

     iteration #  1     ecut=    30.00 Ry     beta=0.70
     Davidson diagonalization with overlap
     ethr =  1.00E-02,  avg # of iterations =  7.0

     negative rho (up, down):  8.746E-02 0.000E+00

     total cpu time spent up to now is        0.3 secs

     total energy              =     -30.09760840 Ry
     Harris-Foulkes estimate   =     -32.19763593 Ry
     estimated scf accuracy    <       2.39847927 Ry

     iteration #  2     ecut=    30.00 Ry     beta=0.70
     Davidson diagonalization with overlap
     ethr =  1.00E-02,  avg # of iterations =  3.0

     negative rho (up, down):  6.515E-02 0.000E+00

     total cpu time spent up to now is        0.3 secs

     total energy              =     -31.89640329 Ry
     Harris-Foulkes estimate   =     -34.84234036 Ry
     estimated scf accuracy    <       7.60695019 Ry

     iteration #  3     ecut=    30.00 Ry     beta=0.70
     Davidson diagonalization with overlap
     ethr =  1.00E-02,  avg # of iterations =  2.0

     negative rho (up, down):  6.254E-02 0.000E+00

     total cpu time spent up to now is        0.3 secs

     total energy              =     -32.15902612 Ry
     Harris-Foulkes estimate   =     -32.24897151 Ry
     estimated scf accuracy    <       1.97842699 Ry

     iteration #  4     ecut=    30.00 Ry     beta=0.70
     Davidson diagonalization with overlap
     ethr =  1.00E-02,  avg # of iterations =  1.0

     negative rho (up, down):  3.632E-02 0.000E+00

     total cpu time spent up to now is        0.4 secs

     total energy              =     -31.59280597 Ry
     Harris-Foulkes estimate   =     -32.16774690 Ry
     estimated scf accuracy    <       1.81005543 Ry

     iteration #  5     ecut=    30.00 Ry     beta=0.70
     Davidson diagonalization with overlap
     ethr =  1.00E-02,  avg # of iterations =  2.0

     negative rho (up, down):  6.006E-03 0.000E+00

     total cpu time spent up to now is        0.4 secs

     total energy              =     -32.22307855 Ry
     Harris-Foulkes estimate   =     -31.89539035 Ry
     estimated scf accuracy    <       1.39971116 Ry

     iteration #  6     ecut=    30.00 Ry     beta=0.70
     Davidson diagonalization with overlap
     ethr =  1.00E-02,  avg # of iterations =  1.0

     negative rho (up, down):  5.534E-03 0.000E+00

     total cpu time spent up to now is        0.4 secs

     total energy              =     -32.21925761 Ry
     Harris-Foulkes estimate   =     -32.26054419 Ry
     estimated scf accuracy    <       2.17329700 Ry

     iteration #  7     ecut=    30.00 Ry     beta=0.70
     Davidson diagonalization with overlap
     ethr =  1.00E-02,  avg # of iterations =  1.0

     negative rho (up, down):  2.298E-03 0.000E+00

     total cpu time spent up to now is        0.5 secs

     total energy              =     -32.09782748 Ry
     Harris-Foulkes estimate   =     -32.21981450 Ry
     estimated scf accuracy    <       2.09739275 Ry

     iteration #  8     ecut=    30.00 Ry     beta=0.70
     Davidson diagonalization with overlap
     ethr =  1.00E-02,  avg # of iterations =  1.0

     negative rho (up, down):  1.507E-03 0.000E+00

     total cpu time spent up to now is        0.5 secs

     total energy              =     -31.79222682 Ry
     Harris-Foulkes estimate   =     -32.09886331 Ry
     estimated scf accuracy    <       1.87551542 Ry

     iteration #  9     ecut=    30.00 Ry     beta=0.70
     Davidson diagonalization with overlap
     ethr =  1.00E-02,  avg # of iterations =  1.0

     negative rho (up, down):  1.312E-03 0.000E+00

     total cpu time spent up to now is        0.5 secs

     total energy              =     -31.83685496 Ry
     Harris-Foulkes estimate   =     -31.80111024 Ry
     estimated scf accuracy    <       1.53392832 Ry

     iteration # 10     ecut=    30.00 Ry     beta=0.70
     Davidson diagonalization with overlap
     ethr =  1.00E-02,  avg # of iterations =  1.0

     negative rho (up, down):  6.041E-03 0.000E+00

     total cpu time spent up to now is        0.5 secs

     total energy              =     -31.67684360 Ry
     Harris-Foulkes estimate   =     -31.83486911 Ry
     estimated scf accuracy    <       1.31858549 Ry

     iteration # 11     ecut=    30.00 Ry     beta=0.70
     Davidson diagonalization with overlap
     ethr =  1.00E-02,  avg # of iterations =  1.0

     negative rho (up, down):  1.836E-03 0.000E+00

     total cpu time spent up to now is        0.6 secs

     total energy              =     -31.72814985 Ry
     Harris-Foulkes estimate   =     -31.79749835 Ry
     estimated scf accuracy    <       0.95831389 Ry

     iteration # 12     ecut=    30.00 Ry     beta=0.70
     Davidson diagonalization with overlap
     ethr =  1.00E-02,  avg # of iterations =  1.0

     negative rho (up, down):  1.699E-03 0.000E+00

     total cpu time spent up to now is        0.6 secs

     total energy              =     -31.67265401 Ry
     Harris-Foulkes estimate   =     -31.76113387 Ry
     estimated scf accuracy    <       0.32661417 Ry

     iteration # 13     ecut=    30.00 Ry     beta=0.70
     Davidson diagonalization with overlap
     ethr =  4.08E-03,  avg # of iterations =  1.0

     negative rho (up, down):  6.168E-04 0.000E+00

     total cpu time spent up to now is        0.6 secs

     total energy              =     -31.90769986 Ry
     Harris-Foulkes estimate   =     -31.90264906 Ry
     estimated scf accuracy    <       1.14633104 Ry

     iteration # 14     ecut=    30.00 Ry     beta=0.70
     Davidson diagonalization with overlap
     ethr =  4.08E-03,  avg # of iterations =  1.0

     negative rho (up, down):  9.501E-07 0.000E+00

     total cpu time spent up to now is        0.7 secs

     total energy              =     -31.87914052 Ry
     Harris-Foulkes estimate   =     -31.90775839 Ry
     estimated scf accuracy    <       1.15271312 Ry

     iteration # 15     ecut=    30.00 Ry     beta=0.70
     Davidson diagonalization with overlap
     ethr =  4.08E-03,  avg # of iterations =  1.0

     negative rho (up, down):  2.117E-07 0.000E+00

     total cpu time spent up to now is        0.7 secs

     total energy              =     -31.89821165 Ry
     Harris-Foulkes estimate   =     -31.87929673 Ry
     estimated scf accuracy    <       1.09868103 Ry

     iteration # 16     ecut=    30.00 Ry     beta=0.70
     Davidson diagonalization with overlap
     ethr =  4.08E-03,  avg # of iterations =  1.0

     negative rho (up, down):  1.171E-05 0.000E+00

     total cpu time spent up to now is        0.7 secs

     total energy              =     -31.92617921 Ry
     Harris-Foulkes estimate   =     -31.89825278 Ry
     estimated scf accuracy    <       1.13112726 Ry

     iteration # 17     ecut=    30.00 Ry     beta=0.70
     Davidson diagonalization with overlap
     ethr =  4.08E-03,  avg # of iterations =  1.0

     negative rho (up, down):  5.187E-05 0.000E+00

     total cpu time spent up to now is        0.8 secs

     total energy              =     -31.89879822 Ry
     Harris-Foulkes estimate   =     -31.92620893 Ry
     estimated scf accuracy    <       1.17354742 Ry

     iteration # 18     ecut=    30.00 Ry     beta=0.70
     Davidson diagonalization with overlap
     ethr =  4.08E-03,  avg # of iterations =  1.0

     negative rho (up, down):  3.998E-04 0.000E+00

     total cpu time spent up to now is        0.8 secs

     total energy              =     -31.92100173 Ry
     Harris-Foulkes estimate   =     -31.89886977 Ry
     estimated scf accuracy    <       1.12617114 Ry

     iteration # 19     ecut=    30.00 Ry     beta=0.70
     Davidson diagonalization with overlap
     ethr =  4.08E-03,  avg # of iterations =  1.0

     negative rho (up, down):  6.502E-06 0.000E+00

     total cpu time spent up to now is        0.8 secs

     total energy              =     -31.71121636 Ry
     Harris-Foulkes estimate   =     -31.92104595 Ry
     estimated scf accuracy    <       1.16148809 Ry

     iteration # 20     ecut=    30.00 Ry     beta=0.70
     Davidson diagonalization with overlap
     ethr =  4.08E-03,  avg # of iterations =  1.0

     negative rho (up, down):  2.990E-05 0.000E+00

     total cpu time spent up to now is        0.9 secs

     total energy              =     -31.70684663 Ry
     Harris-Foulkes estimate   =     -31.77618563 Ry
     estimated scf accuracy    <       1.22688325 Ry

     iteration # 21     ecut=    30.00 Ry     beta=0.70
     Davidson diagonalization with overlap
     ethr =  4.08E-03,  avg # of iterations =  1.0

     negative rho (up, down):  1.594E-05 0.000E+00

     total cpu time spent up to now is        0.9 secs

     total energy              =     -31.72766247 Ry
     Harris-Foulkes estimate   =     -31.77321585 Ry
     estimated scf accuracy    <       0.71356415 Ry

     iteration # 22     ecut=    30.00 Ry     beta=0.70
     Davidson diagonalization with overlap
     ethr =  4.08E-03,  avg # of iterations =  1.0

     negative rho (up, down):  2.058E-06 0.000E+00

     total cpu time spent up to now is        0.9 secs

     total energy              =     -31.74501548 Ry
     Harris-Foulkes estimate   =     -31.76776933 Ry
     estimated scf accuracy    <       0.77598701 Ry

     iteration # 23     ecut=    30.00 Ry     beta=0.70
     Davidson diagonalization with overlap
     ethr =  4.08E-03,  avg # of iterations =  1.0

     negative rho (up, down):  3.523E-07 0.000E+00

     total cpu time spent up to now is        1.0 secs

     total energy              =     -31.75883360 Ry
     Harris-Foulkes estimate   =     -31.75751569 Ry
     estimated scf accuracy    <       0.01234933 Ry

     iteration # 24     ecut=    30.00 Ry     beta=0.70
     Davidson diagonalization with overlap
     ethr =  1.54E-04,  avg # of iterations =  1.0

     negative rho (up, down):  4.145E-08 0.000E+00

     total cpu time spent up to now is        1.0 secs

     total energy              =     -31.75769073 Ry
     Harris-Foulkes estimate   =     -31.76104671 Ry
     estimated scf accuracy    <       0.23924284 Ry

     iteration # 25     ecut=    30.00 Ry     beta=0.70
     Davidson diagonalization with overlap
     ethr =  1.54E-04,  avg # of iterations =  1.0

     negative rho (up, down):  2.560E-08 0.000E+00

     total cpu time spent up to now is        1.0 secs

     total energy              =     -31.75851561 Ry
     Harris-Foulkes estimate   =     -31.75839605 Ry
     estimated scf accuracy    <       0.07487432 Ry

     iteration # 26     ecut=    30.00 Ry     beta=0.70
     Davidson diagonalization with overlap
     ethr =  1.54E-04,  avg # of iterations =  1.0

     total cpu time spent up to now is        1.1 secs

     total energy              =     -31.75542344 Ry
     Harris-Foulkes estimate   =     -31.75851900 Ry
     estimated scf accuracy    <       0.08315256 Ry

     iteration # 27     ecut=    30.00 Ry     beta=0.70
     Davidson diagonalization with overlap
     ethr =  1.54E-04,  avg # of iterations =  1.0

     total cpu time spent up to now is        1.1 secs

     total energy              =     -31.75733793 Ry
     Harris-Foulkes estimate   =     -31.75750987 Ry
     estimated scf accuracy    <       0.01275353 Ry

     iteration # 28     ecut=    30.00 Ry     beta=0.70
     Davidson diagonalization with overlap
     ethr =  1.54E-04,  avg # of iterations =  1.0

     total cpu time spent up to now is        1.1 secs

     total energy              =     -31.75734735 Ry
     Harris-Foulkes estimate   =     -31.75738298 Ry
     estimated scf accuracy    <       0.00285186 Ry

     iteration # 29     ecut=    30.00 Ry     beta=0.70
     Davidson diagonalization with overlap
     ethr =  3.56E-05,  avg # of iterations =  4.0

     total cpu time spent up to now is        1.2 secs

     total energy              =     -31.75734306 Ry
     Harris-Foulkes estimate   =     -31.75735589 Ry
     estimated scf accuracy    <       0.00075748 Ry

     iteration # 30     ecut=    30.00 Ry     beta=0.70
     Davidson diagonalization with overlap
     ethr =  9.47E-06,  avg # of iterations = 11.0

     total cpu time spent up to now is        1.2 secs

     total energy              =     -31.75734628 Ry
     Harris-Foulkes estimate   =     -31.75734737 Ry
     estimated scf accuracy    <       0.00008377 Ry

     iteration # 31     ecut=    30.00 Ry     beta=0.70
     Davidson diagonalization with overlap
     ethr =  1.05E-06,  avg # of iterations =  4.0

     total cpu time spent up to now is        1.2 secs

     total energy              =     -31.75734583 Ry
     Harris-Foulkes estimate   =     -31.75734661 Ry
     estimated scf accuracy    <       0.00001631 Ry

     iteration # 32     ecut=    30.00 Ry     beta=0.70
     Davidson diagonalization with overlap
     ethr =  2.04E-07,  avg # of iterations =  1.0

     total cpu time spent up to now is        1.3 secs

     total energy              =     -31.75734699 Ry
     Harris-Foulkes estimate   =     -31.75734742 Ry
     estimated scf accuracy    <       0.00005012 Ry

     iteration # 33     ecut=    30.00 Ry     beta=0.70
     Davidson diagonalization with overlap
     ethr =  2.04E-07,  avg # of iterations =  1.0

     total cpu time spent up to now is        1.3 secs

     total energy              =     -31.75734644 Ry
     Harris-Foulkes estimate   =     -31.75734706 Ry
     estimated scf accuracy    <       0.00002325 Ry

     iteration # 34     ecut=    30.00 Ry     beta=0.70
     Davidson diagonalization with overlap
     ethr =  2.04E-07,  avg # of iterations =  1.0

     total cpu time spent up to now is        1.3 secs

     total energy              =     -31.75734654 Ry
     Harris-Foulkes estimate   =     -31.75734660 Ry
     estimated scf accuracy    <       0.00000177 Ry

     iteration # 35     ecut=    30.00 Ry     beta=0.70
     Davidson diagonalization with overlap
     ethr =  2.21E-08,  avg # of iterations =  1.0

     total cpu time spent up to now is        1.4 secs

     total energy              =     -31.75734651 Ry
     Harris-Foulkes estimate   =     -31.75734661 Ry
     estimated scf accuracy    <       0.00000076 Ry

     iteration # 36     ecut=    30.00 Ry     beta=0.70
     Davidson diagonalization with overlap
     ethr =  9.51E-09,  avg # of iterations =  1.0

     total cpu time spent up to now is        1.4 secs

     total energy              =     -31.75734638 Ry
     Harris-Foulkes estimate   =     -31.75734652 Ry
     estimated scf accuracy    <       0.00000002 Ry

     iteration # 37     ecut=    30.00 Ry     beta=0.70
     Davidson diagonalization with overlap
     ethr =  2.30E-10,  avg # of iterations =  2.0

     total cpu time spent up to now is        1.4 secs

     End of self-consistent calculation

          k = 0.0000 0.0000 0.0000 ( 22119 PWs)   bands (ev):

   -23.6494  -8.9410  -6.9329  -6.9286  -6.7908  -3.9984  -0.0752   0.8055

     the Fermi energy is    -6.7602 ev

!    total energy              =     -31.75734637 Ry
     Harris-Foulkes estimate   =     -31.75734638 Ry
     estimated scf accuracy    <          7.6E-11 Ry

     convergence has been achieved in  37 iterations

     Forces acting on atoms (Ry/au):

     atom    1 type  1   force =    -0.00065042    0.00080974   -0.00014031
     atom    2 type  1   force =     0.06996734    0.04386795   -0.14995645
     atom    3 type  2   force =    -0.06931693   -0.04467769    0.15009676

     Total force =     0.242152     Total SCF correction =     0.000072

     Molecular Dynamics Calculation

     Starting temperature  =  1000.00 K

     temperature is controlled by Andersen thermostat
     Collision frequency = 1.0000/timestep
     mass H                =     1.01
     mass O                =    16.00
     Time step             =   100.00 a.u.,  4.8378 femto-seconds

     Entering Dynamics:    iteration =     1
                           time      =   0.0048 pico-seconds


     Andersen thermostat:    3 collisions

ATOMIC_POSITIONS (bohr)
H       10.553373778   0.612714381  11.448416692
H        5.086272143   6.336602936   7.654823417
O        5.888103156   6.582791609   5.834388371


     kinetic energy (Ekin) =     0.00941420 Ry
     temperature           =   495.46115447 K 
     Ekin + Etot (const)   =   -31.74793217 Ry

     Linear momentum :    0.0000000000   -0.0000000000    0.0000000000

     Writing output data file pwscf.save
     Check: negative starting charge=   -0.343466
     NEW-OLD atomic charge density approx. for the potential
     Check: negative starting charge=   -0.346913

     negative rho (up, down):  1.596E-01 0.000E+00

     total cpu time spent up to now is        1.7 secs

     per-process dynamical memory:    20.4 Mb

     Self-consistent Calculation

     iteration #  1     ecut=    30.00 Ry     beta=0.70
     Davidson diagonalization with overlap
     c_bands:  1 eigenvalues not converged
     ethr =  1.00E-06,  avg # of iterations = 20.0

     negative rho (up, down):  2.959E-02 0.000E+00

     total cpu time spent up to now is        1.8 secs

     total energy              =      -5.26201428 Ry
     Harris-Foulkes estimate   =     -55.10819354 Ry
     estimated scf accuracy    <       6.68586693 Ry

     iteration #  2     ecut=    30.00 Ry     beta=0.70
     Davidson diagonalization with overlap
     ethr =  1.00E-02,  avg # of iterations =  3.0

     negative rho (up, down):  1.785E-02 0.000E+00

     total cpu time spent up to now is        1.8 secs

     total energy              =     -32.46229197 Ry
     Harris-Foulkes estimate   =     -35.24145198 Ry
     estimated scf accuracy    <       5.76394313 Ry

     iteration #  3     ecut=    30.00 Ry     beta=0.70
     Davidson diagonalization with overlap
     ethr =  1.00E-02,  avg # of iterations =  2.0

     negative rho (up, down):  1.566E-02 0.000E+00

     total cpu time spent up to now is        1.8 secs

     total energy              =     -32.45731090 Ry
     Harris-Foulkes estimate   =     -33.28166702 Ry
     estimated scf accuracy    <       3.58490443 Ry

     iteration #  4     ecut=    30.00 Ry     beta=0.70
     Davidson diagonalization with overlap
     ethr =  1.00E-02,  avg # of iterations =  1.0

     negative rho (up, down):  8.767E-03 0.000E+00

     total cpu time spent up to now is        1.9 secs

     total energy              =     -31.92283864 Ry
     Harris-Foulkes estimate   =     -32.61741343 Ry
     estimated scf accuracy    <       2.32823500 Ry

     iteration #  5     ecut=    30.00 Ry     beta=0.70
     Davidson diagonalization with overlap
     ethr =  1.00E-02,  avg # of iterations =  1.0

     negative rho (up, down):  7.615E-03 0.000E+00

     total cpu time spent up to now is        1.9 secs

     total energy              =     -32.09574239 Ry
     Harris-Foulkes estimate   =     -32.26260417 Ry
     estimated scf accuracy    <       1.68360128 Ry

     iteration #  6     ecut=    30.00 Ry     beta=0.70
     Davidson diagonalization with overlap
     ethr =  1.00E-02,  avg # of iterations =  1.0

     negative rho (up, down):  5.558E-03 0.000E+00

     total cpu time spent up to now is        1.9 secs

     total energy              =     -31.87945288 Ry
     Harris-Foulkes estimate   =     -32.10030674 Ry
     estimated scf accuracy    <       1.17597730 Ry

     iteration #  7     ecut=    30.00 Ry     beta=0.70
     Davidson diagonalization with overlap
     ethr =  1.00E-02,  avg # of iterations =  1.0

     negative rho (up, down):  3.301E-03 0.000E+00

     total cpu time spent up to now is        1.9 secs

     total energy              =     -32.13272157 Ry
     Harris-Foulkes estimate   =     -32.18779150 Ry
     estimated scf accuracy    <       1.53755256 Ry

     iteration #  8     ecut=    30.00 Ry     beta=0.70
     Davidson diagonalization with overlap
     ethr =  1.00E-02,  avg # of iterations =  1.0

     negative rho (up, down):  2.912E-03 0.000E+00

     total cpu time spent up to now is        2.0 secs

     total energy              =     -32.02459532 Ry
     Harris-Foulkes estimate   =     -32.13635035 Ry
     estimated scf accuracy    <       1.45987596 Ry

     iteration #  9     ecut=    30.00 Ry     beta=0.70
     Davidson diagonalization with overlap
     ethr =  1.00E-02,  avg # of iterations =  1.0

     negative rho (up, down):  1.441E-03 0.000E+00

     total cpu time spent up to now is        2.0 secs

     total energy              =     -31.92768340 Ry
     Harris-Foulkes estimate   =     -32.02577416 Ry
     estimated scf accuracy    <       1.30153790 Ry

     iteration # 10     ecut=    30.00 Ry     beta=0.70
     Davidson diagonalization with overlap
     ethr =  1.00E-02,  avg # of iterations =  1.0

     negative rho (up, down):  8.264E-08 0.000E+00

     total cpu time spent up to now is        2.0 secs

     total energy              =     -31.94928904 Ry
     Harris-Foulkes estimate   =     -31.94221730 Ry
     estimated scf accuracy    <       0.03298504 Ry

     iteration # 11     ecut=    30.00 Ry     beta=0.70
     Davidson diagonalization with overlap
     ethr =  4.12E-04,  avg # of iterations =  5.0

     total cpu time spent up to now is        2.1 secs

     total energy              =     -31.98544111 Ry
     Harris-Foulkes estimate   =     -31.99511845 Ry
     estimated scf accuracy    <       0.93662390 Ry

     iteration # 12     ecut=    30.00 Ry     beta=0.70
     Davidson diagonalization with overlap
     ethr =  4.12E-04,  avg # of iterations =  1.0

     total cpu time spent up to now is        2.1 secs

     total energy              =     -31.90328147 Ry
     Harris-Foulkes estimate   =     -31.98548999 Ry
     estimated scf accuracy    <       0.92335484 Ry

     iteration # 13     ecut=    30.00 Ry     beta=0.70
     Davidson diagonalization with overlap
     ethr =  4.12E-04,  avg # of iterations =  1.0

     total cpu time spent up to now is        2.2 secs

     total energy              =     -31.94238887 Ry
     Harris-Foulkes estimate   =     -31.96408248 Ry
     estimated scf accuracy    <       1.19121884 Ry

     iteration # 14     ecut=    30.00 Ry     beta=0.70
     Davidson diagonalization with overlap
     ethr =  4.12E-04,  avg # of iterations =  1.0

     total cpu time spent up to now is        2.2 secs

     total energy              =     -31.94990268 Ry
     Harris-Foulkes estimate   =     -31.94850977 Ry
     estimated scf accuracy    <       0.17390170 Ry

     iteration # 15     ecut=    30.00 Ry     beta=0.70
     Davidson diagonalization with overlap
     ethr =  4.12E-04,  avg # of iterations =  1.0

     total cpu time spent up to now is        2.2 secs

     total energy              =     -31.94566137 Ry
     Harris-Foulkes estimate   =     -31.95012459 Ry
     estimated scf accuracy    <       0.30115995 Ry

     iteration # 16     ecut=    30.00 Ry     beta=0.70
     Davidson diagonalization with overlap
     ethr =  4.12E-04,  avg # of iterations =  1.0

     total cpu time spent up to now is        2.3 secs

     total energy              =     -31.94549382 Ry
     Harris-Foulkes estimate   =     -31.94694464 Ry
     estimated scf accuracy    <       0.05202954 Ry

     iteration # 17     ecut=    30.00 Ry     beta=0.70
     Davidson diagonalization with overlap
     ethr =  4.12E-04,  avg # of iterations =  1.0

     total cpu time spent up to now is        2.3 secs

     total energy              =     -31.94627261 Ry
     Harris-Foulkes estimate   =     -31.94629067 Ry
     estimated scf accuracy    <       0.00046610 Ry

     iteration # 18     ecut=    30.00 Ry     beta=0.70
     Davidson diagonalization with overlap
     ethr =  5.83E-06,  avg # of iterations =  9.0

     total cpu time spent up to now is        2.3 secs

     total energy              =     -31.94627661 Ry
     Harris-Foulkes estimate   =     -31.94628406 Ry
     estimated scf accuracy    <       0.00004977 Ry

     iteration # 19     ecut=    30.00 Ry     beta=0.70
     Davidson diagonalization with overlap
     ethr =  6.22E-07,  avg # of iterations =  1.0

     total cpu time spent up to now is        2.4 secs

     total energy              =     -31.94625853 Ry
     Harris-Foulkes estimate   =     -31.94629426 Ry
     estimated scf accuracy    <       0.00088179 Ry

     iteration # 20     ecut=    30.00 Ry     beta=0.70
     Davidson diagonalization with overlap
     ethr =  6.22E-07,  avg # of iterations =  1.0

     total cpu time spent up to now is        2.4 secs

     total energy              =     -31.94628095 Ry
     Harris-Foulkes estimate   =     -31.94628583 Ry
     estimated scf accuracy    <       0.00026239 Ry

     iteration # 21     ecut=    30.00 Ry     beta=0.70
     Davidson diagonalization with overlap
     ethr =  6.22E-07,  avg # of iterations =  1.0

     total cpu time spent up to now is        2.4 secs

     total energy              =     -31.94628162 Ry
     Harris-Foulkes estimate   =     -31.94628258 Ry
     estimated scf accuracy    <       0.00002525 Ry

     iteration # 22     ecut=    30.00 Ry     beta=0.70
     Davidson diagonalization with overlap
     ethr =  3.16E-07,  avg # of iterations =  1.0

     total cpu time spent up to now is        2.5 secs

     total energy              =     -31.94628197 Ry
     Harris-Foulkes estimate   =     -31.94628205 Ry
     estimated scf accuracy    <       0.00000054 Ry

     iteration # 23     ecut=    30.00 Ry     beta=0.70
     Davidson diagonalization with overlap
     ethr =  6.81E-09,  avg # of iterations =  1.0

     total cpu time spent up to now is        2.5 secs

     total energy              =     -31.94628198 Ry
     Harris-Foulkes estimate   =     -31.94628199 Ry
     estimated scf accuracy    <       0.00000002 Ry

     iteration # 24     ecut=    30.00 Ry     beta=0.70
     Davidson diagonalization with overlap
     ethr =  2.53E-10,  avg # of iterations =  1.0

     total cpu time spent up to now is        2.5 secs

     End of self-consistent calculation

          k = 0.0000 0.0000 0.0000 ( 22119 PWs)   bands (ev):

   -24.7625 -10.6243  -7.0572  -7.0539  -6.9121  -0.7218   0.2846   0.8417

     the Fermi energy is    -6.8838 ev

!    total energy              =     -31.94628199 Ry
     Harris-Foulkes estimate   =     -31.94628199 Ry
     estimated scf accuracy    <          4.3E-11 Ry

     convergence has been achieved in  24 iterations

     Forces acting on atoms (Ry/au):

     atom    1 type  1   force =    -0.00049543    0.00075340   -0.00044964
     atom    2 type  1   force =    -0.00146201    0.00072116    0.00082493
     atom    3 type  2   force =     0.00195743   -0.00147455   -0.00037528

     Total force =     0.003240     Total SCF correction =     0.000005

     Entering Dynamics:    iteration =     2
                           time      =   0.0097 pico-seconds


     Andersen thermostat:    3 collisions

ATOMIC_POSITIONS (bohr)
H       10.669808704   0.461802271  11.281927428
H        4.277675454   6.129950780   7.654595321
O        5.931795867   6.605362854   5.844912404


     kinetic energy (Ekin) =     0.03820651 Ry
     temperature           =  2010.77429765 K 
     Ekin + Etot (const)   =   -31.90807548 Ry
     Message from routine dynamics:
     Total linear momentum <> 0

     Linear momentum :    0.1722584083    0.3391522889    0.0800824685

     Writing output data file pwscf.save

     first order wave-functions extrapolation
     Check: negative starting charge=   -0.346913
     first order charge density extrapolation
     Check: negative starting charge=   -0.344801

     negative rho (up, down):  1.992E-01 0.000E+00

     total cpu time spent up to now is        2.8 secs

     per-process dynamical memory:    20.4 Mb

     Self-consistent Calculation

     iteration #  1     ecut=    30.00 Ry     beta=0.70
     Davidson diagonalization with overlap
     c_bands:  1 eigenvalues not converged
     ethr =  1.00E-06,  avg # of iterations = 20.0

     negative rho (up, down):  4.623E-02 0.000E+00

     total cpu time spent up to now is        2.9 secs

     total energy              =     -30.13318682 Ry
     Harris-Foulkes estimate   =     -32.17018276 Ry
     estimated scf accuracy    <       2.03843829 Ry

     iteration #  2     ecut=    30.00 Ry     beta=0.70
     Davidson diagonalization with overlap
     ethr =  1.00E-02,  avg # of iterations =  3.0

     negative rho (up, down):  3.436E-02 0.000E+00

     total cpu time spent up to now is        3.0 secs

     total energy              =     -32.10090121 Ry
     Harris-Foulkes estimate   =     -34.59440955 Ry
     estimated scf accuracy    <       6.48312058 Ry

     iteration #  3     ecut=    30.00 Ry     beta=0.70
     Davidson diagonalization with overlap
     ethr =  1.00E-02,  avg # of iterations =  2.0

     negative rho (up, down):  2.973E-02 0.000E+00

     total cpu time spent up to now is        3.0 secs

     total energy              =     -32.12899074 Ry
     Harris-Foulkes estimate   =     -32.40494219 Ry
     estimated scf accuracy    <       1.86764687 Ry

     iteration #  4     ecut=    30.00 Ry     beta=0.70
     Davidson diagonalization with overlap
     ethr =  1.00E-02,  avg # of iterations =  1.0

     negative rho (up, down):  7.688E-03 0.000E+00

     total cpu time spent up to now is        3.0 secs

     total energy              =     -31.30288509 Ry
     Harris-Foulkes estimate   =     -32.13185911 Ry
     estimated scf accuracy    <       1.42980741 Ry

     iteration #  5     ecut=    30.00 Ry     beta=0.70
     Davidson diagonalization with overlap
     ethr =  1.00E-02,  avg # of iterations =  2.0

     negative rho (up, down):  9.105E-03 0.000E+00

     total cpu time spent up to now is        3.1 secs

     total energy              =     -32.38930214 Ry
     Harris-Foulkes estimate   =     -32.92927179 Ry
     estimated scf accuracy    <       3.12952510 Ry

     iteration #  6     ecut=    30.00 Ry     beta=0.70
     Davidson diagonalization with overlap
     ethr =  1.00E-02,  avg # of iterations =  1.0

     negative rho (up, down):  7.972E-03 0.000E+00

     total cpu time spent up to now is        3.1 secs

     total energy              =     -32.11290497 Ry
     Harris-Foulkes estimate   =     -32.40332947 Ry
     estimated scf accuracy    <       2.14096895 Ry

     iteration #  7     ecut=    30.00 Ry     beta=0.70
     Davidson diagonalization with overlap
     ethr =  1.00E-02,  avg # of iterations =  1.0

     negative rho (up, down):  7.921E-03 0.000E+00

     total cpu time spent up to now is        3.1 secs

     total energy              =     -31.96233189 Ry
     Harris-Foulkes estimate   =     -32.12144496 Ry
     estimated scf accuracy    <       1.59310400 Ry

     iteration #  8     ecut=    30.00 Ry     beta=0.70
     Davidson diagonalization with overlap
     ethr =  1.00E-02,  avg # of iterations =  1.0

     negative rho (up, down):  7.433E-03 0.000E+00

     total cpu time spent up to now is        3.2 secs

     total energy              =     -32.20408324 Ry
     Harris-Foulkes estimate   =     -31.96521646 Ry
     estimated scf accuracy    <       1.30766454 Ry

     iteration #  9     ecut=    30.00 Ry     beta=0.70
     Davidson diagonalization with overlap
     ethr =  1.00E-02,  avg # of iterations =  1.0

     negative rho (up, down):  6.350E-03 0.000E+00

     total cpu time spent up to now is        3.2 secs

     total energy              =     -31.41529771 Ry
     Harris-Foulkes estimate   =     -32.20814899 Ry
     estimated scf accuracy    <       1.71418937 Ry

     iteration # 10     ecut=    30.00 Ry     beta=0.70
     Davidson diagonalization with overlap
     ethr =  1.00E-02,  avg # of iterations =  2.0

     negative rho (up, down):  5.059E-03 0.000E+00

     total cpu time spent up to now is        3.2 secs

     total energy              =     -32.59637865 Ry
     Harris-Foulkes estimate   =     -32.36477594 Ry
     estimated scf accuracy    <       1.69337838 Ry

     iteration # 11     ecut=    30.00 Ry     beta=0.70
     Davidson diagonalization with overlap
     ethr =  1.00E-02,  avg # of iterations =  1.0

     negative rho (up, down):  6.543E-03 0.000E+00

     total cpu time spent up to now is        3.3 secs

     total energy              =     -32.69167259 Ry
     Harris-Foulkes estimate   =     -32.59882804 Ry
     estimated scf accuracy    <       2.00389359 Ry

     iteration # 12     ecut=    30.00 Ry     beta=0.70
     Davidson diagonalization with overlap
     ethr =  1.00E-02,  avg # of iterations =  1.0

     negative rho (up, down):  6.451E-03 0.000E+00

     total cpu time spent up to now is        3.3 secs

     total energy              =     -32.67879089 Ry
     Harris-Foulkes estimate   =     -32.69206238 Ry
     estimated scf accuracy    <       2.08637599 Ry

     iteration # 13     ecut=    30.00 Ry     beta=0.70
     Davidson diagonalization with overlap
     ethr =  1.00E-02,  avg # of iterations =  1.0

     negative rho (up, down):  5.511E-03 0.000E+00

     total cpu time spent up to now is        3.3 secs

     total energy              =     -32.03567668 Ry
     Harris-Foulkes estimate   =     -32.67906359 Ry
     estimated scf accuracy    <       2.10242622 Ry

     iteration # 14     ecut=    30.00 Ry     beta=0.70
     Davidson diagonalization with overlap
     ethr =  1.00E-02,  avg # of iterations =  1.0

     negative rho (up, down):  8.475E-04 0.000E+00

     total cpu time spent up to now is        3.4 secs

     total energy              =     -31.95531307 Ry
     Harris-Foulkes estimate   =     -32.05035674 Ry
     estimated scf accuracy    <       1.11031534 Ry

     iteration # 15     ecut=    30.00 Ry     beta=0.70
     Davidson diagonalization with overlap
     ethr =  1.00E-02,  avg # of iterations =  1.0

     negative rho (up, down):  3.623E-04 0.000E+00

     total cpu time spent up to now is        3.4 secs

     total energy              =     -31.57379649 Ry
     Harris-Foulkes estimate   =     -31.95685015 Ry
     estimated scf accuracy    <       1.01672865 Ry

     iteration # 16     ecut=    30.00 Ry     beta=0.70
     Davidson diagonalization with overlap
     ethr =  1.00E-02,  avg # of iterations =  2.0

     negative rho (up, down):  2.247E-05 0.000E+00

     total cpu time spent up to now is        3.4 secs

     total energy              =     -32.20926473 Ry
     Harris-Foulkes estimate   =     -32.30685545 Ry
     estimated scf accuracy    <       1.88497525 Ry

     iteration # 17     ecut=    30.00 Ry     beta=0.70
     Davidson diagonalization with overlap
     ethr =  1.00E-02,  avg # of iterations =  1.0

     negative rho (up, down):  1.188E-05 0.000E+00

     total cpu time spent up to now is        3.5 secs

     total energy              =     -32.03239983 Ry
     Harris-Foulkes estimate   =     -32.21084369 Ry
     estimated scf accuracy    <       1.71622250 Ry

     iteration # 18     ecut=    30.00 Ry     beta=0.70
     Davidson diagonalization with overlap
     ethr =  1.00E-02,  avg # of iterations =  1.0

     negative rho (up, down):  1.019E-05 0.000E+00

     total cpu time spent up to now is        3.5 secs

     total energy              =     -31.95079898 Ry
     Harris-Foulkes estimate   =     -32.03484427 Ry
     estimated scf accuracy    <       1.40598669 Ry

     iteration # 19     ecut=    30.00 Ry     beta=0.70
     Davidson diagonalization with overlap
     ethr =  1.00E-02,  avg # of iterations =  1.0

     negative rho (up, down):  2.153E-05 0.000E+00

     total cpu time spent up to now is        3.6 secs

     total energy              =     -31.93545028 Ry
     Harris-Foulkes estimate   =     -31.95149974 Ry
     estimated scf accuracy    <       1.27474035 Ry

     iteration # 20     ecut=    30.00 Ry     beta=0.70
     Davidson diagonalization with overlap
     ethr =  1.00E-02,  avg # of iterations =  1.0

     negative rho (up, down):  4.844E-05 0.000E+00

     total cpu time spent up to now is        3.6 secs

     total energy              =     -31.99005710 Ry
     Harris-Foulkes estimate   =     -31.93525293 Ry
     estimated scf accuracy    <       1.35296697 Ry

     iteration # 21     ecut=    30.00 Ry     beta=0.70
     Davidson diagonalization with overlap
     ethr =  1.00E-02,  avg # of iterations =  1.0

     negative rho (up, down):  4.215E-05 0.000E+00

     total cpu time spent up to now is        3.6 secs

     total energy              =     -31.93947735 Ry
     Harris-Foulkes estimate   =     -31.98816876 Ry
     estimated scf accuracy    <       1.31862039 Ry

     iteration # 22     ecut=    30.00 Ry     beta=0.70
     Davidson diagonalization with overlap
     ethr =  1.00E-02,  avg # of iterations =  1.0

     negative rho (up, down):  2.714E-05 0.000E+00

     total cpu time spent up to now is        3.7 secs

     total energy              =     -31.78080668 Ry
     Harris-Foulkes estimate   =     -31.93944035 Ry
     estimated scf accuracy    <       1.31647862 Ry

     iteration # 23     ecut=    30.00 Ry     beta=0.70
     Davidson diagonalization with overlap
     ethr =  1.00E-02,  avg # of iterations =  1.0

     negative rho (up, down):  4.558E-07 0.000E+00

     total cpu time spent up to now is        3.7 secs

     total energy              =     -31.86226182 Ry
     Harris-Foulkes estimate   =     -31.93949127 Ry
     estimated scf accuracy    <       0.97658514 Ry

     iteration # 24     ecut=    30.00 Ry     beta=0.70
     Davidson diagonalization with overlap
     ethr =  1.00E-02,  avg # of iterations =  1.0

     negative rho (up, down):  2.349E-08 0.000E+00

     total cpu time spent up to now is        3.7 secs

     total energy              =     -31.88055042 Ry
     Harris-Foulkes estimate   =     -31.87959122 Ry
     estimated scf accuracy    <       0.00445484 Ry

     iteration # 25     ecut=    30.00 Ry     beta=0.70
     Davidson diagonalization with overlap
     ethr =  5.57E-05,  avg # of iterations =  1.0

     total cpu time spent up to now is        3.8 secs

     total energy              =     -31.87394199 Ry
     Harris-Foulkes estimate   =     -31.88429982 Ry
     estimated scf accuracy    <       0.37283062 Ry

     iteration # 26     ecut=    30.00 Ry     beta=0.70
     Davidson diagonalization with overlap
     ethr =  5.57E-05,  avg # of iterations =  1.0

     total cpu time spent up to now is        3.8 secs

     total energy              =     -31.87835068 Ry
     Harris-Foulkes estimate   =     -31.87958799 Ry
     estimated scf accuracy    <       0.00334095 Ry

     iteration # 27     ecut=    30.00 Ry     beta=0.70
     Davidson diagonalization with overlap
     ethr =  4.18E-05,  avg # of iterations =  1.0

     total cpu time spent up to now is        3.8 secs

     total energy              =     -31.87420457 Ry
     Harris-Foulkes estimate   =     -31.89002499 Ry
     estimated scf accuracy    <       0.78129145 Ry

     iteration # 28     ecut=    30.00 Ry     beta=0.70
     Davidson diagonalization with overlap
     ethr =  4.18E-05,  avg # of iterations =  1.0

     total cpu time spent up to now is        3.9 secs

     total energy              =     -31.87725303 Ry
     Harris-Foulkes estimate   =     -31.88005743 Ry
     estimated scf accuracy    <       0.04091930 Ry

     iteration # 29     ecut=    30.00 Ry     beta=0.70
     Davidson diagonalization with overlap
     ethr =  4.18E-05,  avg # of iterations =  1.0

     total cpu time spent up to now is        3.9 secs

     total energy              =     -31.88159202 Ry
     Harris-Foulkes estimate   =     -31.88103705 Ry
     estimated scf accuracy    <       0.10401536 Ry

     iteration # 30     ecut=    30.00 Ry     beta=0.70
     Davidson diagonalization with overlap
     ethr =  4.18E-05,  avg # of iterations =  1.0

     total cpu time spent up to now is        3.9 secs

     total energy              =     -31.87705564 Ry
     Harris-Foulkes estimate   =     -31.88163933 Ry
     estimated scf accuracy    <       0.14253740 Ry

     iteration # 31     ecut=    30.00 Ry     beta=0.70
     Davidson diagonalization with overlap
     ethr =  4.18E-05,  avg # of iterations =  1.0

     total cpu time spent up to now is        4.0 secs

     total energy              =     -31.87937323 Ry
     Harris-Foulkes estimate   =     -31.87958274 Ry
     estimated scf accuracy    <       0.00334121 Ry

     iteration # 32     ecut=    30.00 Ry     beta=0.70
     Davidson diagonalization with overlap
     ethr =  4.18E-05,  avg # of iterations =  1.0

     total cpu time spent up to now is        4.0 secs

     total energy              =     -31.87947491 Ry
     Harris-Foulkes estimate   =     -31.87963145 Ry
     estimated scf accuracy    <       0.00684399 Ry

     iteration # 33     ecut=    30.00 Ry     beta=0.70
     Davidson diagonalization with overlap
     ethr =  4.18E-05,  avg # of iterations =  1.0

     total cpu time spent up to now is        4.0 secs

     total energy              =     -31.87954114 Ry
     Harris-Foulkes estimate   =     -31.87954137 Ry
     estimated scf accuracy    <       0.00013087 Ry

     iteration # 34     ecut=    30.00 Ry     beta=0.70
     Davidson diagonalization with overlap
     c_bands:  1 eigenvalues not converged
     ethr =  1.64E-06,  avg # of iterations = 20.0

     total cpu time spent up to now is        4.1 secs

     total energy              =     -31.87953815 Ry
     Harris-Foulkes estimate   =     -31.87954117 Ry
     estimated scf accuracy    <       0.00010370 Ry

     iteration # 35     ecut=    30.00 Ry     beta=0.70
     Davidson diagonalization with overlap
     ethr =  1.30E-06,  avg # of iterations =  1.0

     total cpu time spent up to now is        4.1 secs

     total energy              =     -31.87954111 Ry
     Harris-Foulkes estimate   =     -31.87954082 Ry
     estimated scf accuracy    <       0.00001607 Ry

     iteration # 36     ecut=    30.00 Ry     beta=0.70
     Davidson diagonalization with overlap
     ethr =  2.01E-07,  avg # of iterations =  1.0

     total cpu time spent up to now is        4.1 secs

     total energy              =     -31.87954061 Ry
     Harris-Foulkes estimate   =     -31.87954112 Ry
     estimated scf accuracy    <       0.00001217 Ry

     iteration # 37     ecut=    30.00 Ry     beta=0.70
     Davidson diagonalization with overlap
     ethr =  1.52E-07,  avg # of iterations =  1.0

     total cpu time spent up to now is        4.2 secs

     total energy              =     -31.87954065 Ry
     Harris-Foulkes estimate   =     -31.87954071 Ry
     estimated scf accuracy    <       0.00000057 Ry

     iteration # 38     ecut=    30.00 Ry     beta=0.70
     Davidson diagonalization with overlap
     ethr =  7.13E-09,  avg # of iterations =  1.0

     total cpu time spent up to now is        4.2 secs

     total energy              =     -31.87954067 Ry
     Harris-Foulkes estimate   =     -31.87954065 Ry
     estimated scf accuracy    <       0.00000015 Ry

     iteration # 39     ecut=    30.00 Ry     beta=0.70
     Davidson diagonalization with overlap
     ethr =  1.87E-09,  avg # of iterations =  1.0

     total cpu time spent up to now is        4.3 secs

     total energy              =     -31.87954067 Ry
     Harris-Foulkes estimate   =     -31.87954067 Ry
     estimated scf accuracy    <       0.00000005 Ry

     iteration # 40     ecut=    30.00 Ry     beta=0.70
     Davidson diagonalization with overlap
     ethr =  6.24E-10,  avg # of iterations =  1.0

     total cpu time spent up to now is        4.3 secs

     End of self-consistent calculation

          k = 0.0000 0.0000 0.0000 ( 22119 PWs)   bands (ev):

   -23.9550  -9.8038  -6.9570  -6.9533  -6.8140  -1.8869   0.0449   0.8447

     the Fermi energy is    -6.7842 ev

!    total energy              =     -31.87954067 Ry
     Harris-Foulkes estimate   =     -31.87954067 Ry
     estimated scf accuracy    <          4.8E-10 Ry

     convergence has been achieved in  40 iterations

     Forces acting on atoms (Ry/au):

     atom    1 type  1   force =    -0.00054126    0.00068061   -0.00044870
     atom    2 type  1   force =     0.12882830    0.03772465   -0.14202591
     atom    3 type  2   force =    -0.12828703   -0.03840526    0.14247461

     Total force =     0.276448     Total SCF correction =     0.000005

     Entering Dynamics:    iteration =     3
                           time      =   0.0145 pico-seconds


     Andersen thermostat:    3 collisions

ATOMIC_POSITIONS (bohr)
H       10.762527166   0.479567985  11.141540520
H        5.730884140   6.544071663   6.188645678
O        5.834209216   6.578100012   5.946312399


     kinetic energy (Ekin) =     0.05942354 Ry
     temperature           =  3127.40803865 K 
     Ekin + Etot (const)   =   -31.82011713 Ry
     Message from routine dynamics:
     Total linear momentum <> 0

     Linear momentum :    0.5369700344   -0.0134920174    0.0096061913

     Writing output data file pwscf.save

     second order wave-functions extrapolation
     Check: negative starting charge=   -0.344801
     second order charge density extrapolation
     Check: negative starting charge=   -0.351397

     negative rho (up, down):  3.394E-01 0.000E+00

     total cpu time spent up to now is        4.7 secs

     per-process dynamical memory:    20.4 Mb

     Self-consistent Calculation

     iteration #  1     ecut=    30.00 Ry     beta=0.70
     Davidson diagonalization with overlap
     ethr =  1.00E-06,  avg # of iterations = 12.0

     negative rho (up, down):  6.967E-02 0.000E+00

     total cpu time spent up to now is        4.8 secs

     total energy              =      53.38198924 Ry
     Harris-Foulkes estimate   =     -30.87920591 Ry
     estimated scf accuracy    <      18.28815746 Ry

     iteration #  2     ecut=    30.00 Ry     beta=0.70
     Davidson diagonalization with overlap
     ethr =  1.00E-02,  avg # of iterations =  4.0

     negative rho (up, down):  4.272E-02 0.000E+00

     total cpu time spent up to now is        4.8 secs

     total energy              =      -1.50675149 Ry
     Harris-Foulkes estimate   =      -9.27129319 Ry
     estimated scf accuracy    <      14.78789444 Ry

     iteration #  3     ecut=    30.00 Ry     beta=0.70
     Davidson diagonalization with overlap
     ethr =  1.00E-02,  avg # of iterations =  3.0

     negative rho (up, down):  3.425E-02 0.000E+00

     total cpu time spent up to now is        4.8 secs

     total energy              =      -0.89034328 Ry
     Harris-Foulkes estimate   =      -2.63916619 Ry
     estimated scf accuracy    <       6.03601103 Ry

     iteration #  4     ecut=    30.00 Ry     beta=0.70
     Davidson diagonalization with overlap
     ethr =  1.00E-02,  avg # of iterations =  1.0

     negative rho (up, down):  2.010E-02 0.000E+00

     total cpu time spent up to now is        4.9 secs

     total energy              =      -0.11526260 Ry
     Harris-Foulkes estimate   =      -1.74415308 Ry
     estimated scf accuracy    <       4.40294399 Ry

     iteration #  5     ecut=    30.00 Ry     beta=0.70
     Davidson diagonalization with overlap
     ethr =  1.00E-02,  avg # of iterations =  1.0

     negative rho (up, down):  1.337E-02 0.000E+00

     total cpu time spent up to now is        4.9 secs

     total energy              =       0.38787847 Ry
     Harris-Foulkes estimate   =      -0.14871042 Ry
     estimated scf accuracy    <       2.09209407 Ry

     iteration #  6     ecut=    30.00 Ry     beta=0.70
     Davidson diagonalization with overlap
     ethr =  1.00E-02,  avg # of iterations =  1.0

     negative rho (up, down):  1.318E-02 0.000E+00

     total cpu time spent up to now is        4.9 secs

     total energy              =       0.21836628 Ry
     Harris-Foulkes estimate   =       0.12907443 Ry
     estimated scf accuracy    <       2.19872086 Ry

     iteration #  7     ecut=    30.00 Ry     beta=0.70
     Davidson diagonalization with overlap
     ethr =  1.00E-02,  avg # of iterations =  1.0

     negative rho (up, down):  1.325E-02 0.000E+00

     total cpu time spent up to now is        5.0 secs

     total energy              =       0.16235780 Ry
     Harris-Foulkes estimate   =       0.21904861 Ry
     estimated scf accuracy    <       2.41930281 Ry

     iteration #  8     ecut=    30.00 Ry     beta=0.70
     Davidson diagonalization with overlap
     ethr =  1.00E-02,  avg # of iterations =  1.0

     negative rho (up, down):  1.294E-02 0.000E+00

     total cpu time spent up to now is        5.0 secs

     total energy              =      -0.01679966 Ry
     Harris-Foulkes estimate   =       0.16619603 Ry
     estimated scf accuracy    <       2.14032048 Ry

     iteration #  9     ecut=    30.00 Ry     beta=0.70
     Davidson diagonalization with overlap
     ethr =  1.00E-02,  avg # of iterations =  1.0

     negative rho (up, down):  1.182E-01 0.000E+00

     total cpu time spent up to now is        5.0 secs

     total energy              =      -0.76932438 Ry
     Harris-Foulkes estimate   =      -0.01959188 Ry
     estimated scf accuracy    <       2.44553080 Ry

     iteration # 10     ecut=    30.00 Ry     beta=0.70
     Davidson diagonalization with overlap
     ethr =  1.00E-02,  avg # of iterations =  1.0

     negative rho (up, down):  5.208E-01 0.000E+00

     total cpu time spent up to now is        5.1 secs

     total energy              =      -2.30852336 Ry
     Harris-Foulkes estimate   =      -0.82696119 Ry
     estimated scf accuracy    <       5.03779875 Ry

     iteration # 11     ecut=    30.00 Ry     beta=0.70
     Davidson diagonalization with overlap
     ethr =  1.00E-02,  avg # of iterations =  4.0

     negative rho (up, down):  5.773E-01 0.000E+00

     total cpu time spent up to now is        5.1 secs

     total energy              =      -6.32490708 Ry
     Harris-Foulkes estimate   =      -5.31016806 Ry
     estimated scf accuracy    <      32.24534628 Ry

     iteration # 12     ecut=    30.00 Ry     beta=0.70
     Davidson diagonalization with overlap
     ethr =  1.00E-02,  avg # of iterations =  2.0

     negative rho (up, down):  5.347E-01 0.000E+00

     total cpu time spent up to now is        5.1 secs

     total energy              =      -6.23402669 Ry
     Harris-Foulkes estimate   =      -6.60571410 Ry
     estimated scf accuracy    <      33.98954397 Ry

     iteration # 13     ecut=    30.00 Ry     beta=0.70
     Davidson diagonalization with overlap
     ethr =  1.00E-02,  avg # of iterations =  3.0

     negative rho (up, down):  1.693E+00 0.000E+00

     total cpu time spent up to now is        5.2 secs

     total energy              =     -18.31357187 Ry
     Harris-Foulkes estimate   =      -6.26260478 Ry
     estimated scf accuracy    <      33.41660405 Ry

     iteration # 14     ecut=    30.00 Ry     beta=0.70
     Davidson diagonalization with overlap
     ethr =  1.00E-02,  avg # of iterations =  3.0

     negative rho (up, down):  2.002E+00 0.000E+00

     total cpu time spent up to now is        5.2 secs

     total energy              =     -24.34951565 Ry
     Harris-Foulkes estimate   =     -21.46493958 Ry
     estimated scf accuracy    <      81.59370937 Ry

     iteration # 15     ecut=    30.00 Ry     beta=0.70
     Davidson diagonalization with overlap
     ethr =  1.00E-02,  avg # of iterations =  1.0

     negative rho (up, down):  2.727E+00 0.000E+00

     total cpu time spent up to now is        5.2 secs

     total energy              =     -34.94944222 Ry
     Harris-Foulkes estimate   =     -24.39078556 Ry
     estimated scf accuracy    <      85.50914685 Ry

     iteration # 16     ecut=    30.00 Ry     beta=0.70
     Davidson diagonalization with overlap
     ethr =  1.00E-02,  avg # of iterations =  3.0

     negative rho (up, down):  2.860E-01 0.000E+00

     total cpu time spent up to now is        5.3 secs

     total energy              =       9.85974338 Ry
     Harris-Foulkes estimate   =     -35.05192608 Ry
     estimated scf accuracy    <      98.79195376 Ry

     iteration # 17     ecut=    30.00 Ry     beta=0.70
     Davidson diagonalization with overlap
     ethr =  1.00E-02,  avg # of iterations = 10.0

     negative rho (up, down):  3.638E-01 0.000E+00

     total cpu time spent up to now is        5.3 secs

     total energy              =       3.51393010 Ry
     Harris-Foulkes estimate   =       0.67885655 Ry
     estimated scf accuracy    <       9.19654363 Ry

     iteration # 18     ecut=    30.00 Ry     beta=0.70
     Davidson diagonalization with overlap
     ethr =  1.00E-02,  avg # of iterations =  6.0

     negative rho (up, down):  1.939E-01 0.000E+00

     total cpu time spent up to now is        5.4 secs

     total energy              =       3.12253478 Ry
     Harris-Foulkes estimate   =       0.05759798 Ry
     estimated scf accuracy    <       1.34508539 Ry

     iteration # 19     ecut=    30.00 Ry     beta=0.70
     Davidson diagonalization with overlap
     ethr =  1.00E-02,  avg # of iterations =  7.0

     negative rho (up, down):  1.714E-01 0.000E+00

     total cpu time spent up to now is        5.4 secs

     total energy              =      -0.28602482 Ry
     Harris-Foulkes estimate   =      -0.54865681 Ry
     estimated scf accuracy    <       2.47126315 Ry

     iteration # 20     ecut=    30.00 Ry     beta=0.70
     Davidson diagonalization with overlap
     ethr =  1.00E-02,  avg # of iterations =  2.0

     negative rho (up, down):  2.049E-01 0.000E+00

     total cpu time spent up to now is        5.5 secs

     total energy              =       0.48996716 Ry
     Harris-Foulkes estimate   =      -0.29167012 Ry
     estimated scf accuracy    <       1.99372387 Ry

     iteration # 21     ecut=    30.00 Ry     beta=0.70
     Davidson diagonalization with overlap
     ethr =  1.00E-02,  avg # of iterations =  2.0

     negative rho (up, down):  1.496E-01 0.000E+00

     total cpu time spent up to now is        5.5 secs

     total energy              =       0.88929567 Ry
     Harris-Foulkes estimate   =       0.42140479 Ry
     estimated scf accuracy    <       0.63598616 Ry

     iteration # 22     ecut=    30.00 Ry     beta=0.70
     Davidson diagonalization with overlap
     ethr =  7.95E-03,  avg # of iterations =  3.0

     negative rho (up, down):  7.547E-02 0.000E+00

     total cpu time spent up to now is        5.6 secs

     total energy              =       0.39688377 Ry
     Harris-Foulkes estimate   =       0.32079062 Ry
     estimated scf accuracy    <       1.00610990 Ry

     iteration # 23     ecut=    30.00 Ry     beta=0.70
     Davidson diagonalization with overlap
     ethr =  7.95E-03,  avg # of iterations =  2.0

     negative rho (up, down):  2.549E-02 0.000E+00

     total cpu time spent up to now is        5.6 secs

     total energy              =       0.51962831 Ry
     Harris-Foulkes estimate   =       0.39070605 Ry
     estimated scf accuracy    <       1.00087010 Ry

     iteration # 24     ecut=    30.00 Ry     beta=0.70
     Davidson diagonalization with overlap
     ethr =  7.95E-03,  avg # of iterations =  2.0

     negative rho (up, down):  6.324E-03 0.000E+00

     total cpu time spent up to now is        5.7 secs

     total energy              =       1.03555387 Ry
     Harris-Foulkes estimate   =       0.43827168 Ry
     estimated scf accuracy    <       2.00035422 Ry

     iteration # 25     ecut=    30.00 Ry     beta=0.70
     Davidson diagonalization with overlap
     ethr =  7.95E-03,  avg # of iterations =  2.0

     negative rho (up, down):  5.892E-03 0.000E+00

     total cpu time spent up to now is        5.7 secs

     total energy              =       0.52063297 Ry
     Harris-Foulkes estimate   =       0.23688482 Ry
     estimated scf accuracy    <       1.18239769 Ry

     iteration # 26     ecut=    30.00 Ry     beta=0.70
     Davidson diagonalization with overlap
     ethr =  7.95E-03,  avg # of iterations =  2.0

     negative rho (up, down):  1.678E-02 0.000E+00

     total cpu time spent up to now is        5.8 secs

     total energy              =       0.23098233 Ry
     Harris-Foulkes estimate   =       0.42298985 Ry
     estimated scf accuracy    <       2.16012779 Ry

     iteration # 27     ecut=    30.00 Ry     beta=0.70
     Davidson diagonalization with overlap
     ethr =  7.95E-03,  avg # of iterations =  2.0

     negative rho (up, down):  5.598E-03 0.000E+00

     total cpu time spent up to now is        5.8 secs

     total energy              =       0.35100176 Ry
     Harris-Foulkes estimate   =       0.21633560 Ry
     estimated scf accuracy    <       2.03267887 Ry

     iteration # 28     ecut=    30.00 Ry     beta=0.70
     Davidson diagonalization with overlap
     ethr =  7.95E-03,  avg # of iterations =  2.0

     negative rho (up, down):  1.333E-02 0.000E+00

     total cpu time spent up to now is        5.9 secs

     total energy              =       0.51915001 Ry
     Harris-Foulkes estimate   =       0.27846123 Ry
     estimated scf accuracy    <       2.04105353 Ry

     iteration # 29     ecut=    30.00 Ry     beta=0.70
     Davidson diagonalization with overlap
     ethr =  7.95E-03,  avg # of iterations =  3.0

     negative rho (up, down):  1.000E-02 0.000E+00

     total cpu time spent up to now is        6.0 secs

     total energy              =       0.83734081 Ry
     Harris-Foulkes estimate   =       0.15644565 Ry
     estimated scf accuracy    <       2.17192181 Ry

     iteration # 30     ecut=    30.00 Ry     beta=0.70
     Davidson diagonalization with overlap
     ethr =  7.95E-03,  avg # of iterations =  2.0

     negative rho (up, down):  9.122E-04 0.000E+00

     total cpu time spent up to now is        6.0 secs

     total energy              =       0.65405662 Ry
     Harris-Foulkes estimate   =       0.51253232 Ry
     estimated scf accuracy    <       0.82974616 Ry

     iteration # 31     ecut=    30.00 Ry     beta=0.70
     Davidson diagonalization with overlap
     ethr =  7.95E-03,  avg # of iterations =  2.0

     negative rho (up, down):  5.246E-05 0.000E+00

     total cpu time spent up to now is        6.1 secs

     total energy              =       0.54450121 Ry
     Harris-Foulkes estimate   =       0.46679489 Ry
     estimated scf accuracy    <       0.76495069 Ry

     iteration # 32     ecut=    30.00 Ry     beta=0.70
     Davidson diagonalization with overlap
     ethr =  7.95E-03,  avg # of iterations =  1.0

     negative rho (up, down):  5.749E-07 0.000E+00

     total cpu time spent up to now is        6.1 secs

     total energy              =       0.53689780 Ry
     Harris-Foulkes estimate   =       0.49969444 Ry
     estimated scf accuracy    <       1.03055253 Ry

     iteration # 33     ecut=    30.00 Ry     beta=0.70
     Davidson diagonalization with overlap
     ethr =  7.95E-03,  avg # of iterations =  1.0

     negative rho (up, down):  1.223E-07 0.000E+00

     total cpu time spent up to now is        6.2 secs

     total energy              =       0.52402749 Ry
     Harris-Foulkes estimate   =       0.50988002 Ry
     estimated scf accuracy    <       0.16955269 Ry

     iteration # 34     ecut=    30.00 Ry     beta=0.70
     Davidson diagonalization with overlap
     ethr =  2.12E-03,  avg # of iterations =  1.0

     negative rho (up, down):  1.574E-06 0.000E+00

     total cpu time spent up to now is        6.2 secs

     total energy              =       0.52350188 Ry
     Harris-Foulkes estimate   =       0.50027303 Ry
     estimated scf accuracy    <       0.99296242 Ry

     iteration # 35     ecut=    30.00 Ry     beta=0.70
     Davidson diagonalization with overlap
     ethr =  2.12E-03,  avg # of iterations =  1.0

     negative rho (up, down):  1.594E-07 0.000E+00

     total cpu time spent up to now is        6.3 secs

     total energy              =       0.51209747 Ry
     Harris-Foulkes estimate   =       0.51213113 Ry
     estimated scf accuracy    <       0.00042149 Ry

     iteration # 36     ecut=    30.00 Ry     beta=0.70
     Davidson diagonalization with overlap
     ethr =  5.27E-06,  avg # of iterations =  5.0

     negative rho (up, down):  4.436E-08 0.000E+00

     total cpu time spent up to now is        6.3 secs

     total energy              =       0.51256621 Ry
     Harris-Foulkes estimate   =       0.51198490 Ry
     estimated scf accuracy    <       0.00691894 Ry

     iteration # 37     ecut=    30.00 Ry     beta=0.70
     Davidson diagonalization with overlap
     ethr =  5.27E-06,  avg # of iterations =  1.0

     total cpu time spent up to now is        6.4 secs

     total energy              =       0.51648137 Ry
     Harris-Foulkes estimate   =       0.51139322 Ry
     estimated scf accuracy    <       0.05429245 Ry

     iteration # 38     ecut=    30.00 Ry     beta=0.70
     Davidson diagonalization with overlap
     ethr =  5.27E-06,  avg # of iterations =  2.0

     total cpu time spent up to now is        6.4 secs

     total energy              =       0.51933132 Ry
     Harris-Foulkes estimate   =       0.50681250 Ry
     estimated scf accuracy    <       0.30891120 Ry

     iteration # 39     ecut=    30.00 Ry     beta=0.70
     Davidson diagonalization with overlap
     ethr =  5.27E-06,  avg # of iterations =  2.0

     total cpu time spent up to now is        6.5 secs

     total energy              =       0.51168199 Ry
     Harris-Foulkes estimate   =       0.51123964 Ry
     estimated scf accuracy    <       0.05693534 Ry

     iteration # 40     ecut=    30.00 Ry     beta=0.70
     Davidson diagonalization with overlap
     ethr =  5.27E-06,  avg # of iterations =  1.0

     total cpu time spent up to now is        6.5 secs

     total energy              =       0.51216881 Ry
     Harris-Foulkes estimate   =       0.51160263 Ry
     estimated scf accuracy    <       0.02466600 Ry

     iteration # 41     ecut=    30.00 Ry     beta=0.70
     Davidson diagonalization with overlap
     ethr =  5.27E-06,  avg # of iterations =  1.0

     total cpu time spent up to now is        6.5 secs

     total energy              =       0.51189719 Ry
     Harris-Foulkes estimate   =       0.51189718 Ry
     estimated scf accuracy    <       0.00005467 Ry

     iteration # 42     ecut=    30.00 Ry     beta=0.70
     Davidson diagonalization with overlap
     ethr =  6.83E-07,  avg # of iterations =  1.0

     total cpu time spent up to now is        6.6 secs

     total energy              =       0.51189775 Ry
     Harris-Foulkes estimate   =       0.51189709 Ry
     estimated scf accuracy    <       0.00003411 Ry

     iteration # 43     ecut=    30.00 Ry     beta=0.70
     Davidson diagonalization with overlap
     ethr =  4.26E-07,  avg # of iterations =  1.0

     total cpu time spent up to now is        6.6 secs

     total energy              =       0.51189753 Ry
     Harris-Foulkes estimate   =       0.51189748 Ry
     estimated scf accuracy    <       0.00000156 Ry

     iteration # 44     ecut=    30.00 Ry     beta=0.70
     Davidson diagonalization with overlap
     ethr =  1.95E-08,  avg # of iterations =  1.0

     total cpu time spent up to now is        6.6 secs

     total energy              =       0.51189752 Ry
     Harris-Foulkes estimate   =       0.51189749 Ry
     estimated scf accuracy    <       0.00000019 Ry

     iteration # 45     ecut=    30.00 Ry     beta=0.70
     Davidson diagonalization with overlap
     ethr =  2.37E-09,  avg # of iterations =  1.0

     total cpu time spent up to now is        6.7 secs

     total energy              =       0.51189752 Ry
     Harris-Foulkes estimate   =       0.51189752 Ry
     estimated scf accuracy    <       0.00000002 Ry

     iteration # 46     ecut=    30.00 Ry     beta=0.70
     Davidson diagonalization with overlap
     ethr =  2.21E-10,  avg # of iterations =  1.0

     total cpu time spent up to now is        6.7 secs

     End of self-consistent calculation

          k = 0.0000 0.0000 0.0000 ( 22119 PWs)   bands (ev):

   -28.3156  -9.2621  -8.1867  -8.1843  -7.9984  -0.2789   0.5331   0.6919

     the Fermi energy is    -7.9989 ev

!    total energy              =       0.51189752 Ry
     Harris-Foulkes estimate   =       0.51189752 Ry
     estimated scf accuracy    <          8.8E-11 Ry

     convergence has been achieved in  46 iterations

     Forces acting on atoms (Ry/au):

     atom    1 type  1   force =    -0.00038067    0.00084135   -0.00180324
     atom    2 type  1   force =   -66.29327562  -21.82915692  155.47160147
     atom    3 type  2   force =    66.29365629   21.82831557 -155.46979823

     Total force =   241.008116     Total SCF correction =     0.000005

     Entering Dynamics:    iteration =     4
                           time      =   0.0194 pico-seconds


     Andersen thermostat:    3 collisions

ATOMIC_POSITIONS (bohr)
H       10.630581963   0.439531560  10.882167125
H     -714.635772240-230.8127587501695.400161105
O       51.315683441  21.563777231-100.668791567


     kinetic energy (Ekin) = 41962.49332536 Ry
     temperature           = ************** K 
     Ekin + Etot (const)   = 41963.00522288 Ry
     Message from routine dynamics:
     Total linear momentum <> 0

     Linear momentum :   -0.1123697029   -0.2144761440   -0.0140028858

     Writing output data file pwscf.save

     second order wave-functions extrapolation
     Check: negative starting charge=   -0.351397
     second order charge density extrapolation
     Check: negative starting charge=   -0.346601

     negative rho (up, down):  1.103E+03 0.000E+00

     total cpu time spent up to now is        7.0 secs

     per-process dynamical memory:    20.4 Mb

     Self-consistent Calculation

     iteration #  1     ecut=    30.00 Ry     beta=0.70
     Davidson diagonalization with overlap
     ethr =  1.00E-06,  avg # of iterations = 40.0

     negative rho (up, down):  3.299E+02 0.000E+00

     total cpu time spent up to now is        7.2 secs

     total energy              =  -34024.94240664 Ry
     Harris-Foulkes estimate   = -873439.94418580 Ry
     estimated scf accuracy    <  338080.50781927 Ry

     iteration #  2     ecut=    30.00 Ry     beta=0.70
     Davidson diagonalization with overlap
     c_bands:  2 eigenvalues not converged
     ethr =  1.00E-02,  avg # of iterations = 20.0

     negative rho (up, down):  1.685E-02 0.000E+00

     total cpu time spent up to now is        7.3 secs

     total energy              =     159.91835777 Ry
     Harris-Foulkes estimate   = -868898.95051687 Ry
     estimated scf accuracy    <   30537.03889893 Ry

     iteration #  3     ecut=    30.00 Ry     beta=0.70
     Davidson diagonalization with overlap
     ethr =  1.00E-02,  avg # of iterations = 12.0

     negative rho (up, down):  1.207E-01 0.000E+00

     total cpu time spent up to now is        7.3 secs

     total energy              =     -55.89318040 Ry
     Harris-Foulkes estimate   =     -94.83365370 Ry
     estimated scf accuracy    <      88.40164935 Ry

     iteration #  4     ecut=    30.00 Ry     beta=0.70
     Davidson diagonalization with overlap
     ethr =  1.00E-02,  avg # of iterations = 12.0

     negative rho (up, down):  8.090E-01 0.000E+00

     total cpu time spent up to now is        7.4 secs

     total energy              =      32.31807339 Ry
     Harris-Foulkes estimate   =     -93.68560194 Ry
     estimated scf accuracy    <      25.45205249 Ry

     iteration #  5     ecut=    30.00 Ry     beta=0.70
     Davidson diagonalization with overlap
     ethr =  1.00E-02,  avg # of iterations = 14.0

     negative rho (up, down):  4.288E-01 0.000E+00

     total cpu time spent up to now is        7.5 secs

     total energy              =     120.49960105 Ry
     Harris-Foulkes estimate   =    -197.26590534 Ry
     estimated scf accuracy    <      36.48635675 Ry

     iteration #  6     ecut=    30.00 Ry     beta=0.70
     Davidson diagonalization with overlap
     ethr =  1.00E-02,  avg # of iterations = 10.0

     negative rho (up, down):  2.805E-01 0.000E+00

     total cpu time spent up to now is        7.5 secs

     total energy              =      62.24986551 Ry
     Harris-Foulkes estimate   =    -162.05874666 Ry
     estimated scf accuracy    <      22.07280561 Ry

     iteration #  7     ecut=    30.00 Ry     beta=0.70
     Davidson diagonalization with overlap
     ethr =  1.00E-02,  avg # of iterations =  7.0

     negative rho (up, down):  2.261E-01 0.000E+00

     total cpu time spent up to now is        7.6 secs

     total energy              =     150.31005252 Ry
     Harris-Foulkes estimate   =    -299.75987267 Ry
     estimated scf accuracy    <      51.88235506 Ry

     iteration #  8     ecut=    30.00 Ry     beta=0.70
     Davidson diagonalization with overlap
     ethr =  1.00E-02,  avg # of iterations =  7.0

     negative rho (up, down):  1.475E-01 0.000E+00

     total cpu time spent up to now is        7.6 secs

     total energy              =      14.30476498 Ry
     Harris-Foulkes estimate   =    -104.22286007 Ry
     estimated scf accuracy    <      24.13176343 Ry

     iteration #  9     ecut=    30.00 Ry     beta=0.70
     Davidson diagonalization with overlap
     ethr =  1.00E-02,  avg # of iterations =  5.0

     negative rho (up, down):  5.082E-01 0.000E+00

     total cpu time spent up to now is        7.7 secs

     total energy              =      18.86556789 Ry
     Harris-Foulkes estimate   =    -518.64649421 Ry
     estimated scf accuracy    <      18.58742421 Ry

     iteration # 10     ecut=    30.00 Ry     beta=0.70
     Davidson diagonalization with overlap
     ethr =  1.00E-02,  avg # of iterations =  7.0

     negative rho (up, down):  8.026E-01 0.000E+00

     total cpu time spent up to now is        7.7 secs

     total energy              =      46.74534142 Ry
     Harris-Foulkes estimate   =    -349.98363668 Ry
     estimated scf accuracy    <      39.94735456 Ry

     iteration # 11     ecut=    30.00 Ry     beta=0.70
     Davidson diagonalization with overlap
     ethr =  1.00E-02,  avg # of iterations =  9.0

     negative rho (up, down):  9.442E-01 0.000E+00

     total cpu time spent up to now is        7.8 secs

     total energy              =     -97.50849470 Ry
     Harris-Foulkes estimate   =   -1642.30720501 Ry
     estimated scf accuracy    <      45.18641593 Ry

     iteration # 12     ecut=    30.00 Ry     beta=0.70
     Davidson diagonalization with overlap
     ethr =  1.00E-02,  avg # of iterations =  7.0

     negative rho (up, down):  1.063E+00 0.000E+00

     total cpu time spent up to now is        7.8 secs

     total energy              =     108.97692606 Ry
     Harris-Foulkes estimate   =   -2832.34602210 Ry
     estimated scf accuracy    <      37.67338448 Ry

     iteration # 13     ecut=    30.00 Ry     beta=0.70
     Davidson diagonalization with overlap
     ethr =  1.00E-02,  avg # of iterations = 12.0

     negative rho (up, down):  1.055E+00 0.000E+00

     total cpu time spent up to now is        7.9 secs

     total energy              =     -28.63216549 Ry
     Harris-Foulkes estimate   =     -90.48675494 Ry
     estimated scf accuracy    <      18.61201938 Ry

     iteration # 14     ecut=    30.00 Ry     beta=0.70
     Davidson diagonalization with overlap
     ethr =  1.00E-02,  avg # of iterations =  6.0

     negative rho (up, down):  1.186E+00 0.000E+00

     total cpu time spent up to now is        8.0 secs

     total energy              =     -95.47467821 Ry
     Harris-Foulkes estimate   =    -280.85838055 Ry
     estimated scf accuracy    <      35.21596676 Ry

     iteration # 15     ecut=    30.00 Ry     beta=0.70
     Davidson diagonalization with overlap
     ethr =  1.00E-02,  avg # of iterations =  6.0

     negative rho (up, down):  1.378E+00 0.000E+00

     total cpu time spent up to now is        8.0 secs

     total energy              =      44.66762014 Ry
     Harris-Foulkes estimate   =    -514.08230632 Ry
     estimated scf accuracy    <      42.25573857 Ry

     iteration # 16     ecut=    30.00 Ry     beta=0.70
     Davidson diagonalization with overlap
     ethr =  1.00E-02,  avg # of iterations =  8.0

     negative rho (up, down):  1.219E-01 0.000E+00

     total cpu time spent up to now is        8.1 secs

     total energy              =   -1200.87132013 Ry
     Harris-Foulkes estimate   =   -4283.22726614 Ry
     estimated scf accuracy    <      43.78078698 Ry

     iteration # 17     ecut=    30.00 Ry     beta=0.70
     Davidson diagonalization with overlap
     ethr =  1.00E-02,  avg # of iterations =  8.0

     negative rho (up, down):  4.119E-01 0.000E+00

     total cpu time spent up to now is        8.1 secs

     total energy              =    -591.10873226 Ry
     Harris-Foulkes estimate   =   -5881.16906974 Ry
     estimated scf accuracy    <      28.57838740 Ry

     iteration # 18     ecut=    30.00 Ry     beta=0.70
     Davidson diagonalization with overlap
     ethr =  1.00E-02,  avg # of iterations =  8.0

     negative rho (up, down):  7.378E-01 0.000E+00

     total cpu time spent up to now is        8.2 secs

     total energy              =      20.33598385 Ry
     Harris-Foulkes estimate   =   -4641.09657813 Ry
     estimated scf accuracy    <      38.20677186 Ry

     iteration # 19     ecut=    30.00 Ry     beta=0.70
     Davidson diagonalization with overlap
     ethr =  1.00E-02,  avg # of iterations =  9.0

     negative rho (up, down):  3.721E-01 0.000E+00

     total cpu time spent up to now is        8.2 secs

     total energy              =     135.76164656 Ry
     Harris-Foulkes estimate   =   -3904.26833319 Ry
     estimated scf accuracy    <      41.21988930 Ry

     iteration # 20     ecut=    30.00 Ry     beta=0.70
     Davidson diagonalization with overlap
     ethr =  1.00E-02,  avg # of iterations =  6.0

     negative rho (up, down):  5.726E-01 0.000E+00

     total cpu time spent up to now is        8.3 secs

     total energy              =    -598.39769096 Ry
     Harris-Foulkes estimate   =    -753.10047488 Ry
     estimated scf accuracy    <      31.40290427 Ry

     iteration # 21     ecut=    30.00 Ry     beta=0.70
     Davidson diagonalization with overlap
     ethr =  1.00E-02,  avg # of iterations = 11.0

     negative rho (up, down):  8.112E-01 0.000E+00

     total cpu time spent up to now is        8.3 secs

     total energy              =    -801.27599331 Ry
     Harris-Foulkes estimate   =   -4756.38475999 Ry
     estimated scf accuracy    <      31.12110850 Ry

     iteration # 22     ecut=    30.00 Ry     beta=0.70
     Davidson diagonalization with overlap
     ethr =  1.00E-02,  avg # of iterations =  7.0

     negative rho (up, down):  7.766E-01 0.000E+00

     total cpu time spent up to now is        8.4 secs

     total energy              =      58.52463949 Ry
     Harris-Foulkes estimate   =   -5837.38344930 Ry
     estimated scf accuracy    <      26.41632589 Ry

     iteration # 23     ecut=    30.00 Ry     beta=0.70
     Davidson diagonalization with overlap
     ethr =  1.00E-02,  avg # of iterations =  8.0

     negative rho (up, down):  5.470E-01 0.000E+00

     total cpu time spent up to now is        8.5 secs

     total energy              =     100.75757466 Ry
     Harris-Foulkes estimate   =   -1783.09853344 Ry
[...]

     total energy              =      11.61495386 Ry
     Harris-Foulkes estimate   =    -171.02952271 Ry
     estimated scf accuracy    <      16.56360940 Ry

     iteration # 59     ecut=    30.00 Ry     beta=0.70
     Davidson diagonalization with overlap
     ethr =  1.00E-02,  avg # of iterations =  5.0

     negative rho (up, down):  1.668E-03 0.000E+00

     total cpu time spent up to now is       10.4 secs

     total energy              =     -33.88985184 Ry
     Harris-Foulkes estimate   =     -35.35666876 Ry
     estimated scf accuracy    <      18.64494118 Ry

     iteration # 60     ecut=    30.00 Ry     beta=0.70
     Davidson diagonalization with overlap
     ethr =  1.00E-02,  avg # of iterations =  3.0

     negative rho (up, down):  4.212E-01 0.000E+00

     total cpu time spent up to now is       10.5 secs

     total energy              =     -35.73148968 Ry
     Harris-Foulkes estimate   =     -34.13674997 Ry
     estimated scf accuracy    <       9.66905813 Ry

     iteration # 61     ecut=    30.00 Ry     beta=0.70
     Davidson diagonalization with overlap
     ethr =  1.00E-02,  avg # of iterations =  4.0

     negative rho (up, down):  7.051E-01 0.000E+00

     total cpu time spent up to now is       10.5 secs

     total energy              =    -374.74504784 Ry
     Harris-Foulkes estimate   =    -139.36661064 Ry
     estimated scf accuracy    <      14.24875026 Ry

     iteration # 62     ecut=    30.00 Ry     beta=0.70
     Davidson diagonalization with overlap
     ethr =  1.00E-02,  avg # of iterations =  5.0

     negative rho (up, down):  5.944E-01 0.000E+00

     total cpu time spent up to now is       10.5 secs

     total energy              =      59.00306622 Ry
     Harris-Foulkes estimate   =    -877.30085057 Ry
     estimated scf accuracy    <      38.47187137 Ry

     iteration # 63     ecut=    30.00 Ry     beta=0.70
     Davidson diagonalization with overlap
     ethr =  1.00E-02,  avg # of iterations =  7.0

     negative rho (up, down):  6.728E-01 0.000E+00

     total cpu time spent up to now is       10.6 secs

     total energy              =     -12.13571011 Ry
     Harris-Foulkes estimate   =    -202.37592270 Ry
     estimated scf accuracy    <       8.47340447 Ry

     iteration # 64     ecut=    30.00 Ry     beta=0.70
     Davidson diagonalization with overlap
     ethr =  1.00E-02,  avg # of iterations =  4.0

     negative rho (up, down):  4.310E-01 0.000E+00

     total cpu time spent up to now is       10.6 secs

     total energy              =      29.71730986 Ry
     Harris-Foulkes estimate   =    -295.35058726 Ry
     estimated scf accuracy    <      20.33206749 Ry

     iteration # 65     ecut=    30.00 Ry     beta=0.70
     Davidson diagonalization with overlap
     ethr =  1.00E-02,  avg # of iterations =  5.0

     negative rho (up, down):  7.943E-02 0.000E+00

     total cpu time spent up to now is       10.7 secs

     total energy              =    -357.24225422 Ry
     Harris-Foulkes estimate   =     -59.57578168 Ry
     estimated scf accuracy    <       8.64961759 Ry

     iteration # 66     ecut=    30.00 Ry     beta=0.70
     Davidson diagonalization with overlap
     ethr =  1.00E-02,  avg # of iterations =  4.0

     negative rho (up, down):  6.505E-02 0.000E+00

     total cpu time spent up to now is       10.7 secs

     total energy              =      21.51391699 Ry
     Harris-Foulkes estimate   =   -1866.33999714 Ry
     estimated scf accuracy    <      16.50697489 Ry

     iteration # 67     ecut=    30.00 Ry     beta=0.70
     Davidson diagonalization with overlap
     ethr =  1.00E-02,  avg # of iterations =  4.0

     negative rho (up, down):  5.045E-02 0.000E+00

     total cpu time spent up to now is       10.8 secs

     total energy              =     -26.66940510 Ry
     Harris-Foulkes estimate   =     -41.54579716 Ry
     estimated scf accuracy    <       7.33044182 Ry

     iteration # 68     ecut=    30.00 Ry     beta=0.70
     Davidson diagonalization with overlap
     ethr =  1.00E-02,  avg # of iterations =  4.0

     negative rho (up, down):  6.165E-02 0.000E+00

     total cpu time spent up to now is       10.8 secs

     total energy              =       0.22829982 Ry
     Harris-Foulkes estimate   =    -160.32150328 Ry
     estimated scf accuracy    <       8.17910580 Ry

     iteration # 69     ecut=    30.00 Ry     beta=0.70
     Davidson diagonalization with overlap
     ethr =  1.00E-02,  avg # of iterations =  4.0

     negative rho (up, down):  1.258E-01 0.000E+00

     total cpu time spent up to now is       10.9 secs

     total energy              =     -39.34190715 Ry
     Harris-Foulkes estimate   =     -38.70148218 Ry
     estimated scf accuracy    <       6.55962977 Ry

     iteration # 70     ecut=    30.00 Ry     beta=0.70
     Davidson diagonalization with overlap
     ethr =  1.00E-02,  avg # of iterations =  6.0

     negative rho (up, down):  1.510E-01 0.000E+00

     total cpu time spent up to now is       10.9 secs

     total energy              =      68.89105086 Ry
     Harris-Foulkes estimate   =    -506.20168194 Ry
     estimated scf accuracy    <      27.96220905 Ry

     iteration # 71     ecut=    30.00 Ry     beta=0.70
     Davidson diagonalization with overlap
     ethr =  1.00E-02,  avg # of iterations =  7.0

     negative rho (up, down):  2.394E-01 0.000E+00

     total cpu time spent up to now is       11.0 secs

     total energy              =    -294.29032721 Ry
     Harris-Foulkes estimate   =    -117.49000357 Ry
     estimated scf accuracy    <       8.36439452 Ry

     iteration # 72     ecut=    30.00 Ry     beta=0.70
     Davidson diagonalization with overlap
     ethr =  1.00E-02,  avg # of iterations =  6.0

     negative rho (up, down):  2.745E-01 0.000E+00

     total cpu time spent up to now is       11.0 secs

     total energy              =    -720.87133575 Ry
     Harris-Foulkes estimate   =   -1987.87554859 Ry
     estimated scf accuracy    <      23.41463958 Ry

     iteration # 73     ecut=    30.00 Ry     beta=0.70
     Davidson diagonalization with overlap
     ethr =  1.00E-02,  avg # of iterations =  4.0

     negative rho (up, down):  2.562E-01 0.000E+00

     total cpu time spent up to now is       11.0 secs

     total energy              =    -620.84143176 Ry
     Harris-Foulkes estimate   =   -1620.75872002 Ry
     estimated scf accuracy    <      24.15069501 Ry

     iteration # 74     ecut=    30.00 Ry     beta=0.70
     Davidson diagonalization with overlap
     ethr =  1.00E-02,  avg # of iterations =  5.0

     negative rho (up, down):  2.724E-01 0.000E+00

     total cpu time spent up to now is       11.1 secs

     total energy              =    -436.79198137 Ry
     Harris-Foulkes estimate   =   -1886.35343728 Ry
     estimated scf accuracy    <      26.99965634 Ry

     iteration # 75     ecut=    30.00 Ry     beta=0.70
     Davidson diagonalization with overlap
     ethr =  1.00E-02,  avg # of iterations =  4.0

     negative rho (up, down):  1.992E-01 0.000E+00

     total cpu time spent up to now is       11.1 secs

     total energy              =      88.24265402 Ry
     Harris-Foulkes estimate   =   -2605.58671631 Ry
     estimated scf accuracy    <      29.13891819 Ry

     iteration # 76     ecut=    30.00 Ry     beta=0.70
     Davidson diagonalization with overlap
     ethr =  1.00E-02,  avg # of iterations =  5.0

     negative rho (up, down):  3.466E-01 0.000E+00

     total cpu time spent up to now is       11.2 secs

     total energy              =    -104.68377158 Ry
     Harris-Foulkes estimate   =    -164.62685367 Ry
     estimated scf accuracy    <      28.68157861 Ry

     iteration # 77     ecut=    30.00 Ry     beta=0.70
     Davidson diagonalization with overlap
     ethr =  1.00E-02,  avg # of iterations =  6.0

     negative rho (up, down):  4.154E-01 0.000E+00

     total cpu time spent up to now is       11.2 secs

     total energy              =      73.75646194 Ry
     Harris-Foulkes estimate   =   -2386.68225761 Ry
     estimated scf accuracy    <      24.90811303 Ry

     iteration # 78     ecut=    30.00 Ry     beta=0.70
     Davidson diagonalization with overlap
     ethr =  1.00E-02,  avg # of iterations =  7.0

     negative rho (up, down):  2.899E-01 0.000E+00

     total cpu time spent up to now is       11.3 secs

     total energy              =      31.89239641 Ry
     Harris-Foulkes estimate   =    -468.32476163 Ry
     estimated scf accuracy    <      33.08702020 Ry

     iteration # 79     ecut=    30.00 Ry     beta=0.70
     Davidson diagonalization with overlap
     ethr =  1.00E-02,  avg # of iterations =  9.0

     negative rho (up, down):  4.353E-01 0.000E+00

     total cpu time spent up to now is       11.3 secs

     total energy              =   -3624.25206410 Ry
     Harris-Foulkes estimate   =    -535.11207428 Ry
     estimated scf accuracy    <      29.30105127 Ry

     iteration # 80     ecut=    30.00 Ry     beta=0.70
     Davidson diagonalization with overlap
     ethr =  1.00E-02,  avg # of iterations =  6.0

     negative rho (up, down):  9.172E-01 0.000E+00

     total cpu time spent up to now is       11.4 secs

     total energy              =   -2324.03586758 Ry
     Harris-Foulkes estimate   =  -10665.59874181 Ry
     estimated scf accuracy    <      24.10035161 Ry

     iteration # 81     ecut=    30.00 Ry     beta=0.70
     Davidson diagonalization with overlap
     ethr =  1.00E-02,  avg # of iterations = 10.0

     negative rho (up, down):  1.017E+00 0.000E+00

     total cpu time spent up to now is       11.5 secs

     total energy              =      69.02245178 Ry
     Harris-Foulkes estimate   =   -7844.80224986 Ry
     estimated scf accuracy    <      26.49738935 Ry

     iteration # 82     ecut=    30.00 Ry     beta=0.70
     Davidson diagonalization with overlap
     ethr =  1.00E-02,  avg # of iterations =  8.0

     negative rho (up, down):  9.950E-01 0.000E+00

     total cpu time spent up to now is       11.5 secs

     total energy              =      59.28846145 Ry
     Harris-Foulkes estimate   =    -351.47167633 Ry
     estimated scf accuracy    <      23.73302910 Ry

     iteration # 83     ecut=    30.00 Ry     beta=0.70
     Davidson diagonalization with overlap
     ethr =  1.00E-02,  avg # of iterations = 10.0

     negative rho (up, down):  7.509E-02 0.000E+00

     total cpu time spent up to now is       11.6 secs

     total energy              =    -253.09739079 Ry
     Harris-Foulkes estimate   =    -110.91219942 Ry
     estimated scf accuracy    <      12.85608787 Ry

     iteration # 84     ecut=    30.00 Ry     beta=0.70
     Davidson diagonalization with overlap
     ethr =  1.00E-02,  avg # of iterations =  7.0

     negative rho (up, down):  8.500E-03 0.000E+00

     total cpu time spent up to now is       11.6 secs

     total energy              =      81.30503118 Ry
     Harris-Foulkes estimate   =   -4285.91657167 Ry
     estimated scf accuracy    <      17.73544145 Ry

     iteration # 85     ecut=    30.00 Ry     beta=0.70
     Davidson diagonalization with overlap
     ethr =  1.00E-02,  avg # of iterations =  5.0

     negative rho (up, down):  1.263E-06 0.000E+00

     total cpu time spent up to now is       11.7 secs

     total energy              =     -38.72478168 Ry
     Harris-Foulkes estimate   =     -48.08815911 Ry
     estimated scf accuracy    <      26.61504881 Ry

     iteration # 86     ecut=    30.00 Ry     beta=0.70
     Davidson diagonalization with overlap
     ethr =  1.00E-02,  avg # of iterations =  4.0

     negative rho (up, down):  3.572E-07 0.000E+00

     total cpu time spent up to now is       11.7 secs

     total energy              =     -37.43207565 Ry
     Harris-Foulkes estimate   =     -40.02787708 Ry
     estimated scf accuracy    <      13.93839601 Ry

     iteration # 87     ecut=    30.00 Ry     beta=0.70
     Davidson diagonalization with overlap
     ethr =  1.00E-02,  avg # of iterations =  2.0

     negative rho (up, down):  1.249E-02 0.000E+00

     total cpu time spent up to now is       11.7 secs

     total energy              =     -33.53909340 Ry
     Harris-Foulkes estimate   =     -37.61414929 Ry
     estimated scf accuracy    <      12.12881174 Ry

     iteration # 88     ecut=    30.00 Ry     beta=0.70
     Davidson diagonalization with overlap
     ethr =  1.00E-02,  avg # of iterations =  5.0

     negative rho (up, down):  3.328E-02 0.000E+00

     total cpu time spent up to now is       11.8 secs

     total energy              =     -11.61795327 Ry
     Harris-Foulkes estimate   =     -46.43367102 Ry
     estimated scf accuracy    <       8.23574707 Ry

     iteration # 89     ecut=    30.00 Ry     beta=0.70
     Davidson diagonalization with overlap
     ethr =  1.00E-02,  avg # of iterations =  7.0

     negative rho (up, down):  2.288E-02 0.000E+00

     total cpu time spent up to now is       11.8 secs

     total energy              =     -69.85135624 Ry
     Harris-Foulkes estimate   =     -71.44697984 Ry
     estimated scf accuracy    <      17.43696709 Ry

     iteration # 90     ecut=    30.00 Ry     beta=0.70
     Davidson diagonalization with overlap
     ethr =  1.00E-02,  avg # of iterations =  5.0

     negative rho (up, down):  4.767E-02 0.000E+00

     total cpu time spent up to now is       11.9 secs

     total energy              =    -160.19049250 Ry
     Harris-Foulkes estimate   =   -3562.43920988 Ry
     estimated scf accuracy    <      25.65002025 Ry

     iteration # 91     ecut=    30.00 Ry     beta=0.70
     Davidson diagonalization with overlap
     ethr =  1.00E-02,  avg # of iterations =  5.0

     negative rho (up, down):  2.267E-03 0.000E+00

     total cpu time spent up to now is       11.9 secs

     total energy              =      67.89210618 Ry
     Harris-Foulkes estimate   =    -673.82316939 Ry
     estimated scf accuracy    <      20.06842335 Ry

     iteration # 92     ecut=    30.00 Ry     beta=0.70
     Davidson diagonalization with overlap
     ethr =  1.00E-02,  avg # of iterations =  6.0

     negative rho (up, down):  7.002E-03 0.000E+00

     total cpu time spent up to now is       12.0 secs

     total energy              =     -32.68362160 Ry
     Harris-Foulkes estimate   =     -34.22570110 Ry
     estimated scf accuracy    <       4.86434435 Ry

     iteration # 93     ecut=    30.00 Ry     beta=0.70
     Davidson diagonalization with overlap
     ethr =  1.00E-02,  avg # of iterations =  5.0

     total cpu time spent up to now is       12.0 secs

     total energy              =      -6.96144055 Ry
     Harris-Foulkes estimate   =     -75.23220420 Ry
     estimated scf accuracy    <       8.12380426 Ry

     iteration # 94     ecut=    30.00 Ry     beta=0.70
     Davidson diagonalization with overlap
     ethr =  1.00E-02,  avg # of iterations =  5.0

     negative rho (up, down):  1.536E-07 0.000E+00

     total cpu time spent up to now is       12.1 secs

     total energy              =     -32.11579739 Ry
     Harris-Foulkes estimate   =     -33.14617619 Ry
     estimated scf accuracy    <       4.20233497 Ry

     iteration # 95     ecut=    30.00 Ry     beta=0.70
     Davidson diagonalization with overlap
     ethr =  1.00E-02,  avg # of iterations =  1.0

     negative rho (up, down):  1.426E-03 0.000E+00

     total cpu time spent up to now is       12.1 secs

     total energy              =     -31.98549413 Ry
     Harris-Foulkes estimate   =     -32.30776273 Ry
     estimated scf accuracy    <       2.91137934 Ry

     iteration # 96     ecut=    30.00 Ry     beta=0.70
     Davidson diagonalization with overlap
     ethr =  1.00E-02,  avg # of iterations =  1.0

     negative rho (up, down):  4.251E-03 0.000E+00

     total cpu time spent up to now is       12.1 secs

     total energy              =     -32.07113107 Ry
     Harris-Foulkes estimate   =     -32.33003946 Ry
     estimated scf accuracy    <       4.51750583 Ry

     iteration # 97     ecut=    30.00 Ry     beta=0.70
     Davidson diagonalization with overlap
     ethr =  1.00E-02,  avg # of iterations =  3.0

     negative rho (up, down):  1.439E-04 0.000E+00

     total cpu time spent up to now is       12.2 secs

     total energy              =     -28.96801443 Ry
     Harris-Foulkes estimate   =     -33.41904292 Ry
     estimated scf accuracy    <       2.89964080 Ry

     iteration # 98     ecut=    30.00 Ry     beta=0.70
     Davidson diagonalization with overlap
     ethr =  1.00E-02,  avg # of iterations =  3.0

     negative rho (up, down):  4.897E-04 0.000E+00

     total cpu time spent up to now is       12.2 secs

     total energy              =     -31.84327630 Ry
     Harris-Foulkes estimate   =     -32.20340909 Ry
     estimated scf accuracy    <       2.40284133 Ry

     iteration # 99     ecut=    30.00 Ry     beta=0.70
     Davidson diagonalization with overlap
     ethr =  1.00E-02,  avg # of iterations =  1.0

     negative rho (up, down):  9.202E-05 0.000E+00

     total cpu time spent up to now is       12.3 secs

     total energy              =     -31.79036434 Ry
     Harris-Foulkes estimate   =     -31.87766552 Ry
     estimated scf accuracy    <       0.95175329 Ry

     iteration #100     ecut=    30.00 Ry     beta=0.70
     Davidson diagonalization with overlap
     ethr =  1.00E-02,  avg # of iterations =  1.0

     negative rho (up, down):  8.268E-02 0.000E+00

     total cpu time spent up to now is       12.3 secs

     total energy              =     -31.77299894 Ry
     Harris-Foulkes estimate   =     -31.81052712 Ry
     estimated scf accuracy    <       1.12700686 Ry

     End of self-consistent calculation

     convergence NOT achieved after 100 iterations: stopping

     Writing output data file pwscf.save
 
     init_run     :      0.09s CPU      0.11s WALL (       1 calls)
     electrons    :      8.87s CPU     11.05s WALL (       5 calls)
     update_pot   :      0.46s CPU      0.71s WALL (       4 calls)
     forces       :      0.10s CPU      0.10s WALL (       4 calls)

     Called by init_run:
     wfcinit      :      0.01s CPU      0.02s WALL (       1 calls)
     potinit      :      0.02s CPU      0.03s WALL (       1 calls)

     Called by electrons:
     c_bands      :      4.43s CPU      4.72s WALL (     247 calls)
     sum_band     :      0.72s CPU      0.76s WALL (     247 calls)
     v_of_rho     :      1.84s CPU      2.00s WALL (     252 calls)
     mix_rho      :      1.65s CPU      2.89s WALL (     247 calls)

     Called by c_bands:
     init_us_2    :      0.02s CPU      0.03s WALL (     495 calls)
     cegterg      :      4.38s CPU      4.59s WALL (     248 calls)

     Called by sum_band:

     Called by *egterg:
     h_psi        :      3.67s CPU      3.84s WALL (    1260 calls)
     g_psi        :      0.04s CPU      0.04s WALL (    1011 calls)
     cdiaghg      :      0.26s CPU      0.27s WALL (    1254 calls)

     Called by h_psi:
     h_psi:pot    :      3.65s CPU      3.82s WALL (    1260 calls)
     h_psi:calbec :      0.10s CPU      0.13s WALL (    1260 calls)
     vloc_psi     :      3.54s CPU      3.68s WALL (    1260 calls)
     add_vuspsi   :      0.01s CPU      0.01s WALL (    1260 calls)

     General routines
     calbec       :      0.12s CPU      0.15s WALL (    1279 calls)
     fft          :      1.23s CPU      1.34s WALL (    2780 calls)
     fftw         :      3.65s CPU      3.80s WALL (   16402 calls)
     davcio       :      0.27s CPU      1.06s WALL (    4508 calls)
 
     Parallel routines
     fft_scatter  :      1.93s CPU      2.13s WALL (   19182 calls)
 
     PWSCF        :     9.71s CPU        12.37s WALL

 
   This run was terminated on:  23:40:47  10Feb2018            

=------------------------------------------------------------------------------=
   JOB DONE.
=------------------------------------------------------------------------------=
