
     Program PWSCF v.6.0 (svn rev. 13079) starts on 11Feb2018 at  0: 3: 5 

     This program is part of the open-source Quantum ESPRESSO suite
     for quantum simulation of materials; please cite
         "P. Giannozzi et al., J. Phys.:Condens. Matter 21 395502 (2009);
          URL http://www.quantum-espresso.org", 
     in publications or presentations arising from this work. More details at
     http://www.quantum-espresso.org/quote

     Parallel version (MPI), running on    28 processors
     R & G space division:  proc/nbgrp/npool/nimage =      28
     Reading input from inputs/water-1-md/126.in

     Current dimensions of program PWSCF are:
     Max number of different atomic species (ntypx) = 10
     Max number of k-points (npk) =  40000
     Max angular momentum in pseudopotentials (lmaxx) =  3

     Subspace diagonalization in iterative solution of the eigenvalue problem:
     a serial algorithm will be used

 
     Parallelization info
     --------------------
     sticks:   dense  smooth     PW     G-vecs:    dense   smooth      PW
     Min         136     136     33                 6338     6338     787
     Max         137     137     34                 6341     6341     792
     Sum        3809    3809    949               177509   177509   22119
 


     bravais-lattice index     =            1
     lattice parameter (alat)  =      20.0000  a.u.
     unit-cell volume          =    8000.0000 (a.u.)^3
     number of atoms/cell      =            3
     number of atomic types    =            2
     number of electrons       =         8.00
     number of Kohn-Sham states=            8
     kinetic-energy cutoff     =      30.0000  Ry
     charge density cutoff     =     120.0000  Ry
     convergence threshold     =      1.0E-08
     mixing beta               =       0.7000
     number of iterations used =            8  plain     mixing
     Exchange-correlation      = BLYP ( 1  3  1  3 0 0)
     nstep                     =         5000


     celldm(1)=  20.000000  celldm(2)=   0.000000  celldm(3)=   0.000000
     celldm(4)=   0.000000  celldm(5)=   0.000000  celldm(6)=   0.000000

     crystal axes: (cart. coord. in units of alat)
               a(1) = (   1.000000   0.000000   0.000000 )  
               a(2) = (   0.000000   1.000000   0.000000 )  
               a(3) = (   0.000000   0.000000   1.000000 )  

     reciprocal axes: (cart. coord. in units 2 pi/alat)
               b(1) = (  1.000000  0.000000  0.000000 )  
               b(2) = (  0.000000  1.000000  0.000000 )  
               b(3) = (  0.000000  0.000000  1.000000 )  


     PseudoPot. # 1 for  H read from file:
     ./H.blyp-hgh.UPF
     MD5 check sum: c576e69559cde411e611be972c763230
     Pseudo is Norm-conserving, Zval =  1.0
     Generated in analytical, separable form
     Using radial grid of  929 points,  0 beta functions with: 

     PseudoPot. # 2 for  O read from file:
     ./O.blyp-hgh.UPF
     MD5 check sum: d0b7156309aa9befef28faac7bc56342
     Pseudo is Norm-conserving, Zval =  6.0
     Generated in analytical, separable form
     Using radial grid of 1095 points,  1 beta functions with: 
                l(1) =   0

     atomic species   valence    mass     pseudopotential
        H              1.00     1.01000      H( 1.00)
        O              6.00    16.00000      O( 1.00)

     No symmetry found



   Cartesian axes

     site n.     atom                  positions (alat units)
         1           H   tau(   1) = (   0.6512080   0.7746748   0.4464153  )
         2           H   tau(   2) = (   0.1970042   0.9368640   0.2510245  )
         3           O   tau(   3) = (   0.7884121   0.0987747   0.5649544  )

     number of k points=     1  Marzari-Vanderbilt smearing, width (Ry)=  0.0250
                       cart. coord. in units 2pi/alat
        k(    1) = (   0.0000000   0.0000000   0.0000000), wk =   2.0000000

     Dense  grid:   177509 G-vectors     FFT dimensions: (  72,  72,  72)

     Estimated max dynamical RAM per process >       6.09Mb

     Estimated total allocated dynamical RAM >     170.64Mb

     Initial potential from superposition of free atoms
     Check: negative starting charge=   -0.344577

     starting charge    7.99998, renormalised to    8.00000

     negative rho (up, down):  3.446E-01 0.000E+00
     Starting wfc are    6 randomized atomic wfcs +    2 random wfc

     total cpu time spent up to now is        0.2 secs

     per-process dynamical memory:    18.8 Mb

     Self-consistent Calculation

     iteration #  1     ecut=    30.00 Ry     beta=0.70
     Davidson diagonalization with overlap
     ethr =  1.00E-02,  avg # of iterations =  7.0

     negative rho (up, down):  8.337E-02 0.000E+00

     total cpu time spent up to now is        0.3 secs

     total energy              =     -28.19320878 Ry
     Harris-Foulkes estimate   =     -32.06822270 Ry
     estimated scf accuracy    <       4.46432526 Ry

     iteration #  2     ecut=    30.00 Ry     beta=0.70
     Davidson diagonalization with overlap
     ethr =  1.00E-02,  avg # of iterations =  4.0

     negative rho (up, down):  6.110E-02 0.000E+00

     total cpu time spent up to now is        0.3 secs

     total energy              =     -32.58294307 Ry
     Harris-Foulkes estimate   =     -37.72496298 Ry
     estimated scf accuracy    <      12.57023111 Ry

     iteration #  3     ecut=    30.00 Ry     beta=0.70
     Davidson diagonalization with overlap
     ethr =  1.00E-02,  avg # of iterations =  4.0

     negative rho (up, down):  6.313E-02 0.000E+00

     total cpu time spent up to now is        0.3 secs

     total energy              =     -33.13096456 Ry
     Harris-Foulkes estimate   =     -32.92140795 Ry
     estimated scf accuracy    <       4.81880285 Ry

     iteration #  4     ecut=    30.00 Ry     beta=0.70
     Davidson diagonalization with overlap
     ethr =  1.00E-02,  avg # of iterations =  1.0

     negative rho (up, down):  2.500E-02 0.000E+00

     total cpu time spent up to now is        0.4 secs

     total energy              =     -30.23446883 Ry
     Harris-Foulkes estimate   =     -33.13160962 Ry
     estimated scf accuracy    <       5.13220302 Ry

     iteration #  5     ecut=    30.00 Ry     beta=0.70
     Davidson diagonalization with overlap
     ethr =  1.00E-02,  avg # of iterations =  5.0

     negative rho (up, down):  2.175E-02 0.000E+00

     total cpu time spent up to now is        0.4 secs

     total energy              =     -33.18964556 Ry
     Harris-Foulkes estimate   =     -33.24947004 Ry
     estimated scf accuracy    <      13.41638657 Ry

     iteration #  6     ecut=    30.00 Ry     beta=0.70
     Davidson diagonalization with overlap
     ethr =  1.00E-02,  avg # of iterations =  1.0

     negative rho (up, down):  7.297E-02 0.000E+00

     total cpu time spent up to now is        0.4 secs

     total energy              =     -32.62867831 Ry
     Harris-Foulkes estimate   =     -33.19411878 Ry
     estimated scf accuracy    <      12.98146565 Ry

     iteration #  7     ecut=    30.00 Ry     beta=0.70
     Davidson diagonalization with overlap
     ethr =  1.00E-02,  avg # of iterations =  1.0

     negative rho (up, down):  9.949E-03 0.000E+00

     total cpu time spent up to now is        0.5 secs

     total energy              =     -32.52576283 Ry
     Harris-Foulkes estimate   =     -32.78449695 Ry
     estimated scf accuracy    <       5.82171724 Ry

     iteration #  8     ecut=    30.00 Ry     beta=0.70
     Davidson diagonalization with overlap
     ethr =  1.00E-02,  avg # of iterations =  1.0

     negative rho (up, down):  2.775E-02 0.000E+00

     total cpu time spent up to now is        0.5 secs

     total energy              =     -31.41927151 Ry
     Harris-Foulkes estimate   =     -32.53081399 Ry
     estimated scf accuracy    <       5.30654772 Ry

     iteration #  9     ecut=    30.00 Ry     beta=0.70
     Davidson diagonalization with overlap
     ethr =  1.00E-02,  avg # of iterations =  2.0

     negative rho (up, down):  2.776E-02 0.000E+00

     total cpu time spent up to now is        0.5 secs

     total energy              =     -31.49001023 Ry
     Harris-Foulkes estimate   =     -31.49004028 Ry
     estimated scf accuracy    <       0.09148717 Ry

     iteration # 10     ecut=    30.00 Ry     beta=0.70
     Davidson diagonalization with overlap
     ethr =  1.14E-03,  avg # of iterations =  1.0

     negative rho (up, down):  3.046E-02 0.000E+00

     total cpu time spent up to now is        0.6 secs

     total energy              =     -31.49333052 Ry
     Harris-Foulkes estimate   =     -31.49242618 Ry
     estimated scf accuracy    <       0.08330021 Ry

     iteration # 11     ecut=    30.00 Ry     beta=0.70
     Davidson diagonalization with overlap
     ethr =  1.04E-03,  avg # of iterations =  1.0

     negative rho (up, down):  3.183E-02 0.000E+00

     total cpu time spent up to now is        0.6 secs

     total energy              =     -31.23236321 Ry
     Harris-Foulkes estimate   =     -31.52939875 Ry
     estimated scf accuracy    <       3.38573931 Ry

     iteration # 12     ecut=    30.00 Ry     beta=0.70
     Davidson diagonalization with overlap
     ethr =  1.04E-03,  avg # of iterations =  1.0

     negative rho (up, down):  1.954E-02 0.000E+00

     total cpu time spent up to now is        0.6 secs

     total energy              =     -31.45178047 Ry
     Harris-Foulkes estimate   =     -31.66472333 Ry
     estimated scf accuracy    <       2.75789196 Ry

     iteration # 13     ecut=    30.00 Ry     beta=0.70
     Davidson diagonalization with overlap
     ethr =  1.04E-03,  avg # of iterations =  1.0

     negative rho (up, down):  1.316E-03 0.000E+00

     total cpu time spent up to now is        0.7 secs

     total energy              =     -31.54046819 Ry
     Harris-Foulkes estimate   =     -31.49285642 Ry
     estimated scf accuracy    <       0.12698986 Ry

     iteration # 14     ecut=    30.00 Ry     beta=0.70
     Davidson diagonalization with overlap
     ethr =  1.04E-03,  avg # of iterations =  1.0

     negative rho (up, down):  3.103E-08 0.000E+00

     total cpu time spent up to now is        0.7 secs

     total energy              =     -31.85993891 Ry
     Harris-Foulkes estimate   =     -31.81534293 Ry
     estimated scf accuracy    <       3.98608696 Ry

     iteration # 15     ecut=    30.00 Ry     beta=0.70
     Davidson diagonalization with overlap
     ethr =  1.04E-03,  avg # of iterations =  1.0

     negative rho (up, down):  2.871E-06 0.000E+00

     total cpu time spent up to now is        0.7 secs

     total energy              =     -31.74799768 Ry
     Harris-Foulkes estimate   =     -31.86012006 Ry
     estimated scf accuracy    <       4.05821392 Ry

     iteration # 16     ecut=    30.00 Ry     beta=0.70
     Davidson diagonalization with overlap
     ethr =  1.04E-03,  avg # of iterations =  1.0

     negative rho (up, down):  7.899E-06 0.000E+00

     total cpu time spent up to now is        0.8 secs

     total energy              =     -31.73977995 Ry
     Harris-Foulkes estimate   =     -31.74834300 Ry
     estimated scf accuracy    <       3.87746334 Ry

     iteration # 17     ecut=    30.00 Ry     beta=0.70
     Davidson diagonalization with overlap
     ethr =  1.04E-03,  avg # of iterations =  1.0

     negative rho (up, down):  2.043E-03 0.000E+00

     total cpu time spent up to now is        0.8 secs

     total energy              =     -31.74965262 Ry
     Harris-Foulkes estimate   =     -31.73981415 Ry
     estimated scf accuracy    <       3.86118581 Ry

     iteration # 18     ecut=    30.00 Ry     beta=0.70
     Davidson diagonalization with overlap
     ethr =  1.04E-03,  avg # of iterations =  1.0

     negative rho (up, down):  1.211E-03 0.000E+00

     total cpu time spent up to now is        0.8 secs

     total energy              =     -31.68371060 Ry
     Harris-Foulkes estimate   =     -31.74969046 Ry
     estimated scf accuracy    <       3.87787277 Ry

     iteration # 19     ecut=    30.00 Ry     beta=0.70
     Davidson diagonalization with overlap
     ethr =  1.04E-03,  avg # of iterations =  1.0

     total cpu time spent up to now is        0.9 secs

     total energy              =     -31.54371497 Ry
     Harris-Foulkes estimate   =     -31.68414155 Ry
     estimated scf accuracy    <       3.75277279 Ry

     iteration # 20     ecut=    30.00 Ry     beta=0.70
     Davidson diagonalization with overlap
     ethr =  1.04E-03,  avg # of iterations =  1.0

     negative rho (up, down):  8.733E-04 0.000E+00

     total cpu time spent up to now is        0.9 secs

     total energy              =     -31.34974686 Ry
     Harris-Foulkes estimate   =     -31.53928030 Ry
     estimated scf accuracy    <       3.39402114 Ry

     iteration # 21     ecut=    30.00 Ry     beta=0.70
     Davidson diagonalization with overlap
     ethr =  1.04E-03,  avg # of iterations =  1.0

     negative rho (up, down):  2.302E-05 0.000E+00

     total cpu time spent up to now is        0.9 secs

     total energy              =     -31.43257655 Ry
     Harris-Foulkes estimate   =     -31.56207208 Ry
     estimated scf accuracy    <       2.55082619 Ry

     iteration # 22     ecut=    30.00 Ry     beta=0.70
     Davidson diagonalization with overlap
     ethr =  1.04E-03,  avg # of iterations =  1.0

     negative rho (up, down):  4.129E-06 0.000E+00

     total cpu time spent up to now is        1.0 secs

     total energy              =     -31.53932778 Ry
     Harris-Foulkes estimate   =     -31.50639122 Ry
     estimated scf accuracy    <       1.13013545 Ry

     iteration # 23     ecut=    30.00 Ry     beta=0.70
     Davidson diagonalization with overlap
     ethr =  1.04E-03,  avg # of iterations =  1.0

     negative rho (up, down):  1.281E-06 0.000E+00

     total cpu time spent up to now is        1.0 secs

     total energy              =     -31.43188756 Ry
     Harris-Foulkes estimate   =     -31.56100479 Ry
     estimated scf accuracy    <       4.19219471 Ry

     iteration # 24     ecut=    30.00 Ry     beta=0.70
     Davidson diagonalization with overlap
     ethr =  1.04E-03,  avg # of iterations =  1.0

     negative rho (up, down):  4.396E-04 0.000E+00

     total cpu time spent up to now is        1.0 secs

     total energy              =     -31.49773461 Ry
     Harris-Foulkes estimate   =     -31.49768287 Ry
     estimated scf accuracy    <       0.27398548 Ry

     iteration # 25     ecut=    30.00 Ry     beta=0.70
     Davidson diagonalization with overlap
     ethr =  1.04E-03,  avg # of iterations =  1.0

     negative rho (up, down):  1.975E-04 0.000E+00

     total cpu time spent up to now is        1.1 secs

     total energy              =     -31.47482069 Ry
     Harris-Foulkes estimate   =     -31.49782550 Ry
     estimated scf accuracy    <       0.30840750 Ry

     iteration # 26     ecut=    30.00 Ry     beta=0.70
     Davidson diagonalization with overlap
     ethr =  1.04E-03,  avg # of iterations =  1.0

     negative rho (up, down):  2.026E-04 0.000E+00

     total cpu time spent up to now is        1.1 secs

     total energy              =     -31.52426862 Ry
     Harris-Foulkes estimate   =     -31.52599390 Ry
     estimated scf accuracy    <       2.82371227 Ry

     iteration # 27     ecut=    30.00 Ry     beta=0.70
     Davidson diagonalization with overlap
     ethr =  1.04E-03,  avg # of iterations =  1.0

     negative rho (up, down):  1.455E-04 0.000E+00

     total cpu time spent up to now is        1.1 secs

     total energy              =     -31.52890469 Ry
     Harris-Foulkes estimate   =     -31.52429232 Ry
     estimated scf accuracy    <       2.70813736 Ry

     iteration # 28     ecut=    30.00 Ry     beta=0.70
     Davidson diagonalization with overlap
     ethr =  1.04E-03,  avg # of iterations =  1.0

     negative rho (up, down):  6.032E-05 0.000E+00

     total cpu time spent up to now is        1.2 secs

     total energy              =     -31.47477898 Ry
     Harris-Foulkes estimate   =     -31.52903696 Ry
     estimated scf accuracy    <       3.01890930 Ry

     iteration # 29     ecut=    30.00 Ry     beta=0.70
     Davidson diagonalization with overlap
     ethr =  1.04E-03,  avg # of iterations =  1.0

     negative rho (up, down):  2.132E-04 0.000E+00

     total cpu time spent up to now is        1.2 secs

     total energy              =     -31.49976520 Ry
     Harris-Foulkes estimate   =     -31.49691895 Ry
     estimated scf accuracy    <       0.24041849 Ry

     iteration # 30     ecut=    30.00 Ry     beta=0.70
     Davidson diagonalization with overlap
     ethr =  1.04E-03,  avg # of iterations =  1.0

     negative rho (up, down):  5.789E-04 0.000E+00

     total cpu time spent up to now is        1.2 secs

     total energy              =     -31.50600267 Ry
     Harris-Foulkes estimate   =     -31.50050742 Ry
     estimated scf accuracy    <       0.51783535 Ry

     iteration # 31     ecut=    30.00 Ry     beta=0.70
     Davidson diagonalization with overlap
     ethr =  1.04E-03,  avg # of iterations =  1.0

     negative rho (up, down):  1.005E-04 0.000E+00

     total cpu time spent up to now is        1.3 secs

     total energy              =     -31.49265176 Ry
     Harris-Foulkes estimate   =     -31.50749081 Ry
     estimated scf accuracy    <       1.05126346 Ry

     iteration # 32     ecut=    30.00 Ry     beta=0.70
     Davidson diagonalization with overlap
     ethr =  1.04E-03,  avg # of iterations =  1.0

     negative rho (up, down):  1.039E-04 0.000E+00

     total cpu time spent up to now is        1.3 secs

     total energy              =     -31.49559150 Ry
     Harris-Foulkes estimate   =     -31.49623206 Ry
     estimated scf accuracy    <       0.23452120 Ry

     iteration # 33     ecut=    30.00 Ry     beta=0.70
     Davidson diagonalization with overlap
     ethr =  1.04E-03,  avg # of iterations =  1.0

     negative rho (up, down):  1.321E-05 0.000E+00

     total cpu time spent up to now is        1.3 secs

     total energy              =     -31.49151853 Ry
     Harris-Foulkes estimate   =     -31.49565480 Ry
     estimated scf accuracy    <       0.20186646 Ry

     iteration # 34     ecut=    30.00 Ry     beta=0.70
     Davidson diagonalization with overlap
     ethr =  1.04E-03,  avg # of iterations =  1.0

     negative rho (up, down):  1.436E-05 0.000E+00

     total cpu time spent up to now is        1.4 secs

     total energy              =     -31.49336396 Ry
     Harris-Foulkes estimate   =     -31.49333707 Ry
     estimated scf accuracy    <       0.00510792 Ry

     iteration # 35     ecut=    30.00 Ry     beta=0.70
     Davidson diagonalization with overlap
     ethr =  6.38E-05,  avg # of iterations =  5.0

     negative rho (up, down):  7.167E-06 0.000E+00

     total cpu time spent up to now is        1.4 secs

     total energy              =     -31.49329505 Ry
     Harris-Foulkes estimate   =     -31.49337277 Ry
     estimated scf accuracy    <       0.00815460 Ry

     iteration # 36     ecut=    30.00 Ry     beta=0.70
     Davidson diagonalization with overlap
     ethr =  6.38E-05,  avg # of iterations =  1.0

     negative rho (up, down):  3.781E-07 0.000E+00

     total cpu time spent up to now is        1.4 secs

     total energy              =     -31.49327362 Ry
     Harris-Foulkes estimate   =     -31.49331460 Ry
     estimated scf accuracy    <       0.00238365 Ry

     iteration # 37     ecut=    30.00 Ry     beta=0.70
     Davidson diagonalization with overlap
     ethr =  2.98E-05,  avg # of iterations =  1.0

     negative rho (up, down):  1.446E-08 0.000E+00

     total cpu time spent up to now is        1.5 secs

     total energy              =     -31.49328857 Ry
     Harris-Foulkes estimate   =     -31.49328862 Ry
     estimated scf accuracy    <       0.00011883 Ry

     iteration # 38     ecut=    30.00 Ry     beta=0.70
     Davidson diagonalization with overlap
     ethr =  1.49E-06,  avg # of iterations =  7.0

     total cpu time spent up to now is        1.5 secs

     total energy              =     -31.49328672 Ry
     Harris-Foulkes estimate   =     -31.49328926 Ry
     estimated scf accuracy    <       0.00024660 Ry

     iteration # 39     ecut=    30.00 Ry     beta=0.70
     Davidson diagonalization with overlap
     ethr =  1.49E-06,  avg # of iterations =  1.0

     total cpu time spent up to now is        1.5 secs

     total energy              =     -31.49328649 Ry
     Harris-Foulkes estimate   =     -31.49328720 Ry
     estimated scf accuracy    <       0.00009093 Ry

     iteration # 40     ecut=    30.00 Ry     beta=0.70
     Davidson diagonalization with overlap
     ethr =  1.14E-06,  avg # of iterations =  1.0

     total cpu time spent up to now is        1.6 secs

     total energy              =     -31.49328512 Ry
     Harris-Foulkes estimate   =     -31.49328654 Ry
     estimated scf accuracy    <       0.00006719 Ry

     iteration # 41     ecut=    30.00 Ry     beta=0.70
     Davidson diagonalization with overlap
     ethr =  8.40E-07,  avg # of iterations =  1.0

     total cpu time spent up to now is        1.6 secs

     total energy              =     -31.49328595 Ry
     Harris-Foulkes estimate   =     -31.49328587 Ry
     estimated scf accuracy    <       0.00000048 Ry

     iteration # 42     ecut=    30.00 Ry     beta=0.70
     Davidson diagonalization with overlap
     ethr =  6.06E-09,  avg # of iterations =  1.0

     total cpu time spent up to now is        1.6 secs

     total energy              =     -31.49328634 Ry
     Harris-Foulkes estimate   =     -31.49328596 Ry
     estimated scf accuracy    <       0.00000033 Ry

     iteration # 43     ecut=    30.00 Ry     beta=0.70
     Davidson diagonalization with overlap
     ethr =  4.12E-09,  avg # of iterations =  1.0

     total cpu time spent up to now is        1.7 secs

     total energy              =     -31.49328642 Ry
     Harris-Foulkes estimate   =     -31.49328635 Ry
     estimated scf accuracy    <       0.00000008 Ry

     iteration # 44     ecut=    30.00 Ry     beta=0.70
     Davidson diagonalization with overlap
     ethr =  9.93E-10,  avg # of iterations =  1.0

     total cpu time spent up to now is        1.8 secs

     total energy              =     -31.49328645 Ry
     Harris-Foulkes estimate   =     -31.49328643 Ry
     estimated scf accuracy    <       0.00000001 Ry

     iteration # 45     ecut=    30.00 Ry     beta=0.70
     Davidson diagonalization with overlap
     ethr =  1.70E-10,  avg # of iterations =  1.0

     total cpu time spent up to now is        1.8 secs

     total energy              =     -31.49328649 Ry
     Harris-Foulkes estimate   =     -31.49328645 Ry
     estimated scf accuracy    <       0.00000001 Ry

     iteration # 46     ecut=    30.00 Ry     beta=0.70
     Davidson diagonalization with overlap
     ethr =  1.52E-10,  avg # of iterations =  1.0

     total cpu time spent up to now is        1.8 secs

     total energy              =     -31.49328650 Ry
     Harris-Foulkes estimate   =     -31.49328649 Ry
     estimated scf accuracy    <       0.00000003 Ry

     iteration # 47     ecut=    30.00 Ry     beta=0.70
     Davidson diagonalization with overlap
     ethr =  1.52E-10,  avg # of iterations =  1.0

     total cpu time spent up to now is        1.8 secs

     End of self-consistent calculation

          k = 0.0000 0.0000 0.0000 ( 22119 PWs)   bands (ev):

   -23.6104  -7.0756  -7.0232  -7.0229  -6.9191  -6.8613  -0.2032   0.5629

     the Fermi energy is    -6.8882 ev

!    total energy              =     -31.49328650 Ry
     Harris-Foulkes estimate   =     -31.49328650 Ry
     estimated scf accuracy    <          7.6E-10 Ry

     convergence has been achieved in  47 iterations

     Forces acting on atoms (Ry/au):

     atom    1 type  1   force =     0.00170350    0.00274201    0.00151402
     atom    2 type  1   force =     0.00036366   -0.00016346    0.00052348
     atom    3 type  2   force =    -0.00206715   -0.00257855   -0.00203750

     Total force =     0.005312     Total SCF correction =     0.000006

     Molecular Dynamics Calculation

     Starting temperature  =  1000.00 K

     temperature is controlled by Andersen thermostat
     Collision frequency = 1.0000/timestep
     mass H                =     1.01
     mass O                =    16.00
     Time step             =   100.00 a.u.,  4.8378 femto-seconds

     Entering Dynamics:    iteration =     1
                           time      =   0.0048 pico-seconds


     Andersen thermostat:    3 collisions

ATOMIC_POSITIONS (bohr)
H       13.264970591  15.784929341   8.738401538
H        3.948590597  18.965406177   4.834437133
O       15.752503853   1.942696805  11.322820306


     kinetic energy (Ekin) =     0.01319564 Ry
     temperature           =   694.47456190 K 
     Ekin + Etot (const)   =   -31.48009086 Ry

     Linear momentum :   -0.0000000000    0.0000000000    0.0000000000

     Writing output data file pwscf.save
     Check: negative starting charge=   -0.344577
     NEW-OLD atomic charge density approx. for the potential
     Check: negative starting charge=   -0.343721

     negative rho (up, down):  8.055E-02 0.000E+00

     total cpu time spent up to now is        2.1 secs

     per-process dynamical memory:    20.4 Mb

     Self-consistent Calculation

     iteration #  1     ecut=    30.00 Ry     beta=0.70
     Davidson diagonalization with overlap
     c_bands:  1 eigenvalues not converged
     ethr =  1.00E-06,  avg # of iterations = 20.0

     negative rho (up, down):  1.903E-02 0.000E+00

     total cpu time spent up to now is        2.2 secs

     total energy              =     -31.43619589 Ry
     Harris-Foulkes estimate   =     -31.43240902 Ry
     estimated scf accuracy    <       0.05256300 Ry

     iteration #  2     ecut=    30.00 Ry     beta=0.70
     Davidson diagonalization with overlap
     ethr =  6.57E-04,  avg # of iterations =  2.0

     negative rho (up, down):  1.745E-02 0.000E+00

     total cpu time spent up to now is        2.2 secs

     total energy              =     -31.47049862 Ry
     Harris-Foulkes estimate   =     -31.95506798 Ry
     estimated scf accuracy    <       4.25942555 Ry

     iteration #  3     ecut=    30.00 Ry     beta=0.70
     Davidson diagonalization with overlap
     ethr =  6.57E-04,  avg # of iterations =  2.0

     negative rho (up, down):  1.670E-02 0.000E+00

     total cpu time spent up to now is        2.3 secs

     total energy              =     -31.46881902 Ry
     Harris-Foulkes estimate   =     -31.53336229 Ry
     estimated scf accuracy    <       1.08166844 Ry

     iteration #  4     ecut=    30.00 Ry     beta=0.70
     Davidson diagonalization with overlap
     ethr =  6.57E-04,  avg # of iterations =  1.0

     negative rho (up, down):  1.154E-02 0.000E+00

     total cpu time spent up to now is        2.3 secs

     total energy              =     -31.40998141 Ry
     Harris-Foulkes estimate   =     -31.48796076 Ry
     estimated scf accuracy    <       0.90797891 Ry

     iteration #  5     ecut=    30.00 Ry     beta=0.70
     Davidson diagonalization with overlap
     ethr =  6.57E-04,  avg # of iterations =  1.0

     negative rho (up, down):  3.932E-03 0.000E+00

     total cpu time spent up to now is        2.4 secs

     total energy              =     -31.47534653 Ry
     Harris-Foulkes estimate   =     -31.55870786 Ry
     estimated scf accuracy    <       2.55748366 Ry

     iteration #  6     ecut=    30.00 Ry     beta=0.70
     Davidson diagonalization with overlap
     ethr =  6.57E-04,  avg # of iterations =  1.0

     negative rho (up, down):  1.340E-03 0.000E+00

     total cpu time spent up to now is        2.4 secs

     total energy              =     -31.49201195 Ry
     Harris-Foulkes estimate   =     -31.49494966 Ry
     estimated scf accuracy    <       0.23517116 Ry

     iteration #  7     ecut=    30.00 Ry     beta=0.70
     Davidson diagonalization with overlap
     ethr =  6.57E-04,  avg # of iterations =  1.0

     negative rho (up, down):  6.011E-04 0.000E+00

     total cpu time spent up to now is        2.4 secs

     total energy              =     -31.49471608 Ry
     Harris-Foulkes estimate   =     -31.49434519 Ry
     estimated scf accuracy    <       0.01052373 Ry

     iteration #  8     ecut=    30.00 Ry     beta=0.70
     Davidson diagonalization with overlap
     ethr =  1.32E-04,  avg # of iterations =  4.0

     negative rho (up, down):  7.891E-06 0.000E+00

     total cpu time spent up to now is        2.5 secs

     total energy              =     -31.49445261 Ry
     Harris-Foulkes estimate   =     -31.49474253 Ry
     estimated scf accuracy    <       0.01244154 Ry

     iteration #  9     ecut=    30.00 Ry     beta=0.70
     Davidson diagonalization with overlap
     ethr =  1.32E-04,  avg # of iterations =  1.0

     negative rho (up, down):  4.306E-07 0.000E+00

     total cpu time spent up to now is        2.5 secs

     total energy              =     -31.49454852 Ry
     Harris-Foulkes estimate   =     -31.49473455 Ry
     estimated scf accuracy    <       0.00594821 Ry

     iteration # 10     ecut=    30.00 Ry     beta=0.70
     Davidson diagonalization with overlap
     ethr =  7.44E-05,  avg # of iterations =  1.0

     total cpu time spent up to now is        2.5 secs

     total energy              =     -31.49465121 Ry
     Harris-Foulkes estimate   =     -31.49466749 Ry
     estimated scf accuracy    <       0.00097618 Ry

     iteration # 11     ecut=    30.00 Ry     beta=0.70
     Davidson diagonalization with overlap
     ethr =  1.22E-05,  avg # of iterations = 12.0

     total cpu time spent up to now is        2.6 secs

     total energy              =     -31.49465801 Ry
     Harris-Foulkes estimate   =     -31.49466070 Ry
     estimated scf accuracy    <       0.00008022 Ry

     iteration # 12     ecut=    30.00 Ry     beta=0.70
     Davidson diagonalization with overlap
     ethr =  1.00E-06,  avg # of iterations =  2.0

     total cpu time spent up to now is        2.6 secs

     total energy              =     -31.49465922 Ry
     Harris-Foulkes estimate   =     -31.49465934 Ry
     estimated scf accuracy    <       0.00000401 Ry

     iteration # 13     ecut=    30.00 Ry     beta=0.70
     Davidson diagonalization with overlap
     ethr =  5.01E-08,  avg # of iterations =  1.0

     total cpu time spent up to now is        2.7 secs

     total energy              =     -31.49465939 Ry
     Harris-Foulkes estimate   =     -31.49465931 Ry
     estimated scf accuracy    <       0.00000051 Ry

     iteration # 14     ecut=    30.00 Ry     beta=0.70
     Davidson diagonalization with overlap
     ethr =  6.33E-09,  avg # of iterations =  1.0

     total cpu time spent up to now is        2.7 secs

     total energy              =     -31.49465949 Ry
     Harris-Foulkes estimate   =     -31.49465939 Ry
     estimated scf accuracy    <       0.00000064 Ry

     iteration # 15     ecut=    30.00 Ry     beta=0.70
     Davidson diagonalization with overlap
     ethr =  6.33E-09,  avg # of iterations =  1.0

     total cpu time spent up to now is        2.7 secs

     End of self-consistent calculation

          k = 0.0000 0.0000 0.0000 ( 22119 PWs)   bands (ev):

   -23.6139  -7.0973  -7.0259  -7.0253  -6.9210  -6.8445  -0.1988   0.5656

     the Fermi energy is    -6.8907 ev

!    total energy              =     -31.49465952 Ry
     Harris-Foulkes estimate   =     -31.49465950 Ry
     estimated scf accuracy    <          3.8E-09 Ry

     convergence has been achieved in  15 iterations

     Forces acting on atoms (Ry/au):

     atom    1 type  1   force =     0.00290037    0.00542308    0.00290272
     atom    2 type  1   force =     0.00049847    0.00009966    0.00053678
     atom    3 type  2   force =    -0.00339884   -0.00552274   -0.00343950

     Total force =     0.010034     Total SCF correction =     0.000072

     Entering Dynamics:    iteration =     2
                           time      =   0.0097 pico-seconds


     Andersen thermostat:    3 collisions

ATOMIC_POSITIONS (bohr)
H       13.348890910  16.019989952   8.915064407
H        4.017261934  18.812638092   5.016509316
O       15.742871504   1.937502090  11.300175156


     kinetic energy (Ekin) =     0.00941282 Ry
     temperature           =   495.38850113 K 
     Ekin + Etot (const)   =   -31.48524670 Ry
     Message from routine dynamics:
     Total linear momentum <> 0

     Linear momentum :   -0.0482643422    0.4839037204    0.0463385468

     Writing output data file pwscf.save

     first order wave-functions extrapolation
     Check: negative starting charge=   -0.343721
     first order charge density extrapolation
     Check: negative starting charge=   -0.343817

     negative rho (up, down):  1.126E-01 0.000E+00

     total cpu time spent up to now is        3.0 secs

     per-process dynamical memory:    20.4 Mb

     Self-consistent Calculation

     iteration #  1     ecut=    30.00 Ry     beta=0.70
     Davidson diagonalization with overlap
     c_bands:  1 eigenvalues not converged
     ethr =  1.00E-06,  avg # of iterations = 20.0

     negative rho (up, down):  2.726E-02 0.000E+00

     total cpu time spent up to now is        3.1 secs

     total energy              =     -31.41551885 Ry
     Harris-Foulkes estimate   =     -31.42072378 Ry
     estimated scf accuracy    <       0.07115136 Ry

     iteration #  2     ecut=    30.00 Ry     beta=0.70
     Davidson diagonalization with overlap
     ethr =  8.89E-04,  avg # of iterations =  2.0

     negative rho (up, down):  2.465E-02 0.000E+00

     total cpu time spent up to now is        3.2 secs

     total energy              =     -31.48504164 Ry
     Harris-Foulkes estimate   =     -32.05704980 Ry
     estimated scf accuracy    <       4.41977011 Ry

     iteration #  3     ecut=    30.00 Ry     beta=0.70
     Davidson diagonalization with overlap
     ethr =  8.89E-04,  avg # of iterations =  2.0

     negative rho (up, down):  2.379E-02 0.000E+00

     total cpu time spent up to now is        3.2 secs

     total energy              =     -31.48135517 Ry
     Harris-Foulkes estimate   =     -31.52464302 Ry
     estimated scf accuracy    <       1.13298890 Ry

     iteration #  4     ecut=    30.00 Ry     beta=0.70
     Davidson diagonalization with overlap
     ethr =  8.89E-04,  avg # of iterations =  1.0

     negative rho (up, down):  1.981E-02 0.000E+00

     total cpu time spent up to now is        3.2 secs

     total energy              =     -31.36692578 Ry
     Harris-Foulkes estimate   =     -31.49048301 Ry
     estimated scf accuracy    <       1.57702600 Ry

     iteration #  5     ecut=    30.00 Ry     beta=0.70
     Davidson diagonalization with overlap
     ethr =  8.89E-04,  avg # of iterations =  1.0

     negative rho (up, down):  7.582E-03 0.000E+00

     total cpu time spent up to now is        3.2 secs

     total energy              =     -31.47958337 Ry
     Harris-Foulkes estimate   =     -31.56731238 Ry
     estimated scf accuracy    <       2.51826229 Ry

     iteration #  6     ecut=    30.00 Ry     beta=0.70
     Davidson diagonalization with overlap
     ethr =  8.89E-04,  avg # of iterations =  1.0

     negative rho (up, down):  2.071E-03 0.000E+00

     total cpu time spent up to now is        3.3 secs

     total energy              =     -31.49661231 Ry
     Harris-Foulkes estimate   =     -31.49630584 Ry
     estimated scf accuracy    <       0.42482962 Ry

     iteration #  7     ecut=    30.00 Ry     beta=0.70
     Davidson diagonalization with overlap
     ethr =  8.89E-04,  avg # of iterations =  1.0

     negative rho (up, down):  1.022E-03 0.000E+00

     total cpu time spent up to now is        3.3 secs

     total energy              =     -31.49692168 Ry
     Harris-Foulkes estimate   =     -31.49815957 Ry
     estimated scf accuracy    <       0.17483604 Ry

     iteration #  8     ecut=    30.00 Ry     beta=0.70
     Davidson diagonalization with overlap
     ethr =  8.89E-04,  avg # of iterations =  1.0

     negative rho (up, down):  4.616E-05 0.000E+00

     total cpu time spent up to now is        3.3 secs

     total energy              =     -31.49664192 Ry
     Harris-Foulkes estimate   =     -31.49753786 Ry
     estimated scf accuracy    <       0.03279319 Ry

     iteration #  9     ecut=    30.00 Ry     beta=0.70
     Davidson diagonalization with overlap
     ethr =  4.10E-04,  avg # of iterations =  3.0

     negative rho (up, down):  4.733E-07 0.000E+00

     total cpu time spent up to now is        3.4 secs

     total energy              =     -31.49729794 Ry
     Harris-Foulkes estimate   =     -31.49749551 Ry
     estimated scf accuracy    <       0.01090756 Ry

     iteration # 10     ecut=    30.00 Ry     beta=0.70
     Davidson diagonalization with overlap
     ethr =  1.36E-04,  avg # of iterations =  3.0

     total cpu time spent up to now is        3.4 secs

     total energy              =     -31.49735338 Ry
     Harris-Foulkes estimate   =     -31.49738644 Ry
     estimated scf accuracy    <       0.00097371 Ry

     iteration # 11     ecut=    30.00 Ry     beta=0.70
     Davidson diagonalization with overlap
     ethr =  1.22E-05,  avg # of iterations = 12.0

     total cpu time spent up to now is        3.5 secs

     total energy              =     -31.49738152 Ry
     Harris-Foulkes estimate   =     -31.49738380 Ry
     estimated scf accuracy    <       0.00058413 Ry

     iteration # 12     ecut=    30.00 Ry     beta=0.70
     Davidson diagonalization with overlap
     ethr =  7.30E-06,  avg # of iterations =  1.0

     total cpu time spent up to now is        3.5 secs

     total energy              =     -31.49737273 Ry
     Harris-Foulkes estimate   =     -31.49738196 Ry
     estimated scf accuracy    <       0.00036354 Ry

     iteration # 13     ecut=    30.00 Ry     beta=0.70
     Davidson diagonalization with overlap
     ethr =  4.54E-06,  avg # of iterations =  1.0

     total cpu time spent up to now is        3.6 secs

     total energy              =     -31.49737737 Ry
     Harris-Foulkes estimate   =     -31.49737783 Ry
     estimated scf accuracy    <       0.00001227 Ry

     iteration # 14     ecut=    30.00 Ry     beta=0.70
     Davidson diagonalization with overlap
     ethr =  1.53E-07,  avg # of iterations =  1.0

     total cpu time spent up to now is        3.6 secs

     total energy              =     -31.49737700 Ry
     Harris-Foulkes estimate   =     -31.49737741 Ry
     estimated scf accuracy    <       0.00001683 Ry

     iteration # 15     ecut=    30.00 Ry     beta=0.70
     Davidson diagonalization with overlap
     ethr =  1.53E-07,  avg # of iterations =  1.0

     total cpu time spent up to now is        3.6 secs

     total energy              =     -31.49737711 Ry
     Harris-Foulkes estimate   =     -31.49737720 Ry
     estimated scf accuracy    <       0.00000012 Ry

     iteration # 16     ecut=    30.00 Ry     beta=0.70
     Davidson diagonalization with overlap
     ethr =  1.47E-09,  avg # of iterations =  1.0

     total cpu time spent up to now is        3.7 secs

     End of self-consistent calculation

          k = 0.0000 0.0000 0.0000 ( 22119 PWs)   bands (ev):

   -23.6208  -7.1342  -7.0314  -7.0308  -6.9260  -6.8169  -0.1923   0.5664

     the Fermi energy is    -6.8961 ev

!    total energy              =     -31.49737712 Ry
     Harris-Foulkes estimate   =     -31.49737712 Ry
     estimated scf accuracy    <          5.7E-10 Ry

     convergence has been achieved in  16 iterations

     Forces acting on atoms (Ry/au):

     atom    1 type  1   force =     0.00432831    0.00917805    0.00428857
     atom    2 type  1   force =     0.00033615    0.00013949    0.00040676
     atom    3 type  2   force =    -0.00466446   -0.00931754   -0.00469533

     Total force =     0.015883     Total SCF correction =     0.000128

     Entering Dynamics:    iteration =     3
                           time      =   0.0145 pico-seconds


     Andersen thermostat:    3 collisions

ATOMIC_POSITIONS (bohr)
H       13.617521782  15.836971666   9.050098681
H        4.164270635  18.886710474   5.359878072
O       15.716634256   1.944379300  11.269975965


     kinetic energy (Ekin) =     0.01637522 Ry
     temperature           =   861.81331621 K 
     Ekin + Etot (const)   =   -31.48100189 Ry
     Message from routine dynamics:
     Total linear momentum <> 0

     Linear momentum :    0.3047675616   -0.3500624036   -0.1369358232

     Writing output data file pwscf.save

     second order wave-functions extrapolation
     Check: negative starting charge=   -0.343817
     second order charge density extrapolation
     Check: negative starting charge=   -0.343963

     negative rho (up, down):  6.620E-02 0.000E+00

     total cpu time spent up to now is        4.0 secs

     per-process dynamical memory:    20.4 Mb

     Self-consistent Calculation

     iteration #  1     ecut=    30.00 Ry     beta=0.70
     Davidson diagonalization with overlap
     c_bands:  1 eigenvalues not converged
     ethr =  1.00E-06,  avg # of iterations = 20.0

     negative rho (up, down):  1.545E-02 0.000E+00

     total cpu time spent up to now is        4.1 secs

     total energy              =     -31.44691560 Ry
     Harris-Foulkes estimate   =     -31.43984937 Ry
     estimated scf accuracy    <       0.04447028 Ry

     iteration #  2     ecut=    30.00 Ry     beta=0.70
     Davidson diagonalization with overlap
     ethr =  5.56E-04,  avg # of iterations =  2.0

     negative rho (up, down):  1.420E-02 0.000E+00

     total cpu time spent up to now is        4.1 secs

     total energy              =     -31.48475922 Ry
     Harris-Foulkes estimate   =     -31.95010463 Ry
     estimated scf accuracy    <       4.21743300 Ry

     iteration #  3     ecut=    30.00 Ry     beta=0.70
     Davidson diagonalization with overlap
     ethr =  5.56E-04,  avg # of iterations =  2.0

     negative rho (up, down):  1.399E-02 0.000E+00

     total cpu time spent up to now is        4.2 secs

     total energy              =     -31.48937901 Ry
     Harris-Foulkes estimate   =     -31.49710059 Ry
     estimated scf accuracy    <       1.28693598 Ry

     iteration #  4     ecut=    30.00 Ry     beta=0.70
     Davidson diagonalization with overlap
     ethr =  5.56E-04,  avg # of iterations =  1.0

     negative rho (up, down):  8.244E-03 0.000E+00

     total cpu time spent up to now is        4.3 secs

     total energy              =     -31.42529288 Ry
     Harris-Foulkes estimate   =     -31.49126637 Ry
     estimated scf accuracy    <       0.75388887 Ry

     iteration #  5     ecut=    30.00 Ry     beta=0.70
     Davidson diagonalization with overlap
     ethr =  5.56E-04,  avg # of iterations =  1.0

     negative rho (up, down):  3.246E-03 0.000E+00

     total cpu time spent up to now is        4.3 secs

     total energy              =     -31.48884744 Ry
     Harris-Foulkes estimate   =     -31.56483734 Ry
     estimated scf accuracy    <       2.49803561 Ry

     iteration #  6     ecut=    30.00 Ry     beta=0.70
     Davidson diagonalization with overlap
     ethr =  5.56E-04,  avg # of iterations =  1.0

     negative rho (up, down):  1.033E-03 0.000E+00

     total cpu time spent up to now is        4.3 secs

     total energy              =     -31.49353406 Ry
     Harris-Foulkes estimate   =     -31.50148479 Ry
     estimated scf accuracy    <       0.55541126 Ry

     iteration #  7     ecut=    30.00 Ry     beta=0.70
     Davidson diagonalization with overlap
     ethr =  5.56E-04,  avg # of iterations =  3.0

     negative rho (up, down):  4.045E-04 0.000E+00

     total cpu time spent up to now is        4.4 secs

     total energy              =     -31.49737554 Ry
     Harris-Foulkes estimate   =     -31.49741732 Ry
     estimated scf accuracy    <       0.02238892 Ry

     iteration #  8     ecut=    30.00 Ry     beta=0.70
     Davidson diagonalization with overlap
     ethr =  2.80E-04,  avg # of iterations =  3.0

     negative rho (up, down):  4.935E-06 0.000E+00

     total cpu time spent up to now is        4.4 secs

     total energy              =     -31.49749951 Ry
     Harris-Foulkes estimate   =     -31.49743555 Ry
     estimated scf accuracy    <       0.00607940 Ry

     iteration #  9     ecut=    30.00 Ry     beta=0.70
     Davidson diagonalization with overlap
     ethr =  7.60E-05,  avg # of iterations =  1.0

     total cpu time spent up to now is        4.4 secs

     total energy              =     -31.49734093 Ry
     Harris-Foulkes estimate   =     -31.49751289 Ry
     estimated scf accuracy    <       0.01216349 Ry

     iteration # 10     ecut=    30.00 Ry     beta=0.70
     Davidson diagonalization with overlap
     ethr =  7.60E-05,  avg # of iterations =  1.0

     total cpu time spent up to now is        4.5 secs

     total energy              =     -31.49738611 Ry
     Harris-Foulkes estimate   =     -31.49740546 Ry
     estimated scf accuracy    <       0.00092971 Ry

     iteration # 11     ecut=    30.00 Ry     beta=0.70
     Davidson diagonalization with overlap
     ethr =  1.16E-05,  avg # of iterations = 13.0

     total cpu time spent up to now is        4.5 secs

     total energy              =     -31.49739566 Ry
     Harris-Foulkes estimate   =     -31.49739589 Ry
     estimated scf accuracy    <       0.00000232 Ry

     iteration # 12     ecut=    30.00 Ry     beta=0.70
     Davidson diagonalization with overlap
     ethr =  2.90E-08,  avg # of iterations =  8.0

     total cpu time spent up to now is        4.5 secs

     total energy              =     -31.49739510 Ry
     Harris-Foulkes estimate   =     -31.49739597 Ry
     estimated scf accuracy    <       0.00002234 Ry

     iteration # 13     ecut=    30.00 Ry     beta=0.70
     Davidson diagonalization with overlap
     ethr =  2.90E-08,  avg # of iterations =  1.0

     total cpu time spent up to now is        4.6 secs

     total energy              =     -31.49739475 Ry
     Harris-Foulkes estimate   =     -31.49739531 Ry
     estimated scf accuracy    <       0.00000055 Ry

     iteration # 14     ecut=    30.00 Ry     beta=0.70
     Davidson diagonalization with overlap
     ethr =  6.90E-09,  avg # of iterations =  1.0

     total cpu time spent up to now is        4.6 secs

     total energy              =     -31.49739472 Ry
     Harris-Foulkes estimate   =     -31.49739479 Ry
     estimated scf accuracy    <       0.00000196 Ry

     iteration # 15     ecut=    30.00 Ry     beta=0.70
     Davidson diagonalization with overlap
     ethr =  6.90E-09,  avg # of iterations =  1.0

     total cpu time spent up to now is        4.6 secs

     total energy              =     -31.49739476 Ry
     Harris-Foulkes estimate   =     -31.49739473 Ry
     estimated scf accuracy    <       0.00000009 Ry

     iteration # 16     ecut=    30.00 Ry     beta=0.70
     Davidson diagonalization with overlap
     ethr =  1.14E-09,  avg # of iterations =  1.0

     total cpu time spent up to now is        4.7 secs

     End of self-consistent calculation

          k = 0.0000 0.0000 0.0000 ( 22119 PWs)   bands (ev):

   -23.6184  -7.1317  -7.0298  -7.0290  -6.9240  -6.8158  -0.1921   0.5708

     the Fermi energy is    -6.8943 ev

!    total energy              =     -31.49739470 Ry
     Harris-Foulkes estimate   =     -31.49739476 Ry
     estimated scf accuracy    <          5.4E-10 Ry

     convergence has been achieved in  16 iterations

     Forces acting on atoms (Ry/au):

     atom    1 type  1   force =     0.00358251    0.00933976    0.00366188
     atom    2 type  1   force =     0.00006361    0.00009155    0.00018050
     atom    3 type  2   force =    -0.00364612   -0.00943131   -0.00384238

     Total force =     0.015183     Total SCF correction =     0.000146

     Entering Dynamics:    iteration =     4
                           time      =   0.0194 pico-seconds


     Andersen thermostat:    3 collisions

ATOMIC_POSITIONS (bohr)
H       13.644855783  15.802293289   8.998932801
H        3.968124476  18.552885477   5.166338292
O       15.727290524   1.967641075  11.285423010


     kinetic energy (Ekin) =     0.01891549 Ry
     temperature           =   995.50535821 K 
     Ekin + Etot (const)   =   -31.47847921 Ry
     Message from routine dynamics:
     Total linear momentum <> 0

     Linear momentum :    0.6585480540    0.4524520681   -0.2987964083

     Writing output data file pwscf.save

     second order wave-functions extrapolation
     Check: negative starting charge=   -0.343963
     second order charge density extrapolation
     Check: negative starting charge=   -0.343997

     negative rho (up, down):  4.648E-02 0.000E+00

     total cpu time spent up to now is        5.0 secs

     per-process dynamical memory:    20.4 Mb

     Self-consistent Calculation

     iteration #  1     ecut=    30.00 Ry     beta=0.70
     Davidson diagonalization with overlap
     ethr =  1.00E-06,  avg # of iterations = 19.0

     negative rho (up, down):  1.060E-02 0.000E+00

     total cpu time spent up to now is        5.1 secs

     total energy              =     -31.47761981 Ry
     Harris-Foulkes estimate   =     -31.45445364 Ry
     estimated scf accuracy    <       0.01171127 Ry

     iteration #  2     ecut=    30.00 Ry     beta=0.70
     Davidson diagonalization with overlap
     ethr =  1.46E-04,  avg # of iterations =  2.0

     negative rho (up, down):  1.013E-02 0.000E+00

     total cpu time spent up to now is        5.1 secs

     total energy              =     -31.46405191 Ry
     Harris-Foulkes estimate   =     -31.68830058 Ry
     estimated scf accuracy    <       3.71331811 Ry

     iteration #  3     ecut=    30.00 Ry     beta=0.70
     Davidson diagonalization with overlap
     ethr =  1.46E-04,  avg # of iterations =  2.0

     negative rho (up, down):  9.857E-03 0.000E+00

     total cpu time spent up to now is        5.1 secs

     total energy              =     -31.47790698 Ry
     Harris-Foulkes estimate   =     -31.50019656 Ry
     estimated scf accuracy    <       0.64850068 Ry

     iteration #  4     ecut=    30.00 Ry     beta=0.70
     Davidson diagonalization with overlap
     ethr =  1.46E-04,  avg # of iterations =  1.0

     negative rho (up, down):  1.917E-03 0.000E+00

     total cpu time spent up to now is        5.2 secs

     total energy              =     -31.49348097 Ry
     Harris-Foulkes estimate   =     -31.48771140 Ry
     estimated scf accuracy    <       0.03774238 Ry

     iteration #  5     ecut=    30.00 Ry     beta=0.70
     Davidson diagonalization with overlap
     ethr =  1.46E-04,  avg # of iterations =  4.0

     negative rho (up, down):  1.109E-03 0.000E+00

     total cpu time spent up to now is        5.2 secs

     total energy              =     -31.49405420 Ry
     Harris-Foulkes estimate   =     -31.49800192 Ry
     estimated scf accuracy    <       0.20212147 Ry

     iteration #  6     ecut=    30.00 Ry     beta=0.70
     Davidson diagonalization with overlap
     ethr =  1.46E-04,  avg # of iterations =  1.0

     negative rho (up, down):  5.414E-05 0.000E+00

     total cpu time spent up to now is        5.2 secs

     total energy              =     -31.49671174 Ry
     Harris-Foulkes estimate   =     -31.49644410 Ry
     estimated scf accuracy    <       0.00083739 Ry

     iteration #  7     ecut=    30.00 Ry     beta=0.70
     Davidson diagonalization with overlap
     ethr =  1.05E-05,  avg # of iterations = 13.0

     negative rho (up, down):  2.370E-06 0.000E+00

     total cpu time spent up to now is        5.3 secs

     total energy              =     -31.49658931 Ry
     Harris-Foulkes estimate   =     -31.49678797 Ry
     estimated scf accuracy    <       0.01217161 Ry

     iteration #  8     ecut=    30.00 Ry     beta=0.70
     Davidson diagonalization with overlap
     ethr =  1.05E-05,  avg # of iterations =  1.0

     negative rho (up, down):  3.110E-07 0.000E+00

     total cpu time spent up to now is        5.3 secs

     total energy              =     -31.49665953 Ry
     Harris-Foulkes estimate   =     -31.49667241 Ry
     estimated scf accuracy    <       0.00039369 Ry

     iteration #  9     ecut=    30.00 Ry     beta=0.70
     Davidson diagonalization with overlap
     ethr =  4.92E-06,  avg # of iterations =  1.0

     total cpu time spent up to now is        5.4 secs

     total energy              =     -31.49666363 Ry
     Harris-Foulkes estimate   =     -31.49666783 Ry
     estimated scf accuracy    <       0.00007306 Ry

     iteration # 10     ecut=    30.00 Ry     beta=0.70
     Davidson diagonalization with overlap
     ethr =  9.13E-07,  avg # of iterations =  1.0

     total cpu time spent up to now is        5.4 secs

     total energy              =     -31.49666595 Ry
     Harris-Foulkes estimate   =     -31.49666625 Ry
     estimated scf accuracy    <       0.00005510 Ry

     iteration # 11     ecut=    30.00 Ry     beta=0.70
     Davidson diagonalization with overlap
     ethr =  6.89E-07,  avg # of iterations =  1.0

     total cpu time spent up to now is        5.4 secs

     total energy              =     -31.49666493 Ry
     Harris-Foulkes estimate   =     -31.49666603 Ry
     estimated scf accuracy    <       0.00002233 Ry

     iteration # 12     ecut=    30.00 Ry     beta=0.70
     Davidson diagonalization with overlap
     ethr =  2.79E-07,  avg # of iterations =  1.0

     total cpu time spent up to now is        5.5 secs

     total energy              =     -31.49666514 Ry
     Harris-Foulkes estimate   =     -31.49666517 Ry
     estimated scf accuracy    <       0.00000001 Ry

     iteration # 13     ecut=    30.00 Ry     beta=0.70
     Davidson diagonalization with overlap
     ethr =  1.77E-10,  avg # of iterations =  2.0

     total cpu time spent up to now is        5.5 secs

     End of self-consistent calculation

          k = 0.0000 0.0000 0.0000 ( 22119 PWs)   bands (ev):

   -23.6185  -7.1243  -7.0299  -7.0293  -6.9245  -6.8241  -0.1940   0.5654

     the Fermi energy is    -6.8946 ev

!    total energy              =     -31.49666511 Ry
     Harris-Foulkes estimate   =     -31.49666514 Ry
     estimated scf accuracy    <          3.3E-09 Ry

     convergence has been achieved in  13 iterations

     Forces acting on atoms (Ry/au):

     atom    1 type  1   force =     0.00342943    0.00839333    0.00358073
     atom    2 type  1   force =     0.00019207   -0.00022155    0.00030754
     atom    3 type  2   force =    -0.00362151   -0.00817178   -0.00388827

     Total force =     0.013792     Total SCF correction =     0.000483

     Entering Dynamics:    iteration =     5
                           time      =   0.0242 pico-seconds


     Andersen thermostat:    3 collisions

ATOMIC_POSITIONS (bohr)
H       13.498799032  16.186865066   9.342752062
H        3.435556804  18.765964114   4.891094720
O       15.770128690   1.929914393  11.281094169


     kinetic energy (Ekin) =     0.03354634 Ry
     temperature           =  1765.51373003 K 
     Ekin + Etot (const)   =   -31.46311877 Ry
     Message from routine dynamics:
     Total linear momentum <> 0

     Linear momentum :    0.2555715914    0.0401351917   -0.1541686132

     Writing output data file pwscf.save

     second order wave-functions extrapolation
     Check: negative starting charge=   -0.343997
     second order charge density extrapolation
     Check: negative starting charge=   -0.342745

     negative rho (up, down):  7.973E-02 0.000E+00

     total cpu time spent up to now is        5.8 secs

     per-process dynamical memory:    20.4 Mb

     Self-consistent Calculation

     iteration #  1     ecut=    30.00 Ry     beta=0.70
     Davidson diagonalization with overlap
     c_bands:  1 eigenvalues not converged
     ethr =  1.00E-06,  avg # of iterations = 20.0

     negative rho (up, down):  1.867E-02 0.000E+00

     total cpu time spent up to now is        5.9 secs

     total energy              =     -31.43322934 Ry
     Harris-Foulkes estimate   =     -31.44271312 Ry
     estimated scf accuracy    <       0.06972649 Ry

     iteration #  2     ecut=    30.00 Ry     beta=0.70
     Davidson diagonalization with overlap
     ethr =  8.72E-04,  avg # of iterations =  2.0

     negative rho (up, down):  1.706E-02 0.000E+00

     total cpu time spent up to now is        5.9 secs

     total energy              =     -31.42913622 Ry
     Harris-Foulkes estimate   =     -31.90722602 Ry
     estimated scf accuracy    <       4.15112856 Ry

     iteration #  3     ecut=    30.00 Ry     beta=0.70
     Davidson diagonalization with overlap
     ethr =  8.72E-04,  avg # of iterations =  2.0

     negative rho (up, down):  1.562E-02 0.000E+00

     total cpu time spent up to now is        5.9 secs

     total energy              =     -31.48852881 Ry
     Harris-Foulkes estimate   =     -31.63058284 Ry
     estimated scf accuracy    <       1.18965050 Ry

     iteration #  4     ecut=    30.00 Ry     beta=0.70
     Davidson diagonalization with overlap
     ethr =  8.72E-04,  avg # of iterations =  1.0

     negative rho (up, down):  1.364E-02 0.000E+00

     total cpu time spent up to now is        6.0 secs

     total energy              =     -31.46984390 Ry
     Harris-Foulkes estimate   =     -31.49713634 Ry
     estimated scf accuracy    <       0.49145106 Ry

     iteration #  5     ecut=    30.00 Ry     beta=0.70
     Davidson diagonalization with overlap
     ethr =  8.72E-04,  avg # of iterations =  1.0

     negative rho (up, down):  2.888E-03 0.000E+00

     total cpu time spent up to now is        6.0 secs

     total energy              =     -31.50426268 Ry
     Harris-Foulkes estimate   =     -31.49111163 Ry
     estimated scf accuracy    <       0.10933119 Ry

     iteration #  6     ecut=    30.00 Ry     beta=0.70
     Davidson diagonalization with overlap
     ethr =  8.72E-04,  avg # of iterations =  1.0

     negative rho (up, down):  1.323E-03 0.000E+00

     total cpu time spent up to now is        6.0 secs

     total energy              =     -31.49498868 Ry
     Harris-Foulkes estimate   =     -31.50800072 Ry
     estimated scf accuracy    <       0.37827417 Ry

     iteration #  7     ecut=    30.00 Ry     beta=0.70
     Davidson diagonalization with overlap
     ethr =  8.72E-04,  avg # of iterations =  1.0

     negative rho (up, down):  3.561E-04 0.000E+00

     total cpu time spent up to now is        6.1 secs

     total energy              =     -31.49796674 Ry
     Harris-Foulkes estimate   =     -31.50274755 Ry
     estimated scf accuracy    <       0.11936530 Ry

     iteration #  8     ecut=    30.00 Ry     beta=0.70
     Davidson diagonalization with overlap
     ethr =  8.72E-04,  avg # of iterations =  1.0

     negative rho (up, down):  4.035E-05 0.000E+00

     total cpu time spent up to now is        6.1 secs

     total energy              =     -31.50109185 Ry
     Harris-Foulkes estimate   =     -31.50325618 Ry
     estimated scf accuracy    <       0.14985668 Ry

     iteration #  9     ecut=    30.00 Ry     beta=0.70
     Davidson diagonalization with overlap
     ethr =  8.72E-04,  avg # of iterations =  1.0

     negative rho (up, down):  3.261E-05 0.000E+00

     total cpu time spent up to now is        6.1 secs

     total energy              =     -31.50191458 Ry
     Harris-Foulkes estimate   =     -31.50221368 Ry
     estimated scf accuracy    <       0.03844182 Ry

     iteration # 10     ecut=    30.00 Ry     beta=0.70
     Davidson diagonalization with overlap
     ethr =  4.81E-04,  avg # of iterations =  1.0

     negative rho (up, down):  1.287E-06 0.000E+00

     total cpu time spent up to now is        6.2 secs

     total energy              =     -31.50140961 Ry
     Harris-Foulkes estimate   =     -31.50196240 Ry
     estimated scf accuracy    <       0.01981993 Ry

     iteration # 11     ecut=    30.00 Ry     beta=0.70
     Davidson diagonalization with overlap
     ethr =  2.48E-04,  avg # of iterations =  1.0

     total cpu time spent up to now is        6.2 secs

     total energy              =     -31.50163315 Ry
     Harris-Foulkes estimate   =     -31.50163750 Ry
     estimated scf accuracy    <       0.00074468 Ry

     iteration # 12     ecut=    30.00 Ry     beta=0.70
     Davidson diagonalization with overlap
     ethr =  9.31E-06,  avg # of iterations = 13.0

     total cpu time spent up to now is        6.2 secs

     total energy              =     -31.50162641 Ry
     Harris-Foulkes estimate   =     -31.50163496 Ry
     estimated scf accuracy    <       0.00031966 Ry

     iteration # 13     ecut=    30.00 Ry     beta=0.70
     Davidson diagonalization with overlap
     ethr =  4.00E-06,  avg # of iterations =  1.0

     total cpu time spent up to now is        6.3 secs

     total energy              =     -31.50163134 Ry
     Harris-Foulkes estimate   =     -31.50163195 Ry
     estimated scf accuracy    <       0.00000481 Ry

     iteration # 14     ecut=    30.00 Ry     beta=0.70
     Davidson diagonalization with overlap
     ethr =  6.01E-08,  avg # of iterations =  1.0

     total cpu time spent up to now is        6.3 secs

     total energy              =     -31.50163135 Ry
     Harris-Foulkes estimate   =     -31.50163148 Ry
     estimated scf accuracy    <       0.00000733 Ry

     iteration # 15     ecut=    30.00 Ry     beta=0.70
     Davidson diagonalization with overlap
     ethr =  6.01E-08,  avg # of iterations =  1.0

     total cpu time spent up to now is        6.3 secs

     total energy              =     -31.50163159 Ry
     Harris-Foulkes estimate   =     -31.50163143 Ry
     estimated scf accuracy    <       0.00000014 Ry

     iteration # 16     ecut=    30.00 Ry     beta=0.70
     Davidson diagonalization with overlap
     ethr =  1.77E-09,  avg # of iterations =  1.0

     total cpu time spent up to now is        6.4 secs

     End of self-consistent calculation

          k = 0.0000 0.0000 0.0000 ( 22119 PWs)   bands (ev):

   -23.6231  -7.1752  -7.0320  -7.0311  -6.9250  -6.7737  -0.1857   0.5781

     the Fermi energy is    -6.8960 ev

!    total energy              =     -31.50163134 Ry
     Harris-Foulkes estimate   =     -31.50163160 Ry
     estimated scf accuracy    <          1.0E-09 Ry

     convergence has been achieved in  16 iterations

     Forces acting on atoms (Ry/au):

     atom    1 type  1   force =     0.00487931    0.01213307    0.00468197
     atom    2 type  1   force =     0.00017093    0.00035049    0.00056670
     atom    3 type  2   force =    -0.00505024   -0.01248356   -0.00524867

     Total force =     0.020058     Total SCF correction =     0.000600

     Entering Dynamics:    iteration =     6
                           time      =   0.0290 pico-seconds


     Andersen thermostat:    3 collisions

ATOMIC_POSITIONS (bohr)
H       13.526357682  15.731347616   9.275228633
H        3.070633881  18.552665825   5.247651027
O       15.791424810   1.972133387  11.262848969


     kinetic energy (Ekin) =     0.02974244 Ry
     temperature           =  1565.31818836 K 
     Ekin + Etot (const)   =   -31.47188890 Ry
     Message from routine dynamics:
     Total linear momentum <> 0

     Linear momentum :    0.0271839412   -0.0722010692   -0.2133873842

     Writing output data file pwscf.save

     second order wave-functions extrapolation
     Check: negative starting charge=   -0.342745
     second order charge density extrapolation
     Check: negative starting charge=   -0.342967

     negative rho (up, down):  8.170E-02 0.000E+00

     total cpu time spent up to now is        6.7 secs

     per-process dynamical memory:    20.4 Mb

     Self-consistent Calculation

     iteration #  1     ecut=    30.00 Ry     beta=0.70
     Davidson diagonalization with overlap
     c_bands:  1 eigenvalues not converged
     ethr =  1.00E-06,  avg # of iterations = 20.0

     negative rho (up, down):  1.921E-02 0.000E+00

     total cpu time spent up to now is        6.8 secs

     total energy              =     -31.47015718 Ry
     Harris-Foulkes estimate   =     -31.43868274 Ry
     estimated scf accuracy    <       0.01154436 Ry

     iteration #  2     ecut=    30.00 Ry     beta=0.70
     Davidson diagonalization with overlap
     ethr =  1.44E-04,  avg # of iterations =  3.0

     negative rho (up, down):  1.773E-02 0.000E+00

     total cpu time spent up to now is        6.8 secs

     total energy              =     -31.47131094 Ry
     Harris-Foulkes estimate   =     -31.55444285 Ry
     estimated scf accuracy    <       0.82955932 Ry

     iteration #  3     ecut=    30.00 Ry     beta=0.70
     Davidson diagonalization with overlap
     ethr =  1.44E-04,  avg # of iterations =  2.0

     negative rho (up, down):  1.757E-02 0.000E+00

     total cpu time spent up to now is        6.9 secs

     total energy              =     -31.47549603 Ry
     Harris-Foulkes estimate   =     -31.48773535 Ry
     estimated scf accuracy    <       0.67024360 Ry

     iteration #  4     ecut=    30.00 Ry     beta=0.70
     Davidson diagonalization with overlap
     ethr =  1.44E-04,  avg # of iterations =  1.0

     negative rho (up, down):  4.425E-03 0.000E+00

     total cpu time spent up to now is        6.9 secs

     total energy              =     -31.48450815 Ry
     Harris-Foulkes estimate   =     -31.48081141 Ry
     estimated scf accuracy    <       0.07302496 Ry

     iteration #  5     ecut=    30.00 Ry     beta=0.70
     Davidson diagonalization with overlap
     ethr =  1.44E-04,  avg # of iterations =  4.0

     negative rho (up, down):  2.693E-03 0.000E+00

     total cpu time spent up to now is        6.9 secs

     total energy              =     -31.48615846 Ry
     Harris-Foulkes estimate   =     -31.50558325 Ry
     estimated scf accuracy    <       0.86389380 Ry

     iteration #  6     ecut=    30.00 Ry     beta=0.70
     Davidson diagonalization with overlap
     ethr =  1.44E-04,  avg # of iterations =  1.0

     negative rho (up, down):  6.708E-04 0.000E+00

     total cpu time spent up to now is        6.9 secs

     total energy              =     -31.49613646 Ry
     Harris-Foulkes estimate   =     -31.49487537 Ry
     estimated scf accuracy    <       0.01313007 Ry

     iteration #  7     ecut=    30.00 Ry     beta=0.70
     Davidson diagonalization with overlap
     ethr =  1.44E-04,  avg # of iterations =  4.0

     negative rho (up, down):  2.011E-05 0.000E+00

     total cpu time spent up to now is        7.0 secs

     total energy              =     -31.49650995 Ry
     Harris-Foulkes estimate   =     -31.49640158 Ry
     estimated scf accuracy    <       0.00073218 Ry

     iteration #  8     ecut=    30.00 Ry     beta=0.70
     Davidson diagonalization with overlap
     ethr =  9.15E-06,  avg # of iterations = 14.0

     negative rho (up, down):  1.972E-07 0.000E+00

     total cpu time spent up to now is        7.0 secs

     total energy              =     -31.49616549 Ry
     Harris-Foulkes estimate   =     -31.49665214 Ry
     estimated scf accuracy    <       0.01628594 Ry

     iteration #  9     ecut=    30.00 Ry     beta=0.70
     Davidson diagonalization with overlap
     ethr =  9.15E-06,  avg # of iterations =  1.0

     negative rho (up, down):  4.298E-08 0.000E+00

     total cpu time spent up to now is        7.1 secs

     total energy              =     -31.49643938 Ry
     Harris-Foulkes estimate   =     -31.49644252 Ry
     estimated scf accuracy    <       0.00031235 Ry

     iteration # 10     ecut=    30.00 Ry     beta=0.70
     Davidson diagonalization with overlap
     ethr =  3.90E-06,  avg # of iterations =  1.0

     total cpu time spent up to now is        7.1 secs

     total energy              =     -31.49643480 Ry
     Harris-Foulkes estimate   =     -31.49644012 Ry
     estimated scf accuracy    <       0.00011410 Ry

     iteration # 11     ecut=    30.00 Ry     beta=0.70
     Davidson diagonalization with overlap
     ethr =  1.43E-06,  avg # of iterations =  1.0

     total cpu time spent up to now is        7.1 secs

     total energy              =     -31.49643693 Ry
     Harris-Foulkes estimate   =     -31.49643842 Ry
     estimated scf accuracy    <       0.00003408 Ry

     iteration # 12     ecut=    30.00 Ry     beta=0.70
     Davidson diagonalization with overlap
     ethr =  4.26E-07,  avg # of iterations =  1.0

     total cpu time spent up to now is        7.2 secs

     total energy              =     -31.49643737 Ry
     Harris-Foulkes estimate   =     -31.49643742 Ry
     estimated scf accuracy    <       0.00000009 Ry

     iteration # 13     ecut=    30.00 Ry     beta=0.70
     Davidson diagonalization with overlap
     ethr =  1.15E-09,  avg # of iterations =  1.0

     total cpu time spent up to now is        7.2 secs

     End of self-consistent calculation

          k = 0.0000 0.0000 0.0000 ( 22119 PWs)   bands (ev):

   -23.6132  -7.1165  -7.0267  -7.0248  -6.9180  -6.8233  -0.1913   0.5671

     the Fermi energy is    -6.8899 ev

!    total energy              =     -31.49643735 Ry
     Harris-Foulkes estimate   =     -31.49643737 Ry
     estimated scf accuracy    <          1.8E-09 Ry

     convergence has been achieved in  13 iterations

     Forces acting on atoms (Ry/au):

     atom    1 type  1   force =     0.00334082    0.00831771    0.00305786
     atom    2 type  1   force =     0.00015066   -0.00004463    0.00026906
     atom    3 type  2   force =    -0.00349148   -0.00827309   -0.00332692

     Total force =     0.013472     Total SCF correction =     0.000062

     Entering Dynamics:    iteration =     7
                           time      =   0.0339 pico-seconds


     Andersen thermostat:    3 collisions

ATOMIC_POSITIONS (bohr)
H       13.517133759  15.859008391   9.680681108
H        3.029467955  18.388405662   5.614390617
O       15.794605669   1.974443723  11.214104345


     kinetic energy (Ekin) =     0.01801070 Ry
     temperature           =   947.88718157 K 
     Ekin + Etot (const)   =   -31.47842665 Ry
     Message from routine dynamics:
     Total linear momentum <> 0

     Linear momentum :    0.1594201294   -0.0313115487    0.3185687409

     Writing output data file pwscf.save

     second order wave-functions extrapolation
     Check: negative starting charge=   -0.342967
     second order charge density extrapolation
     Check: negative starting charge=   -0.342188

     negative rho (up, down):  8.667E-02 0.000E+00

     total cpu time spent up to now is        7.6 secs

     per-process dynamical memory:    20.4 Mb

     Self-consistent Calculation

     iteration #  1     ecut=    30.00 Ry     beta=0.70
     Davidson diagonalization with overlap
     c_bands:  1 eigenvalues not converged
     ethr =  1.00E-06,  avg # of iterations = 20.0

     negative rho (up, down):  2.079E-02 0.000E+00

     total cpu time spent up to now is        7.7 secs

     total energy              =     -31.42044159 Ry
     Harris-Foulkes estimate   =     -31.43231269 Ry
     estimated scf accuracy    <       0.07472898 Ry

     iteration #  2     ecut=    30.00 Ry     beta=0.70
     Davidson diagonalization with overlap
     ethr =  9.34E-04,  avg # of iterations =  2.0

     negative rho (up, down):  1.876E-02 0.000E+00

     total cpu time spent up to now is        7.8 secs

     total energy              =     -31.48914347 Ry
     Harris-Foulkes estimate   =     -32.07957119 Ry
     estimated scf accuracy    <       4.44204560 Ry

     iteration #  3     ecut=    30.00 Ry     beta=0.70
     Davidson diagonalization with overlap
     ethr =  9.34E-04,  avg # of iterations =  2.0

     negative rho (up, down):  1.806E-02 0.000E+00

     total cpu time spent up to now is        7.8 secs

     total energy              =     -31.48468660 Ry
     Harris-Foulkes estimate   =     -31.52215820 Ry
     estimated scf accuracy    <       0.97153397 Ry

     iteration #  4     ecut=    30.00 Ry     beta=0.70
     Davidson diagonalization with overlap
     ethr =  9.34E-04,  avg # of iterations =  1.0

     negative rho (up, down):  1.490E-02 0.000E+00

     total cpu time spent up to now is        7.8 secs

     total energy              =     -31.39690461 Ry
     Harris-Foulkes estimate   =     -31.49769599 Ry
     estimated scf accuracy    <       1.57049439 Ry

     iteration #  5     ecut=    30.00 Ry     beta=0.70
     Davidson diagonalization with overlap
     ethr =  9.34E-04,  avg # of iterations =  1.0

     negative rho (up, down):  4.712E-03 0.000E+00

     total cpu time spent up to now is        7.9 secs

     total energy              =     -31.47400156 Ry
     Harris-Foulkes estimate   =     -31.54356439 Ry
     estimated scf accuracy    <       2.35904792 Ry

     iteration #  6     ecut=    30.00 Ry     beta=0.70
     Davidson diagonalization with overlap
     ethr =  9.34E-04,  avg # of iterations =  1.0

     negative rho (up, down):  1.522E-03 0.000E+00

     total cpu time spent up to now is        7.9 secs

     total energy              =     -31.49732037 Ry
     Harris-Foulkes estimate   =     -31.49600180 Ry
     estimated scf accuracy    <       0.08575522 Ry

     iteration #  7     ecut=    30.00 Ry     beta=0.70
     Davidson diagonalization with overlap
     ethr =  9.34E-04,  avg # of iterations =  1.0

     negative rho (up, down):  6.574E-04 0.000E+00

     total cpu time spent up to now is        7.9 secs

     total energy              =     -31.49883257 Ry
     Harris-Foulkes estimate   =     -31.49831646 Ry
     estimated scf accuracy    <       0.00006671 Ry

     iteration #  8     ecut=    30.00 Ry     beta=0.70
     Davidson diagonalization with overlap
     c_bands:  1 eigenvalues not converged
     ethr =  8.34E-07,  avg # of iterations = 20.0

     negative rho (up, down):  8.583E-06 0.000E+00

     total cpu time spent up to now is        8.0 secs

     total energy              =     -31.49904504 Ry
     Harris-Foulkes estimate   =     -31.49923907 Ry
     estimated scf accuracy    <       0.03732436 Ry

     iteration #  9     ecut=    30.00 Ry     beta=0.70
     Davidson diagonalization with overlap
     ethr =  8.34E-07,  avg # of iterations =  9.0

     negative rho (up, down):  1.599E-07 0.000E+00

     total cpu time spent up to now is        8.0 secs

     total energy              =     -31.49862492 Ry
     Harris-Foulkes estimate   =     -31.49908922 Ry
     estimated scf accuracy    <       0.01877263 Ry

     iteration # 10     ecut=    30.00 Ry     beta=0.70
     Davidson diagonalization with overlap
     ethr =  8.34E-07,  avg # of iterations =  1.0

     total cpu time spent up to now is        8.1 secs

     total energy              =     -31.49893142 Ry
     Harris-Foulkes estimate   =     -31.49890458 Ry
     estimated scf accuracy    <       0.00072765 Ry

     iteration # 11     ecut=    30.00 Ry     beta=0.70
     Davidson diagonalization with overlap
     ethr =  8.34E-07,  avg # of iterations =  1.0

     total cpu time spent up to now is        8.1 secs

     total energy              =     -31.49876607 Ry
     Harris-Foulkes estimate   =     -31.49895553 Ry
     estimated scf accuracy    <       0.00567348 Ry

     iteration # 12     ecut=    30.00 Ry     beta=0.70
     Davidson diagonalization with overlap
     ethr =  8.34E-07,  avg # of iterations =  1.0

     total cpu time spent up to now is        8.1 secs

     total energy              =     -31.49890757 Ry
     Harris-Foulkes estimate   =     -31.49891912 Ry
     estimated scf accuracy    <       0.00207729 Ry

     iteration # 13     ecut=    30.00 Ry     beta=0.70
     Davidson diagonalization with overlap
     ethr =  8.34E-07,  avg # of iterations =  1.0

     total cpu time spent up to now is        8.2 secs

     total energy              =     -31.49888996 Ry
     Harris-Foulkes estimate   =     -31.49890913 Ry
     estimated scf accuracy    <       0.00117088 Ry

     iteration # 14     ecut=    30.00 Ry     beta=0.70
     Davidson diagonalization with overlap
     ethr =  8.34E-07,  avg # of iterations =  1.0

     negative rho (up, down):  3.166E-08 0.000E+00

     total cpu time spent up to now is        8.2 secs

     total energy              =     -31.49889596 Ry
     Harris-Foulkes estimate   =     -31.49889703 Ry
     estimated scf accuracy    <       0.00007111 Ry

     iteration # 15     ecut=    30.00 Ry     beta=0.70
     Davidson diagonalization with overlap
     ethr =  8.34E-07,  avg # of iterations =  1.0

     total cpu time spent up to now is        8.2 secs

     total energy              =     -31.49889646 Ry
     Harris-Foulkes estimate   =     -31.49889669 Ry
     estimated scf accuracy    <       0.00000001 Ry

     iteration # 16     ecut=    30.00 Ry     beta=0.70
     Davidson diagonalization with overlap
     ethr =  1.51E-10,  avg # of iterations =  2.0

     total cpu time spent up to now is        8.3 secs

     End of self-consistent calculation

          k = 0.0000 0.0000 0.0000 ( 22119 PWs)   bands (ev):

   -23.6172  -7.1453  -7.0297  -7.0273  -6.9198  -6.7982  -0.1853   0.5697

     the Fermi energy is    -6.8924 ev

!    total energy              =     -31.49889639 Ry
     Harris-Foulkes estimate   =     -31.49889647 Ry
     estimated scf accuracy    <          1.3E-09 Ry

     convergence has been achieved in  16 iterations

     Forces acting on atoms (Ry/au):

     atom    1 type  1   force =     0.00435841    0.01051841    0.00243260
     atom    2 type  1   force =     0.00021526   -0.00010727   -0.00008348
     atom    3 type  2   force =    -0.00457366   -0.01041114   -0.00234912

     Total force =     0.016445     Total SCF correction =     0.000790

     Entering Dynamics:    iteration =     8
                           time      =   0.0387 pico-seconds


     Andersen thermostat:    3 collisions

ATOMIC_POSITIONS (bohr)
H       13.724972720  15.747591972   9.453691825
H        2.911565146  18.570054241   5.168908437
O       15.788928450   1.970010318  11.256554106


     kinetic energy (Ekin) =     0.02126140 Ry
     temperature           =  1118.96825512 K 
     Ekin + Etot (const)   =   -31.47763500 Ry
     Message from routine dynamics:
     Total linear momentum <> 0

     Linear momentum :    0.2597879121   -0.3234138334   -0.2818626839

     Writing output data file pwscf.save

     second order wave-functions extrapolation
     Check: negative starting charge=   -0.342188
     second order charge density extrapolation
     Check: negative starting charge=   -0.342926

     negative rho (up, down):  1.682E-02 0.000E+00

     total cpu time spent up to now is        8.6 secs

     per-process dynamical memory:    20.4 Mb

     Self-consistent Calculation

     iteration #  1     ecut=    30.00 Ry     beta=0.70
     Davidson diagonalization with overlap
     c_bands:  1 eigenvalues not converged
     ethr =  1.00E-06,  avg # of iterations = 20.0

     negative rho (up, down):  3.528E-03 0.000E+00

     total cpu time spent up to now is        8.7 secs

     total energy              =     -31.48167543 Ry
     Harris-Foulkes estimate   =     -31.48114988 Ry
     estimated scf accuracy    <       0.01674997 Ry

     iteration #  2     ecut=    30.00 Ry     beta=0.70
     Davidson diagonalization with overlap
     ethr =  2.09E-04,  avg # of iterations =  3.0

     negative rho (up, down):  3.321E-03 0.000E+00

     total cpu time spent up to now is        8.8 secs

     total energy              =     -31.47357054 Ry
     Harris-Foulkes estimate   =     -31.75626261 Ry
[...]
     Harris-Foulkes estimate   =    -133.50668319 Ry
     estimated scf accuracy    <      21.75919939 Ry

     iteration # 59     ecut=    30.00 Ry     beta=0.70
     Davidson diagonalization with overlap
     ethr =  1.00E-02,  avg # of iterations =  7.0

     negative rho (up, down):  9.534E-02 0.000E+00

     total cpu time spent up to now is       29.9 secs

     total energy              =       6.92227705 Ry
     Harris-Foulkes estimate   =   -1508.11399853 Ry
     estimated scf accuracy    <       8.27077446 Ry

     iteration # 60     ecut=    30.00 Ry     beta=0.70
     Davidson diagonalization with overlap
     ethr =  1.00E-02,  avg # of iterations =  6.0

     negative rho (up, down):  1.680E-01 0.000E+00

     total cpu time spent up to now is       30.0 secs

     total energy              =   -2941.97331020 Ry
     Harris-Foulkes estimate   =    -617.20936998 Ry
     estimated scf accuracy    <      44.20511452 Ry

     iteration # 61     ecut=    30.00 Ry     beta=0.70
     Davidson diagonalization with overlap
     ethr =  1.00E-02,  avg # of iterations =  5.0

     negative rho (up, down):  2.766E-01 0.000E+00

     total cpu time spent up to now is       30.0 secs

     total energy              =      59.77621932 Ry
     Harris-Foulkes estimate   =   -3285.75800544 Ry
     estimated scf accuracy    <      43.88918656 Ry

     iteration # 62     ecut=    30.00 Ry     beta=0.70
     Davidson diagonalization with overlap
     ethr =  1.00E-02,  avg # of iterations =  6.0

     negative rho (up, down):  1.211E-01 0.000E+00

     total cpu time spent up to now is       30.0 secs

     total energy              =      22.56719125 Ry
     Harris-Foulkes estimate   =    -185.41854498 Ry
     estimated scf accuracy    <      45.55046016 Ry

     iteration # 63     ecut=    30.00 Ry     beta=0.70
     Davidson diagonalization with overlap
     ethr =  1.00E-02,  avg # of iterations =  6.0

     negative rho (up, down):  3.564E-01 0.000E+00

     total cpu time spent up to now is       30.1 secs

     total energy              =    -256.59705418 Ry
     Harris-Foulkes estimate   =   -1290.77125690 Ry
     estimated scf accuracy    <      39.04996580 Ry

     iteration # 64     ecut=    30.00 Ry     beta=0.70
     Davidson diagonalization with overlap
     ethr =  1.00E-02,  avg # of iterations =  5.0

     negative rho (up, down):  5.188E-01 0.000E+00

     total cpu time spent up to now is       30.1 secs

     total energy              =   -1367.90121227 Ry
     Harris-Foulkes estimate   =   -1103.50926307 Ry
     estimated scf accuracy    <      57.83504450 Ry

     iteration # 65     ecut=    30.00 Ry     beta=0.70
     Davidson diagonalization with overlap
     ethr =  1.00E-02,  avg # of iterations =  8.0

     negative rho (up, down):  6.461E-01 0.000E+00

     total cpu time spent up to now is       30.2 secs

     total energy              =      59.10112580 Ry
     Harris-Foulkes estimate   =  -22591.05548110 Ry
     estimated scf accuracy    <      37.65330384 Ry

     iteration # 66     ecut=    30.00 Ry     beta=0.70
     Davidson diagonalization with overlap
     ethr =  1.00E-02,  avg # of iterations =  8.0

     negative rho (up, down):  7.484E-01 0.000E+00

     total cpu time spent up to now is       30.3 secs

     total energy              =     -61.19350180 Ry
     Harris-Foulkes estimate   =   -1630.38979782 Ry
     estimated scf accuracy    <      34.46716072 Ry

     iteration # 67     ecut=    30.00 Ry     beta=0.70
     Davidson diagonalization with overlap
     ethr =  1.00E-02,  avg # of iterations = 13.0

     negative rho (up, down):  9.501E-01 0.000E+00

     total cpu time spent up to now is       30.3 secs

     total energy              =  -11200.63179654 Ry
     Harris-Foulkes estimate   =  -12504.29500011 Ry
     estimated scf accuracy    <      32.52274234 Ry

     iteration # 68     ecut=    30.00 Ry     beta=0.70
     Davidson diagonalization with overlap
     ethr =  1.00E-02,  avg # of iterations =  9.0

     negative rho (up, down):  1.640E+00 0.000E+00

     total cpu time spent up to now is       30.4 secs

     total energy              =      53.77634963 Ry
     Harris-Foulkes estimate   =  -30066.63815325 Ry
     estimated scf accuracy    <      31.17426273 Ry

     iteration # 69     ecut=    30.00 Ry     beta=0.70
     Davidson diagonalization with overlap
     ethr =  1.00E-02,  avg # of iterations =  7.0

     negative rho (up, down):  5.583E-01 0.000E+00

     total cpu time spent up to now is       30.4 secs

     total energy              =   -1594.36072028 Ry
     Harris-Foulkes estimate   =   -3224.48590350 Ry
     estimated scf accuracy    <      22.02149460 Ry

     iteration # 70     ecut=    30.00 Ry     beta=0.70
     Davidson diagonalization with overlap
     ethr =  1.00E-02,  avg # of iterations =  7.0

     negative rho (up, down):  6.415E-01 0.000E+00

     total cpu time spent up to now is       30.5 secs

     total energy              =       8.61907326 Ry
     Harris-Foulkes estimate   =   -7851.13621371 Ry
     estimated scf accuracy    <      24.91592608 Ry

     iteration # 71     ecut=    30.00 Ry     beta=0.70
     Davidson diagonalization with overlap
     ethr =  1.00E-02,  avg # of iterations = 10.0

     negative rho (up, down):  6.546E-02 0.000E+00

     total cpu time spent up to now is       30.5 secs

     total energy              =      53.28902626 Ry
     Harris-Foulkes estimate   =   -1567.65719576 Ry
     estimated scf accuracy    <      20.10680046 Ry

     iteration # 72     ecut=    30.00 Ry     beta=0.70
     Davidson diagonalization with overlap
     ethr =  1.00E-02,  avg # of iterations =  6.0

     negative rho (up, down):  2.118E-01 0.000E+00

     total cpu time spent up to now is       30.6 secs

     total energy              =     124.32470808 Ry
     Harris-Foulkes estimate   =   -1815.79487032 Ry
     estimated scf accuracy    <      35.94066114 Ry

     iteration # 73     ecut=    30.00 Ry     beta=0.70
     Davidson diagonalization with overlap
     ethr =  1.00E-02,  avg # of iterations =  9.0

     negative rho (up, down):  1.160E-01 0.000E+00

     total cpu time spent up to now is       30.7 secs

     total energy              =      31.59434148 Ry
     Harris-Foulkes estimate   =    -627.16223205 Ry
     estimated scf accuracy    <      31.32084188 Ry

     iteration # 74     ecut=    30.00 Ry     beta=0.70
     Davidson diagonalization with overlap
     ethr =  1.00E-02,  avg # of iterations =  6.0

     negative rho (up, down):  8.944E-04 0.000E+00

     total cpu time spent up to now is       30.7 secs

     total energy              =      95.30048993 Ry
     Harris-Foulkes estimate   =   -1190.41312745 Ry
     estimated scf accuracy    <      20.92921575 Ry

     iteration # 75     ecut=    30.00 Ry     beta=0.70
     Davidson diagonalization with overlap
     ethr =  1.00E-02,  avg # of iterations =  8.0

     negative rho (up, down):  2.579E-03 0.000E+00

     total cpu time spent up to now is       30.8 secs

     total energy              =     -66.80406514 Ry
     Harris-Foulkes estimate   =     -75.51951586 Ry
     estimated scf accuracy    <      58.75430696 Ry

     iteration # 76     ecut=    30.00 Ry     beta=0.70
     Davidson diagonalization with overlap
     ethr =  1.00E-02,  avg # of iterations =  1.0

     negative rho (up, down):  2.264E-02 0.000E+00

     total cpu time spent up to now is       30.8 secs

     total energy              =     -57.93558008 Ry
     Harris-Foulkes estimate   =     -66.84439096 Ry
     estimated scf accuracy    <      47.13014978 Ry

     iteration # 77     ecut=    30.00 Ry     beta=0.70
     Davidson diagonalization with overlap
     ethr =  1.00E-02,  avg # of iterations =  6.0

     negative rho (up, down):  1.319E-02 0.000E+00

     total cpu time spent up to now is       30.8 secs

     total energy              =      28.30040034 Ry
     Harris-Foulkes estimate   =    -166.38878209 Ry
     estimated scf accuracy    <      12.66045651 Ry

     iteration # 78     ecut=    30.00 Ry     beta=0.70
     Davidson diagonalization with overlap
     ethr =  1.00E-02,  avg # of iterations =  7.0

     negative rho (up, down):  5.650E-02 0.000E+00

     total cpu time spent up to now is       30.9 secs

     total energy              =    -118.80797922 Ry
     Harris-Foulkes estimate   =     -69.79735828 Ry
     estimated scf accuracy    <      51.34954597 Ry

     iteration # 79     ecut=    30.00 Ry     beta=0.70
     Davidson diagonalization with overlap
     ethr =  1.00E-02,  avg # of iterations =  4.0

     negative rho (up, down):  3.351E-02 0.000E+00

     total cpu time spent up to now is       30.9 secs

     total energy              =      28.81429688 Ry
     Harris-Foulkes estimate   =    -877.07550190 Ry
     estimated scf accuracy    <      36.07197242 Ry

     iteration # 80     ecut=    30.00 Ry     beta=0.70
     Davidson diagonalization with overlap
     ethr =  1.00E-02,  avg # of iterations =  7.0

     negative rho (up, down):  1.116E-02 0.000E+00

     total cpu time spent up to now is       31.0 secs

     total energy              =      30.83606179 Ry
     Harris-Foulkes estimate   =    -147.84355108 Ry
     estimated scf accuracy    <      19.88510490 Ry

     iteration # 81     ecut=    30.00 Ry     beta=0.70
     Davidson diagonalization with overlap
     ethr =  1.00E-02,  avg # of iterations =  6.0

     negative rho (up, down):  6.809E-02 0.000E+00

     total cpu time spent up to now is       31.0 secs

     total energy              =     -58.28036652 Ry
     Harris-Foulkes estimate   =     -65.10239571 Ry
     estimated scf accuracy    <      44.52411993 Ry

     iteration # 82     ecut=    30.00 Ry     beta=0.70
     Davidson diagonalization with overlap
     ethr =  1.00E-02,  avg # of iterations =  5.0

     negative rho (up, down):  9.325E-02 0.000E+00

     total cpu time spent up to now is       31.1 secs

     total energy              =      -7.93974232 Ry
     Harris-Foulkes estimate   =    -225.24665917 Ry
     estimated scf accuracy    <      22.09691628 Ry

     iteration # 83     ecut=    30.00 Ry     beta=0.70
     Davidson diagonalization with overlap
     ethr =  1.00E-02,  avg # of iterations =  8.0

     negative rho (up, down):  6.568E-02 0.000E+00

     total cpu time spent up to now is       31.1 secs

     total energy              =     125.76688503 Ry
     Harris-Foulkes estimate   =    -844.82865738 Ry
     estimated scf accuracy    <      35.06563334 Ry

     iteration # 84     ecut=    30.00 Ry     beta=0.70
     Davidson diagonalization with overlap
     ethr =  1.00E-02,  avg # of iterations = 10.0

     negative rho (up, down):  1.581E-04 0.000E+00

     total cpu time spent up to now is       31.2 secs

     total energy              =     140.14248024 Ry
     Harris-Foulkes estimate   =    -956.79940755 Ry
     estimated scf accuracy    <      35.27131366 Ry

     iteration # 85     ecut=    30.00 Ry     beta=0.70
     Davidson diagonalization with overlap
     ethr =  1.00E-02,  avg # of iterations =  5.0

     negative rho (up, down):  1.647E-02 0.000E+00

     total cpu time spent up to now is       31.3 secs

     total energy              =     -47.01109118 Ry
     Harris-Foulkes estimate   =     -53.51225724 Ry
     estimated scf accuracy    <      30.46901794 Ry

     iteration # 86     ecut=    30.00 Ry     beta=0.70
     Davidson diagonalization with overlap
     ethr =  1.00E-02,  avg # of iterations = 11.0

     negative rho (up, down):  6.632E-02 0.000E+00

     total cpu time spent up to now is       31.3 secs

     total energy              =      81.77847575 Ry
     Harris-Foulkes estimate   =    -399.40313855 Ry
     estimated scf accuracy    <      30.24744922 Ry

     iteration # 87     ecut=    30.00 Ry     beta=0.70
     Davidson diagonalization with overlap
     ethr =  1.00E-02,  avg # of iterations =  5.0

     negative rho (up, down):  4.011E-02 0.000E+00

     total cpu time spent up to now is       31.4 secs

     total energy              =      73.79791996 Ry
     Harris-Foulkes estimate   =   -1106.71437488 Ry
     estimated scf accuracy    <      16.27461609 Ry

     iteration # 88     ecut=    30.00 Ry     beta=0.70
     Davidson diagonalization with overlap
     ethr =  1.00E-02,  avg # of iterations =  5.0

     negative rho (up, down):  5.446E-05 0.000E+00

     total cpu time spent up to now is       31.4 secs

     total energy              =      25.85679005 Ry
     Harris-Foulkes estimate   =    -139.41600308 Ry
     estimated scf accuracy    <      12.41269836 Ry

     iteration # 89     ecut=    30.00 Ry     beta=0.70
     Davidson diagonalization with overlap
     ethr =  1.00E-02,  avg # of iterations =  4.0

     negative rho (up, down):  3.262E-04 0.000E+00

     total cpu time spent up to now is       31.4 secs

     total energy              =     -45.51257543 Ry
     Harris-Foulkes estimate   =     -49.13418785 Ry
     estimated scf accuracy    <      24.99280806 Ry

     iteration # 90     ecut=    30.00 Ry     beta=0.70
     Davidson diagonalization with overlap
     ethr =  1.00E-02,  avg # of iterations =  1.0

     negative rho (up, down):  1.699E-03 0.000E+00

     total cpu time spent up to now is       31.5 secs

     total energy              =     -42.78173152 Ry
     Harris-Foulkes estimate   =     -45.53605765 Ry
     estimated scf accuracy    <      20.42122578 Ry

     iteration # 91     ecut=    30.00 Ry     beta=0.70
     Davidson diagonalization with overlap
     ethr =  1.00E-02,  avg # of iterations =  1.0

     negative rho (up, down):  2.735E-02 0.000E+00

     total cpu time spent up to now is       31.5 secs

     total energy              =     -37.54056694 Ry
     Harris-Foulkes estimate   =     -42.79773008 Ry
     estimated scf accuracy    <      16.89342127 Ry

     iteration # 92     ecut=    30.00 Ry     beta=0.70
     Davidson diagonalization with overlap
     ethr =  1.00E-02,  avg # of iterations = 10.0

     negative rho (up, down):  2.544E-01 0.000E+00

     total cpu time spent up to now is       31.6 secs

     total energy              =    -329.39960802 Ry
     Harris-Foulkes estimate   =    -153.84418934 Ry
     estimated scf accuracy    <      19.93994929 Ry

     iteration # 93     ecut=    30.00 Ry     beta=0.70
     Davidson diagonalization with overlap
     ethr =  1.00E-02,  avg # of iterations =  5.0

     negative rho (up, down):  1.199E-01 0.000E+00

     total cpu time spent up to now is       31.6 secs

     total energy              =     135.99288104 Ry
     Harris-Foulkes estimate   =    -992.92547672 Ry
     estimated scf accuracy    <      44.32096499 Ry

     iteration # 94     ecut=    30.00 Ry     beta=0.70
     Davidson diagonalization with overlap
     ethr =  1.00E-02,  avg # of iterations =  8.0

     negative rho (up, down):  5.815E-02 0.000E+00

     total cpu time spent up to now is       31.7 secs

     total energy              =    -800.29547661 Ry
     Harris-Foulkes estimate   =    -195.20227037 Ry
     estimated scf accuracy    <      57.78638020 Ry

     iteration # 95     ecut=    30.00 Ry     beta=0.70
     Davidson diagonalization with overlap
     ethr =  1.00E-02,  avg # of iterations =  9.0

     negative rho (up, down):  5.860E-03 0.000E+00

     total cpu time spent up to now is       31.7 secs

     total energy              =      54.82918915 Ry
     Harris-Foulkes estimate   =   -1214.66513957 Ry
     estimated scf accuracy    <      23.77004319 Ry

     iteration # 96     ecut=    30.00 Ry     beta=0.70
     Davidson diagonalization with overlap
     ethr =  1.00E-02,  avg # of iterations =  6.0

     negative rho (up, down):  5.784E-02 0.000E+00

     total cpu time spent up to now is       31.8 secs

     total energy              =      -3.01326694 Ry
     Harris-Foulkes estimate   =     -61.81964577 Ry
     estimated scf accuracy    <      11.75814421 Ry

     iteration # 97     ecut=    30.00 Ry     beta=0.70
     Davidson diagonalization with overlap
     ethr =  1.00E-02,  avg # of iterations =  5.0

     negative rho (up, down):  6.387E-02 0.000E+00

     total cpu time spent up to now is       31.8 secs

     total energy              =      64.62488090 Ry
     Harris-Foulkes estimate   =    -171.74316327 Ry
     estimated scf accuracy    <      28.53091681 Ry

     iteration # 98     ecut=    30.00 Ry     beta=0.70
     Davidson diagonalization with overlap
     ethr =  1.00E-02,  avg # of iterations =  5.0

     negative rho (up, down):  8.770E-02 0.000E+00

     total cpu time spent up to now is       31.9 secs

     total energy              =     -41.12527490 Ry
     Harris-Foulkes estimate   =     -43.11371734 Ry
     estimated scf accuracy    <      16.91086911 Ry

     iteration # 99     ecut=    30.00 Ry     beta=0.70
     Davidson diagonalization with overlap
     ethr =  1.00E-02,  avg # of iterations =  8.0

     negative rho (up, down):  7.834E-02 0.000E+00

     total cpu time spent up to now is       31.9 secs

     total energy              =      -3.84088083 Ry
     Harris-Foulkes estimate   =    -447.93705260 Ry
     estimated scf accuracy    <      33.60249392 Ry

     iteration #100     ecut=    30.00 Ry     beta=0.70
     Davidson diagonalization with overlap
     ethr =  1.00E-02,  avg # of iterations =  9.0

     negative rho (up, down):  7.812E-02 0.000E+00

     total cpu time spent up to now is       32.0 secs

     total energy              =     127.00435126 Ry
     Harris-Foulkes estimate   =    -442.22774203 Ry
     estimated scf accuracy    <      19.85014575 Ry

     End of self-consistent calculation

     convergence NOT achieved after 100 iterations: stopping

     Writing output data file pwscf.save
 
     init_run     :      0.09s CPU      0.11s WALL (       1 calls)
     electrons    :     20.19s CPU     26.58s WALL (      20 calls)
     update_pot   :      2.41s CPU      3.66s WALL (      19 calls)
     forces       :      0.50s CPU      0.51s WALL (      19 calls)

     Called by init_run:
     wfcinit      :      0.01s CPU      0.02s WALL (       1 calls)
     potinit      :      0.02s CPU      0.03s WALL (       1 calls)

     Called by electrons:
     c_bands      :      8.78s CPU      9.62s WALL (     618 calls)
     sum_band     :      1.84s CPU      2.00s WALL (     618 calls)
     v_of_rho     :      4.67s CPU      5.21s WALL (     638 calls)
     mix_rho      :      4.11s CPU      7.34s WALL (     618 calls)

     Called by c_bands:
     init_us_2    :      0.06s CPU      0.07s WALL (    1237 calls)
     cegterg      :      8.61s CPU      9.24s WALL (     618 calls)

     Called by sum_band:

     Called by *egterg:
     h_psi        :      7.26s CPU      7.78s WALL (    2539 calls)
     g_psi        :      0.06s CPU      0.07s WALL (    1920 calls)
     cdiaghg      :      0.49s CPU      0.54s WALL (    2519 calls)

     Called by h_psi:
     h_psi:pot    :      7.22s CPU      7.74s WALL (    2539 calls)
     h_psi:calbec :      0.18s CPU      0.26s WALL (    2539 calls)
     vloc_psi     :      7.01s CPU      7.45s WALL (    2539 calls)
     add_vuspsi   :      0.02s CPU      0.02s WALL (    2539 calls)

     General routines
     calbec       :      0.31s CPU      0.45s WALL (    2633 calls)
     fft          :      3.35s CPU      3.69s WALL (    7056 calls)
     fftw         :      7.46s CPU      8.00s WALL (   32866 calls)
     davcio       :      0.68s CPU      2.69s WALL (   10593 calls)
 
     Parallel routines
     fft_scatter  :      4.69s CPU      5.36s WALL (   39922 calls)
 
     PWSCF        :    23.73s CPU        32.06s WALL

 
   This run was terminated on:   0: 3:37  11Feb2018            

=------------------------------------------------------------------------------=
   JOB DONE.
=------------------------------------------------------------------------------=
