
     Program PWSCF v.6.0 (svn rev. 13079) starts on 11Feb2018 at  0: 7:23 

     This program is part of the open-source Quantum ESPRESSO suite
     for quantum simulation of materials; please cite
         "P. Giannozzi et al., J. Phys.:Condens. Matter 21 395502 (2009);
          URL http://www.quantum-espresso.org", 
     in publications or presentations arising from this work. More details at
     http://www.quantum-espresso.org/quote

     Parallel version (MPI), running on    28 processors
     R & G space division:  proc/nbgrp/npool/nimage =      28
     Reading input from inputs/water-1-md/136.in

     Current dimensions of program PWSCF are:
     Max number of different atomic species (ntypx) = 10
     Max number of k-points (npk) =  40000
     Max angular momentum in pseudopotentials (lmaxx) =  3

     Subspace diagonalization in iterative solution of the eigenvalue problem:
     a serial algorithm will be used

 
     Parallelization info
     --------------------
     sticks:   dense  smooth     PW     G-vecs:    dense   smooth      PW
     Min         136     136     33                 6338     6338     787
     Max         137     137     34                 6341     6341     792
     Sum        3809    3809    949               177509   177509   22119
 


     bravais-lattice index     =            1
     lattice parameter (alat)  =      20.0000  a.u.
     unit-cell volume          =    8000.0000 (a.u.)^3
     number of atoms/cell      =            3
     number of atomic types    =            2
     number of electrons       =         8.00
     number of Kohn-Sham states=            8
     kinetic-energy cutoff     =      30.0000  Ry
     charge density cutoff     =     120.0000  Ry
     convergence threshold     =      1.0E-08
     mixing beta               =       0.7000
     number of iterations used =            8  plain     mixing
     Exchange-correlation      = BLYP ( 1  3  1  3 0 0)
     nstep                     =         5000


     celldm(1)=  20.000000  celldm(2)=   0.000000  celldm(3)=   0.000000
     celldm(4)=   0.000000  celldm(5)=   0.000000  celldm(6)=   0.000000

     crystal axes: (cart. coord. in units of alat)
               a(1) = (   1.000000   0.000000   0.000000 )  
               a(2) = (   0.000000   1.000000   0.000000 )  
               a(3) = (   0.000000   0.000000   1.000000 )  

     reciprocal axes: (cart. coord. in units 2 pi/alat)
               b(1) = (  1.000000  0.000000  0.000000 )  
               b(2) = (  0.000000  1.000000  0.000000 )  
               b(3) = (  0.000000  0.000000  1.000000 )  


     PseudoPot. # 1 for  H read from file:
     ./H.blyp-hgh.UPF
     MD5 check sum: c576e69559cde411e611be972c763230
     Pseudo is Norm-conserving, Zval =  1.0
     Generated in analytical, separable form
     Using radial grid of  929 points,  0 beta functions with: 

     PseudoPot. # 2 for  O read from file:
     ./O.blyp-hgh.UPF
     MD5 check sum: d0b7156309aa9befef28faac7bc56342
     Pseudo is Norm-conserving, Zval =  6.0
     Generated in analytical, separable form
     Using radial grid of 1095 points,  1 beta functions with: 
                l(1) =   0

     atomic species   valence    mass     pseudopotential
        H              1.00     1.01000      H( 1.00)
        O              6.00    16.00000      O( 1.00)

     No symmetry found



   Cartesian axes

     site n.     atom                  positions (alat units)
         1           H   tau(   1) = (   0.9996841   0.4562702   0.3640635  )
         2           H   tau(   2) = (   0.1931214   0.7399982   0.5516724  )
         3           O   tau(   3) = (   0.7705305   0.0380166   0.5206406  )

     number of k points=     1  Marzari-Vanderbilt smearing, width (Ry)=  0.0250
                       cart. coord. in units 2pi/alat
        k(    1) = (   0.0000000   0.0000000   0.0000000), wk =   2.0000000

     Dense  grid:   177509 G-vectors     FFT dimensions: (  72,  72,  72)

     Estimated max dynamical RAM per process >       6.09Mb

     Estimated total allocated dynamical RAM >     170.64Mb

     Initial potential from superposition of free atoms
     Check: negative starting charge=   -0.351267

     starting charge    7.99998, renormalised to    8.00000

     negative rho (up, down):  3.513E-01 0.000E+00
     Starting wfc are    6 randomized atomic wfcs +    2 random wfc

     total cpu time spent up to now is        0.2 secs

     per-process dynamical memory:    18.8 Mb

     Self-consistent Calculation

     iteration #  1     ecut=    30.00 Ry     beta=0.70
     Davidson diagonalization with overlap
     ethr =  1.00E-02,  avg # of iterations =  7.0

     negative rho (up, down):  8.559E-02 0.000E+00

     total cpu time spent up to now is        0.3 secs

     total energy              =     -28.07329210 Ry
     Harris-Foulkes estimate   =     -32.07298074 Ry
     estimated scf accuracy    <       4.59500585 Ry

     iteration #  2     ecut=    30.00 Ry     beta=0.70
     Davidson diagonalization with overlap
     ethr =  1.00E-02,  avg # of iterations =  4.0

     negative rho (up, down):  6.269E-02 0.000E+00

     total cpu time spent up to now is        0.3 secs

     total energy              =     -32.65742876 Ry
     Harris-Foulkes estimate   =     -37.96190777 Ry
     estimated scf accuracy    <      12.92397479 Ry

     iteration #  3     ecut=    30.00 Ry     beta=0.70
     Davidson diagonalization with overlap
     ethr =  1.00E-02,  avg # of iterations =  2.0

     negative rho (up, down):  6.465E-02 0.000E+00

     total cpu time spent up to now is        0.4 secs

     total energy              =     -33.20020268 Ry
     Harris-Foulkes estimate   =     -32.99607625 Ry
     estimated scf accuracy    <       5.01049094 Ry

     iteration #  4     ecut=    30.00 Ry     beta=0.70
     Davidson diagonalization with overlap
     ethr =  1.00E-02,  avg # of iterations =  1.0

     negative rho (up, down):  2.585E-02 0.000E+00

     total cpu time spent up to now is        0.4 secs

     total energy              =     -30.20029081 Ry
     Harris-Foulkes estimate   =     -33.20074375 Ry
     estimated scf accuracy    <       5.31060901 Ry

     iteration #  5     ecut=    30.00 Ry     beta=0.70
     Davidson diagonalization with overlap
     ethr =  1.00E-02,  avg # of iterations =  4.0

     negative rho (up, down):  5.386E-03 0.000E+00

     total cpu time spent up to now is        0.4 secs

     total energy              =     -32.65095479 Ry
     Harris-Foulkes estimate   =     -33.21187933 Ry
     estimated scf accuracy    <       9.36086360 Ry

     iteration #  6     ecut=    30.00 Ry     beta=0.70
     Davidson diagonalization with overlap
     ethr =  1.00E-02,  avg # of iterations =  4.0

     negative rho (up, down):  7.536E-04 0.000E+00

     total cpu time spent up to now is        0.5 secs

     total energy              =     -32.66170962 Ry
     Harris-Foulkes estimate   =     -32.76437916 Ry
     estimated scf accuracy    <       5.76474516 Ry

     iteration #  7     ecut=    30.00 Ry     beta=0.70
     Davidson diagonalization with overlap
     ethr =  1.00E-02,  avg # of iterations =  1.0

     negative rho (up, down):  8.218E-06 0.000E+00

     total cpu time spent up to now is        0.5 secs

     total energy              =     -31.46639439 Ry
     Harris-Foulkes estimate   =     -32.66473615 Ry
     estimated scf accuracy    <       5.56020910 Ry

     iteration #  8     ecut=    30.00 Ry     beta=0.70
     Davidson diagonalization with overlap
     ethr =  1.00E-02,  avg # of iterations =  2.0

     total cpu time spent up to now is        0.5 secs

     total energy              =     -31.39579521 Ry
     Harris-Foulkes estimate   =     -31.50634754 Ry
     estimated scf accuracy    <       1.51062882 Ry

     iteration #  9     ecut=    30.00 Ry     beta=0.70
     Davidson diagonalization with overlap
     ethr =  1.00E-02,  avg # of iterations =  1.0

     negative rho (up, down):  2.174E-08 0.000E+00

     total cpu time spent up to now is        0.6 secs

     total energy              =     -31.57822648 Ry
     Harris-Foulkes estimate   =     -31.57332917 Ry
     estimated scf accuracy    <       2.72290869 Ry

     iteration # 10     ecut=    30.00 Ry     beta=0.70
     Davidson diagonalization with overlap
     ethr =  1.00E-02,  avg # of iterations =  1.0

     total cpu time spent up to now is        0.6 secs

     total energy              =     -31.18026910 Ry
     Harris-Foulkes estimate   =     -31.57842614 Ry
     estimated scf accuracy    <       2.75474883 Ry

     iteration # 11     ecut=    30.00 Ry     beta=0.70
     Davidson diagonalization with overlap
     ethr =  1.00E-02,  avg # of iterations =  1.0

     total cpu time spent up to now is        0.6 secs

     total energy              =     -31.81001845 Ry
     Harris-Foulkes estimate   =     -31.81131426 Ry
     estimated scf accuracy    <       4.06434608 Ry

     iteration # 12     ecut=    30.00 Ry     beta=0.70
     Davidson diagonalization with overlap
     ethr =  1.00E-02,  avg # of iterations =  1.0

     total cpu time spent up to now is        0.7 secs

     total energy              =     -31.79678706 Ry
     Harris-Foulkes estimate   =     -31.81018553 Ry
     estimated scf accuracy    <       4.06348030 Ry

     iteration # 13     ecut=    30.00 Ry     beta=0.70
     Davidson diagonalization with overlap
     ethr =  1.00E-02,  avg # of iterations =  1.0

     negative rho (up, down):  1.501E-08 0.000E+00

     total cpu time spent up to now is        0.7 secs

     total energy              =     -31.61083908 Ry
     Harris-Foulkes estimate   =     -31.79679522 Ry
     estimated scf accuracy    <       4.04805488 Ry

     iteration # 14     ecut=    30.00 Ry     beta=0.70
     Davidson diagonalization with overlap
     ethr =  1.00E-02,  avg # of iterations =  1.0

     negative rho (up, down):  3.807E-07 0.000E+00

     total cpu time spent up to now is        0.7 secs

     total energy              =     -31.42694894 Ry
     Harris-Foulkes estimate   =     -31.61089493 Ry
     estimated scf accuracy    <       4.10237590 Ry

     iteration # 15     ecut=    30.00 Ry     beta=0.70
     Davidson diagonalization with overlap
     ethr =  1.00E-02,  avg # of iterations =  1.0

     total cpu time spent up to now is        0.8 secs

     total energy              =     -31.49131605 Ry
     Harris-Foulkes estimate   =     -31.49717090 Ry
     estimated scf accuracy    <       0.52310750 Ry

     iteration # 16     ecut=    30.00 Ry     beta=0.70
     Davidson diagonalization with overlap
     ethr =  6.54E-03,  avg # of iterations =  1.0

     total cpu time spent up to now is        0.8 secs

     total energy              =     -31.49514317 Ry
     Harris-Foulkes estimate   =     -31.49278845 Ry
     estimated scf accuracy    <       0.12475584 Ry

     iteration # 17     ecut=    30.00 Ry     beta=0.70
     Davidson diagonalization with overlap
     ethr =  1.56E-03,  avg # of iterations =  1.0

     total cpu time spent up to now is        0.8 secs

     total energy              =     -31.43717245 Ry
     Harris-Foulkes estimate   =     -31.49624323 Ry
     estimated scf accuracy    <       0.44463799 Ry

     iteration # 18     ecut=    30.00 Ry     beta=0.70
     Davidson diagonalization with overlap
     ethr =  1.56E-03,  avg # of iterations =  1.0

     total cpu time spent up to now is        0.8 secs

     total energy              =     -31.56346645 Ry
     Harris-Foulkes estimate   =     -31.61437755 Ry
     estimated scf accuracy    <       4.05023737 Ry

     iteration # 19     ecut=    30.00 Ry     beta=0.70
     Davidson diagonalization with overlap
     ethr =  1.56E-03,  avg # of iterations =  1.0

     negative rho (up, down):  8.344E-05 0.000E+00

     total cpu time spent up to now is        0.9 secs

     total energy              =     -31.45616755 Ry
     Harris-Foulkes estimate   =     -31.56061013 Ry
     estimated scf accuracy    <       4.73490013 Ry

     iteration # 20     ecut=    30.00 Ry     beta=0.70
     Davidson diagonalization with overlap
     ethr =  1.56E-03,  avg # of iterations =  1.0

     total cpu time spent up to now is        0.9 secs

     total energy              =     -31.49427720 Ry
     Harris-Foulkes estimate   =     -31.49220582 Ry
     estimated scf accuracy    <       0.07305397 Ry

     iteration # 21     ecut=    30.00 Ry     beta=0.70
     Davidson diagonalization with overlap
     ethr =  9.13E-04,  avg # of iterations =  1.0

     negative rho (up, down):  3.188E-04 0.000E+00

     total cpu time spent up to now is        0.9 secs

     total energy              =     -31.49239486 Ry
     Harris-Foulkes estimate   =     -31.49586836 Ry
     estimated scf accuracy    <       0.47031689 Ry

     iteration # 22     ecut=    30.00 Ry     beta=0.70
     Davidson diagonalization with overlap
     ethr =  9.13E-04,  avg # of iterations =  1.0

     negative rho (up, down):  4.678E-05 0.000E+00

     total cpu time spent up to now is        1.0 secs

     total energy              =     -31.49209174 Ry
     Harris-Foulkes estimate   =     -31.49309386 Ry
     estimated scf accuracy    <       0.16848216 Ry

     iteration # 23     ecut=    30.00 Ry     beta=0.70
     Davidson diagonalization with overlap
     ethr =  9.13E-04,  avg # of iterations =  1.0

     negative rho (up, down):  4.248E-06 0.000E+00

     total cpu time spent up to now is        1.0 secs

     total energy              =     -31.49192927 Ry
     Harris-Foulkes estimate   =     -31.49225176 Ry
     estimated scf accuracy    <       0.07763961 Ry

     iteration # 24     ecut=    30.00 Ry     beta=0.70
     Davidson diagonalization with overlap
     ethr =  9.13E-04,  avg # of iterations =  1.0

     negative rho (up, down):  2.465E-06 0.000E+00

     total cpu time spent up to now is        1.0 secs

     total energy              =     -31.49120545 Ry
     Harris-Foulkes estimate   =     -31.49196417 Ry
     estimated scf accuracy    <       0.04747181 Ry

     iteration # 25     ecut=    30.00 Ry     beta=0.70
     Davidson diagonalization with overlap
     ethr =  5.93E-04,  avg # of iterations =  1.0

     negative rho (up, down):  2.190E-07 0.000E+00

     total cpu time spent up to now is        1.1 secs

     total energy              =     -31.49145719 Ry
     Harris-Foulkes estimate   =     -31.49152871 Ry
     estimated scf accuracy    <       0.00097220 Ry

     iteration # 26     ecut=    30.00 Ry     beta=0.70
     Davidson diagonalization with overlap
     ethr =  1.22E-05,  avg # of iterations = 12.0

     negative rho (up, down):  8.226E-08 0.000E+00

     total cpu time spent up to now is        1.1 secs

     total energy              =     -31.49160367 Ry
     Harris-Foulkes estimate   =     -31.49159485 Ry
     estimated scf accuracy    <       0.00801036 Ry

     iteration # 27     ecut=    30.00 Ry     beta=0.70
     Davidson diagonalization with overlap
     ethr =  1.22E-05,  avg # of iterations =  1.0

     total cpu time spent up to now is        1.2 secs

     total energy              =     -31.49139633 Ry
     Harris-Foulkes estimate   =     -31.49160411 Ry
     estimated scf accuracy    <       0.00914797 Ry

     iteration # 28     ecut=    30.00 Ry     beta=0.70
     Davidson diagonalization with overlap
     ethr =  1.22E-05,  avg # of iterations =  1.0

     negative rho (up, down):  8.116E-08 0.000E+00

     total cpu time spent up to now is        1.2 secs

     total energy              =     -31.49151278 Ry
     Harris-Foulkes estimate   =     -31.49151812 Ry
     estimated scf accuracy    <       0.00032958 Ry

     iteration # 29     ecut=    30.00 Ry     beta=0.70
     Davidson diagonalization with overlap
     ethr =  4.12E-06,  avg # of iterations =  1.0

     total cpu time spent up to now is        1.2 secs

     total energy              =     -31.49151595 Ry
     Harris-Foulkes estimate   =     -31.49151623 Ry
     estimated scf accuracy    <       0.00000073 Ry

     iteration # 30     ecut=    30.00 Ry     beta=0.70
     Davidson diagonalization with overlap
     ethr =  9.17E-09,  avg # of iterations =  1.0

     total cpu time spent up to now is        1.3 secs

     total energy              =     -31.49151575 Ry
     Harris-Foulkes estimate   =     -31.49151596 Ry
     estimated scf accuracy    <       0.00000006 Ry

     iteration # 31     ecut=    30.00 Ry     beta=0.70
     Davidson diagonalization with overlap
     ethr =  7.36E-10,  avg # of iterations =  1.0

     total cpu time spent up to now is        1.3 secs

     total energy              =     -31.49151552 Ry
     Harris-Foulkes estimate   =     -31.49151575 Ry
     estimated scf accuracy    <       0.00000002 Ry

     iteration # 32     ecut=    30.00 Ry     beta=0.70
     Davidson diagonalization with overlap
     ethr =  2.49E-10,  avg # of iterations =  1.0

     total cpu time spent up to now is        1.3 secs

     End of self-consistent calculation

          k = 0.0000 0.0000 0.0000 ( 22119 PWs)   bands (ev):

   -23.6454  -7.0583  -7.0563  -7.0547  -7.0097  -6.8820  -0.2251   0.6298

     the Fermi energy is    -6.9208 ev

!    total energy              =     -31.49151552 Ry
     Harris-Foulkes estimate   =     -31.49151552 Ry
     estimated scf accuracy    <          1.5E-09 Ry

     convergence has been achieved in  32 iterations

     Forces acting on atoms (Ry/au):

     atom    1 type  1   force =     0.00064082    0.00126814    0.00080805
     atom    2 type  1   force =    -0.00095341   -0.00083595   -0.00082128
     atom    3 type  2   force =     0.00031259   -0.00043219    0.00001323

     Total force =     0.002289     Total SCF correction =     0.000015

     Molecular Dynamics Calculation

     Starting temperature  =  1000.00 K

     temperature is controlled by Andersen thermostat
     Collision frequency = 1.0000/timestep
     mass H                =     1.01
     mass O                =    16.00
     Time step             =   100.00 a.u.,  4.8378 femto-seconds

     Entering Dynamics:    iteration =     1
                           time      =   0.0048 pico-seconds


     Andersen thermostat:    3 collisions

ATOMIC_POSITIONS (bohr)
H       20.228720694   9.408832014   7.087531043
H        3.863780967  15.024437571  10.840091127
O       15.395687776   0.728270712  10.437247424


     kinetic energy (Ekin) =     0.01319564 Ry
     temperature           =   694.47456190 K 
     Ekin + Etot (const)   =   -31.47831989 Ry

     Linear momentum :   -0.0000000000   -0.0000000000    0.0000000000

     Writing output data file pwscf.save
     Check: negative starting charge=   -0.351267
     NEW-OLD atomic charge density approx. for the potential
     Check: negative starting charge=   -0.352280

     negative rho (up, down):  7.934E-02 0.000E+00

     total cpu time spent up to now is        1.6 secs

     per-process dynamical memory:    20.4 Mb

     Self-consistent Calculation

     iteration #  1     ecut=    30.00 Ry     beta=0.70
     Davidson diagonalization with overlap
     ethr =  1.00E-06,  avg # of iterations = 17.0

     negative rho (up, down):  1.830E-02 0.000E+00

     total cpu time spent up to now is        1.7 secs

     total energy              =     -31.45035784 Ry
     Harris-Foulkes estimate   =     -31.43022277 Ry
     estimated scf accuracy    <       0.03067399 Ry

     iteration #  2     ecut=    30.00 Ry     beta=0.70
     Davidson diagonalization with overlap
     ethr =  3.83E-04,  avg # of iterations =  2.0

     negative rho (up, down):  1.708E-02 0.000E+00

     total cpu time spent up to now is        1.7 secs

     total energy              =     -31.46727766 Ry
     Harris-Foulkes estimate   =     -31.85567488 Ry
     estimated scf accuracy    <       4.20606358 Ry

     iteration #  3     ecut=    30.00 Ry     beta=0.70
     Davidson diagonalization with overlap
     ethr =  3.83E-04,  avg # of iterations =  2.0

     negative rho (up, down):  1.669E-02 0.000E+00

     total cpu time spent up to now is        1.7 secs

     total energy              =     -31.47242690 Ry
     Harris-Foulkes estimate   =     -31.48653151 Ry
     estimated scf accuracy    <       0.74805189 Ry

     iteration #  4     ecut=    30.00 Ry     beta=0.70
     Davidson diagonalization with overlap
     ethr =  3.83E-04,  avg # of iterations =  1.0

     negative rho (up, down):  5.208E-03 0.000E+00

     total cpu time spent up to now is        1.8 secs

     total energy              =     -31.45223632 Ry
     Harris-Foulkes estimate   =     -31.47877886 Ry
     estimated scf accuracy    <       0.34292745 Ry

     iteration #  5     ecut=    30.00 Ry     beta=0.70
     Davidson diagonalization with overlap
     ethr =  3.83E-04,  avg # of iterations =  1.0

     negative rho (up, down):  2.855E-03 0.000E+00

     total cpu time spent up to now is        1.8 secs

     total energy              =     -31.46202981 Ry
     Harris-Foulkes estimate   =     -31.54758785 Ry
     estimated scf accuracy    <       2.66861512 Ry

     iteration #  6     ecut=    30.00 Ry     beta=0.70
     Davidson diagonalization with overlap
     ethr =  3.83E-04,  avg # of iterations =  1.0

     negative rho (up, down):  6.130E-04 0.000E+00

     total cpu time spent up to now is        1.8 secs

     total energy              =     -31.49142807 Ry
     Harris-Foulkes estimate   =     -31.48987564 Ry
     estimated scf accuracy    <       0.01457289 Ry

     iteration #  7     ecut=    30.00 Ry     beta=0.70
     Davidson diagonalization with overlap
     ethr =  1.82E-04,  avg # of iterations =  5.0

     negative rho (up, down):  2.106E-04 0.000E+00

     total cpu time spent up to now is        1.9 secs

     total energy              =     -31.49174190 Ry
     Harris-Foulkes estimate   =     -31.49171196 Ry
     estimated scf accuracy    <       0.00163726 Ry

     iteration #  8     ecut=    30.00 Ry     beta=0.70
     Davidson diagonalization with overlap
     ethr =  2.05E-05,  avg # of iterations = 15.0

     negative rho (up, down):  1.367E-06 0.000E+00

     total cpu time spent up to now is        1.9 secs

     total energy              =     -31.49158053 Ry
     Harris-Foulkes estimate   =     -31.49174797 Ry
     estimated scf accuracy    <       0.00224376 Ry

     iteration #  9     ecut=    30.00 Ry     beta=0.70
     Davidson diagonalization with overlap
     ethr =  2.05E-05,  avg # of iterations =  1.0

     negative rho (up, down):  1.565E-07 0.000E+00

     total cpu time spent up to now is        1.9 secs

     total energy              =     -31.49175710 Ry
     Harris-Foulkes estimate   =     -31.49203818 Ry
     estimated scf accuracy    <       0.02896245 Ry

     iteration # 10     ecut=    30.00 Ry     beta=0.70
     Davidson diagonalization with overlap
     ethr =  2.05E-05,  avg # of iterations =  1.0

     total cpu time spent up to now is        2.0 secs

     total energy              =     -31.49160987 Ry
     Harris-Foulkes estimate   =     -31.49182793 Ry
     estimated scf accuracy    <       0.00747074 Ry

     iteration # 11     ecut=    30.00 Ry     beta=0.70
     Davidson diagonalization with overlap
     ethr =  2.05E-05,  avg # of iterations =  1.0

     total cpu time spent up to now is        2.0 secs

     total energy              =     -31.49174190 Ry
     Harris-Foulkes estimate   =     -31.49177683 Ry
     estimated scf accuracy    <       0.00216240 Ry

     iteration # 12     ecut=    30.00 Ry     beta=0.70
     Davidson diagonalization with overlap
     ethr =  2.05E-05,  avg # of iterations =  1.0

     total cpu time spent up to now is        2.0 secs

     total energy              =     -31.49175480 Ry
     Harris-Foulkes estimate   =     -31.49175614 Ry
     estimated scf accuracy    <       0.00006287 Ry

     iteration # 13     ecut=    30.00 Ry     beta=0.70
     Davidson diagonalization with overlap
     ethr =  7.86E-07,  avg # of iterations =  1.0

     total cpu time spent up to now is        2.1 secs

     total energy              =     -31.49175550 Ry
     Harris-Foulkes estimate   =     -31.49175547 Ry
     estimated scf accuracy    <       0.00000016 Ry

     iteration # 14     ecut=    30.00 Ry     beta=0.70
     Davidson diagonalization with overlap
     ethr =  1.98E-09,  avg # of iterations =  1.0

     total cpu time spent up to now is        2.1 secs

     total energy              =     -31.49175545 Ry
     Harris-Foulkes estimate   =     -31.49175551 Ry
     estimated scf accuracy    <       0.00000003 Ry

     iteration # 15     ecut=    30.00 Ry     beta=0.70
     Davidson diagonalization with overlap
     ethr =  4.09E-10,  avg # of iterations =  1.0

     total cpu time spent up to now is        2.1 secs

     End of self-consistent calculation

          k = 0.0000 0.0000 0.0000 ( 22119 PWs)   bands (ev):

   -23.6515  -7.0634  -7.0614  -7.0601  -7.0232  -6.8790  -0.2268   0.6232

     the Fermi energy is    -6.9263 ev

!    total energy              =     -31.49175546 Ry
     Harris-Foulkes estimate   =     -31.49175545 Ry
     estimated scf accuracy    <          6.8E-10 Ry

     convergence has been achieved in  15 iterations

     Forces acting on atoms (Ry/au):

     atom    1 type  1   force =     0.00073098    0.00159356    0.00120224
     atom    2 type  1   force =    -0.00123110   -0.00127814   -0.00088439
     atom    3 type  2   force =     0.00050012   -0.00031541   -0.00031785

     Total force =     0.002983     Total SCF correction =     0.000079

     Entering Dynamics:    iteration =     2
                           time      =   0.0097 pico-seconds


     Andersen thermostat:    3 collisions

ATOMIC_POSITIONS (bohr)
H       20.289074955   9.602292618   7.245721630
H        3.913664055  14.856702488  11.006725265
O       15.388729044   0.726646789  10.416742863


     kinetic energy (Ekin) =     0.00871513 Ry
     temperature           =   458.66956994 K 
     Ekin + Etot (const)   =   -31.48304033 Ry
     Message from routine dynamics:
     Total linear momentum <> 0

     Linear momentum :   -0.0482643422    0.4839037204    0.0463385468

     Writing output data file pwscf.save

     first order wave-functions extrapolation
     Check: negative starting charge=   -0.352280
     first order charge density extrapolation
     Check: negative starting charge=   -0.352846

     negative rho (up, down):  1.121E-01 0.000E+00

     total cpu time spent up to now is        2.5 secs

     per-process dynamical memory:    20.4 Mb

     Self-consistent Calculation

     iteration #  1     ecut=    30.00 Ry     beta=0.70
     Davidson diagonalization with overlap
     c_bands:  1 eigenvalues not converged
     ethr =  1.00E-06,  avg # of iterations = 20.0

     negative rho (up, down):  2.682E-02 0.000E+00

     total cpu time spent up to now is        2.6 secs

     total energy              =     -31.41099002 Ry
     Harris-Foulkes estimate   =     -31.41590369 Ry
     estimated scf accuracy    <       0.07027290 Ry

     iteration #  2     ecut=    30.00 Ry     beta=0.70
     Davidson diagonalization with overlap
     ethr =  8.78E-04,  avg # of iterations =  2.0

     negative rho (up, down):  2.429E-02 0.000E+00

     total cpu time spent up to now is        2.6 secs

     total energy              =     -31.48756354 Ry
     Harris-Foulkes estimate   =     -32.08075702 Ry
     estimated scf accuracy    <       4.61380570 Ry

     iteration #  3     ecut=    30.00 Ry     beta=0.70
     Davidson diagonalization with overlap
     ethr =  8.78E-04,  avg # of iterations =  2.0

     negative rho (up, down):  2.376E-02 0.000E+00

     total cpu time spent up to now is        2.6 secs

     total energy              =     -31.47499675 Ry
     Harris-Foulkes estimate   =     -31.50151070 Ry
     estimated scf accuracy    <       1.79943134 Ry

     iteration #  4     ecut=    30.00 Ry     beta=0.70
     Davidson diagonalization with overlap
     ethr =  8.78E-04,  avg # of iterations =  1.0

     negative rho (up, down):  1.656E-02 0.000E+00

     total cpu time spent up to now is        2.7 secs

     total energy              =     -31.36323060 Ry
     Harris-Foulkes estimate   =     -31.48116916 Ry
     estimated scf accuracy    <       1.23933693 Ry

     iteration #  5     ecut=    30.00 Ry     beta=0.70
     Davidson diagonalization with overlap
     ethr =  8.78E-04,  avg # of iterations =  1.0

     negative rho (up, down):  7.805E-03 0.000E+00

     total cpu time spent up to now is        2.7 secs

     total energy              =     -31.46262049 Ry
     Harris-Foulkes estimate   =     -31.60067255 Ry
     estimated scf accuracy    <       2.91593237 Ry

     iteration #  6     ecut=    30.00 Ry     beta=0.70
     Davidson diagonalization with overlap
     ethr =  8.78E-04,  avg # of iterations =  1.0

     negative rho (up, down):  2.017E-03 0.000E+00

     total cpu time spent up to now is        2.8 secs

     total energy              =     -31.49269824 Ry
     Harris-Foulkes estimate   =     -31.48674399 Ry
     estimated scf accuracy    <       0.14430965 Ry

     iteration #  7     ecut=    30.00 Ry     beta=0.70
     Davidson diagonalization with overlap
     ethr =  8.78E-04,  avg # of iterations =  1.0

     negative rho (up, down):  1.172E-03 0.000E+00

     total cpu time spent up to now is        2.8 secs

     total energy              =     -31.49250329 Ry
     Harris-Foulkes estimate   =     -31.49282977 Ry
     estimated scf accuracy    <       0.15020934 Ry

     iteration #  8     ecut=    30.00 Ry     beta=0.70
     Davidson diagonalization with overlap
     ethr =  8.78E-04,  avg # of iterations =  1.0

     negative rho (up, down):  3.797E-06 0.000E+00

     total cpu time spent up to now is        2.9 secs

     total energy              =     -31.49097123 Ry
     Harris-Foulkes estimate   =     -31.49269705 Ry
     estimated scf accuracy    <       0.06389136 Ry

     iteration #  9     ecut=    30.00 Ry     beta=0.70
     Davidson diagonalization with overlap
     ethr =  7.99E-04,  avg # of iterations =  1.0

     negative rho (up, down):  1.123E-06 0.000E+00

     total cpu time spent up to now is        2.9 secs

     total energy              =     -31.49255099 Ry
     Harris-Foulkes estimate   =     -31.49262408 Ry
     estimated scf accuracy    <       0.02640867 Ry

     iteration # 10     ecut=    30.00 Ry     beta=0.70
     Davidson diagonalization with overlap
     ethr =  3.30E-04,  avg # of iterations =  3.0

     total cpu time spent up to now is        3.0 secs

     total energy              =     -31.49200455 Ry
     Harris-Foulkes estimate   =     -31.49255781 Ry
     estimated scf accuracy    <       0.01944042 Ry

     iteration # 11     ecut=    30.00 Ry     beta=0.70
     Davidson diagonalization with overlap
     ethr =  2.43E-04,  avg # of iterations =  1.0

     total cpu time spent up to now is        3.0 secs

     total energy              =     -31.49240810 Ry
     Harris-Foulkes estimate   =     -31.49241822 Ry
     estimated scf accuracy    <       0.00463225 Ry

     iteration # 12     ecut=    30.00 Ry     beta=0.70
     Davidson diagonalization with overlap
     ethr =  5.79E-05,  avg # of iterations = 13.0

     total cpu time spent up to now is        3.1 secs

     total energy              =     -31.49230832 Ry
     Harris-Foulkes estimate   =     -31.49240889 Ry
     estimated scf accuracy    <       0.00372889 Ry

     iteration # 13     ecut=    30.00 Ry     beta=0.70
     Davidson diagonalization with overlap
     ethr =  4.66E-05,  avg # of iterations =  1.0

     total cpu time spent up to now is        3.2 secs

     total energy              =     -31.49236942 Ry
     Harris-Foulkes estimate   =     -31.49237941 Ry
     estimated scf accuracy    <       0.00061544 Ry

     iteration # 14     ecut=    30.00 Ry     beta=0.70
     Davidson diagonalization with overlap
     ethr =  7.69E-06,  avg # of iterations =  1.0

     total cpu time spent up to now is        3.2 secs

     total energy              =     -31.49237221 Ry
     Harris-Foulkes estimate   =     -31.49237305 Ry
     estimated scf accuracy    <       0.00003017 Ry

     iteration # 15     ecut=    30.00 Ry     beta=0.70
     Davidson diagonalization with overlap
     ethr =  3.77E-07,  avg # of iterations =  8.0

     total cpu time spent up to now is        3.3 secs

     End of self-consistent calculation

          k = 0.0000 0.0000 0.0000 ( 22119 PWs)   bands (ev):

   -23.6623  -7.0736  -7.0711  -7.0700  -7.0468  -6.8716  -0.2288   0.6230

     the Fermi energy is    -6.9363 ev

!    total energy              =     -31.49237250 Ry
     Harris-Foulkes estimate   =     -31.49237250 Ry
     estimated scf accuracy    <          3.2E-09 Ry

     convergence has been achieved in  15 iterations

     Forces acting on atoms (Ry/au):

     atom    1 type  1   force =     0.00124874    0.00223847    0.00147901
     atom    2 type  1   force =    -0.00169170   -0.00172336   -0.00166664
     atom    3 type  2   force =     0.00044296   -0.00051511    0.00018763

     Total force =     0.004227     Total SCF correction =     0.000441
     SCF correction compared to forces is large: reduce conv_thr to get better values

     Entering Dynamics:    iteration =     3
                           time      =   0.0145 pico-seconds


     Andersen thermostat:    3 collisions

ATOMIC_POSITIONS (bohr)
H       20.524252529   9.343889934   7.350235795
H        4.038644249  14.910538742  11.327570788
O       15.365994085   0.739560045  10.389892033


     kinetic energy (Ekin) =     0.01610730 Ry
     temperature           =   847.71292626 K 
     Ekin + Etot (const)   =   -31.47626520 Ry
     Message from routine dynamics:
     Total linear momentum <> 0

     Linear momentum :    0.3047675616   -0.3500624036   -0.1369358232

     Writing output data file pwscf.save

     second order wave-functions extrapolation
     Check: negative starting charge=   -0.352846
     second order charge density extrapolation
     Check: negative starting charge=   -0.351726

     negative rho (up, down):  6.820E-02 0.000E+00

     total cpu time spent up to now is        3.6 secs

     per-process dynamical memory:    20.4 Mb

     Self-consistent Calculation

     iteration #  1     ecut=    30.00 Ry     beta=0.70
     Davidson diagonalization with overlap
     c_bands:  1 eigenvalues not converged
     ethr =  1.00E-06,  avg # of iterations = 20.0

     negative rho (up, down):  1.582E-02 0.000E+00

     total cpu time spent up to now is        3.7 secs

     total energy              =     -31.44250053 Ry
     Harris-Foulkes estimate   =     -31.43470929 Ry
     estimated scf accuracy    <       0.04267557 Ry

     iteration #  2     ecut=    30.00 Ry     beta=0.70
     Davidson diagonalization with overlap
     ethr =  5.33E-04,  avg # of iterations =  2.0

     negative rho (up, down):  1.460E-02 0.000E+00

     total cpu time spent up to now is        3.7 secs

     total energy              =     -31.48126611 Ry
     Harris-Foulkes estimate   =     -31.94945953 Ry
     estimated scf accuracy    <       4.36305215 Ry

     iteration #  3     ecut=    30.00 Ry     beta=0.70
     Davidson diagonalization with overlap
     ethr =  5.33E-04,  avg # of iterations =  2.0

     negative rho (up, down):  1.434E-02 0.000E+00

     total cpu time spent up to now is        3.8 secs

     total energy              =     -31.48108561 Ry
     Harris-Foulkes estimate   =     -31.49104584 Ry
     estimated scf accuracy    <       1.17949141 Ry

     iteration #  4     ecut=    30.00 Ry     beta=0.70
     Davidson diagonalization with overlap
     ethr =  5.33E-04,  avg # of iterations =  1.0

     negative rho (up, down):  7.987E-03 0.000E+00

     total cpu time spent up to now is        3.8 secs

     total energy              =     -31.42220295 Ry
     Harris-Foulkes estimate   =     -31.48437521 Ry
     estimated scf accuracy    <       0.68999341 Ry

     iteration #  5     ecut=    30.00 Ry     beta=0.70
     Davidson diagonalization with overlap
     ethr =  5.33E-04,  avg # of iterations =  1.0

     negative rho (up, down):  2.978E-03 0.000E+00

     total cpu time spent up to now is        3.8 secs

     total energy              =     -31.47044893 Ry
     Harris-Foulkes estimate   =     -31.56703787 Ry
     estimated scf accuracy    <       2.81954100 Ry

     iteration #  6     ecut=    30.00 Ry     beta=0.70
     Davidson diagonalization with overlap
     ethr =  5.33E-04,  avg # of iterations =  1.0

     negative rho (up, down):  8.823E-04 0.000E+00

     total cpu time spent up to now is        3.9 secs

     total energy              =     -31.49101208 Ry
     Harris-Foulkes estimate   =     -31.49153269 Ry
     estimated scf accuracy    <       0.19484410 Ry

     iteration #  7     ecut=    30.00 Ry     beta=0.70
     Davidson diagonalization with overlap
     ethr =  5.33E-04,  avg # of iterations =  1.0

     negative rho (up, down):  3.618E-04 0.000E+00

     total cpu time spent up to now is        3.9 secs

     total energy              =     -31.49151034 Ry
     Harris-Foulkes estimate   =     -31.49178846 Ry
     estimated scf accuracy    <       0.02839489 Ry

     iteration #  8     ecut=    30.00 Ry     beta=0.70
     Davidson diagonalization with overlap
     ethr =  3.55E-04,  avg # of iterations =  3.0

     negative rho (up, down):  1.478E-06 0.000E+00

     total cpu time spent up to now is        3.9 secs

     total energy              =     -31.49163069 Ry
     Harris-Foulkes estimate   =     -31.49164384 Ry
     estimated scf accuracy    <       0.00279503 Ry

     iteration #  9     ecut=    30.00 Ry     beta=0.70
     Davidson diagonalization with overlap
     ethr =  3.49E-05,  avg # of iterations = 14.0

     total cpu time spent up to now is        4.0 secs

     total energy              =     -31.49164711 Ry
     Harris-Foulkes estimate   =     -31.49164538 Ry
     estimated scf accuracy    <       0.00031061 Ry

     iteration # 10     ecut=    30.00 Ry     beta=0.70
     Davidson diagonalization with overlap
     ethr =  3.88E-06,  avg # of iterations =  3.0

     total cpu time spent up to now is        4.0 secs

     total energy              =     -31.49164311 Ry
     Harris-Foulkes estimate   =     -31.49164733 Ry
     estimated scf accuracy    <       0.00031195 Ry

     iteration # 11     ecut=    30.00 Ry     beta=0.70
     Davidson diagonalization with overlap
     ethr =  3.88E-06,  avg # of iterations =  1.0

     total cpu time spent up to now is        4.0 secs

     total energy              =     -31.49164285 Ry
     Harris-Foulkes estimate   =     -31.49164470 Ry
     estimated scf accuracy    <       0.00002331 Ry

     iteration # 12     ecut=    30.00 Ry     beta=0.70
     Davidson diagonalization with overlap
     ethr =  2.91E-07,  avg # of iterations =  1.0

     total cpu time spent up to now is        4.1 secs

     total energy              =     -31.49164436 Ry
     Harris-Foulkes estimate   =     -31.49164577 Ry
     estimated scf accuracy    <       0.00016320 Ry

     iteration # 13     ecut=    30.00 Ry     beta=0.70
     Davidson diagonalization with overlap
     ethr =  2.91E-07,  avg # of iterations =  1.0

     total cpu time spent up to now is        4.1 secs

     total energy              =     -31.49164375 Ry
     Harris-Foulkes estimate   =     -31.49164463 Ry
     estimated scf accuracy    <       0.00005616 Ry

     iteration # 14     ecut=    30.00 Ry     beta=0.70
     Davidson diagonalization with overlap
     ethr =  2.91E-07,  avg # of iterations =  1.0

     total cpu time spent up to now is        4.1 secs

     total energy              =     -31.49164402 Ry
     Harris-Foulkes estimate   =     -31.49164409 Ry
     estimated scf accuracy    <       0.00000231 Ry

     iteration # 15     ecut=    30.00 Ry     beta=0.70
     Davidson diagonalization with overlap
     ethr =  2.88E-08,  avg # of iterations =  1.0

     total cpu time spent up to now is        4.2 secs

     total energy              =     -31.49164400 Ry
     Harris-Foulkes estimate   =     -31.49164405 Ry
     estimated scf accuracy    <       0.00000002 Ry

     iteration # 16     ecut=    30.00 Ry     beta=0.70
     Davidson diagonalization with overlap
     ethr =  2.73E-10,  avg # of iterations =  2.0

     total cpu time spent up to now is        4.2 secs

     End of self-consistent calculation

          k = 0.0000 0.0000 0.0000 ( 22119 PWs)   bands (ev):

   -23.6519  -7.0624  -7.0616  -7.0603  -7.0231  -6.8807  -0.2284   0.6293

     the Fermi energy is    -6.9265 ev

!    total energy              =     -31.49164407 Ry
     Harris-Foulkes estimate   =     -31.49164401 Ry
     estimated scf accuracy    <          3.3E-10 Ry

     convergence has been achieved in  16 iterations

     Forces acting on atoms (Ry/au):

     atom    1 type  1   force =     0.00049160    0.00163336    0.00090318
     atom    2 type  1   force =    -0.00128102   -0.00109839   -0.00127926
     atom    3 type  2   force =     0.00078942   -0.00053497    0.00037608

     Total force =     0.003043     Total SCF correction =     0.000258

     Entering Dynamics:    iteration =     4
                           time      =   0.0194 pico-seconds


     Andersen thermostat:    3 collisions

ATOMIC_POSITIONS (bohr)
H       20.518010020   9.225497166   7.269102288
H        3.827891403  14.563787438  11.118173630
O       15.379691916   0.768922264  10.408231781


     kinetic energy (Ekin) =     0.02010425 Ry
     temperature           =  1058.06875798 K 
     Ekin + Etot (const)   =   -31.47153982 Ry
     Message from routine dynamics:
     Total linear momentum <> 0

     Linear momentum :    0.6585480540    0.4524520681   -0.2987964083

     Writing output data file pwscf.save

     second order wave-functions extrapolation
     Check: negative starting charge=   -0.351726
     second order charge density extrapolation
     Check: negative starting charge=   -0.352050

     negative rho (up, down):  6.065E-02 0.000E+00

     total cpu time spent up to now is        4.5 secs

     per-process dynamical memory:    20.4 Mb

     Self-consistent Calculation

     iteration #  1     ecut=    30.00 Ry     beta=0.70
     Davidson diagonalization with overlap
     c_bands:  1 eigenvalues not converged
     ethr =  1.00E-06,  avg # of iterations = 20.0

     negative rho (up, down):  1.369E-02 0.000E+00

     total cpu time spent up to now is        4.6 secs

     total energy              =     -31.46634315 Ry
     Harris-Foulkes estimate   =     -31.44236979 Ry
     estimated scf accuracy    <       0.01718100 Ry

     iteration #  2     ecut=    30.00 Ry     beta=0.70
     Davidson diagonalization with overlap
     ethr =  2.15E-04,  avg # of iterations =  2.0

     negative rho (up, down):  1.300E-02 0.000E+00

     total cpu time spent up to now is        4.6 secs

     total energy              =     -31.45831805 Ry
     Harris-Foulkes estimate   =     -31.74033213 Ry
     estimated scf accuracy    <       4.02633123 Ry

     iteration #  3     ecut=    30.00 Ry     beta=0.70
     Davidson diagonalization with overlap
     ethr =  2.15E-04,  avg # of iterations =  2.0

     negative rho (up, down):  1.262E-02 0.000E+00

     total cpu time spent up to now is        4.7 secs

     total energy              =     -31.46897012 Ry
     Harris-Foulkes estimate   =     -31.49699984 Ry
     estimated scf accuracy    <       0.74323402 Ry

     iteration #  4     ecut=    30.00 Ry     beta=0.70
     Davidson diagonalization with overlap
     ethr =  2.15E-04,  avg # of iterations =  1.0

     negative rho (up, down):  2.727E-03 0.000E+00

     total cpu time spent up to now is        4.7 secs

     total energy              =     -31.48520623 Ry
     Harris-Foulkes estimate   =     -31.48110511 Ry
     estimated scf accuracy    <       0.07363316 Ry

     iteration #  5     ecut=    30.00 Ry     beta=0.70
     Davidson diagonalization with overlap
     ethr =  2.15E-04,  avg # of iterations =  3.0

     negative rho (up, down):  1.625E-03 0.000E+00

     total cpu time spent up to now is        4.7 secs

     total energy              =     -31.48191712 Ry
     Harris-Foulkes estimate   =     -31.49767174 Ry
     estimated scf accuracy    <       0.60881059 Ry

     iteration #  6     ecut=    30.00 Ry     beta=0.70
     Davidson diagonalization with overlap
     ethr =  2.15E-04,  avg # of iterations =  1.0

     negative rho (up, down):  1.090E-04 0.000E+00

     total cpu time spent up to now is        4.8 secs

     total energy              =     -31.49155118 Ry
     Harris-Foulkes estimate   =     -31.49218648 Ry
     estimated scf accuracy    <       0.05207181 Ry

     iteration #  7     ecut=    30.00 Ry     beta=0.70
     Davidson diagonalization with overlap
     ethr =  2.15E-04,  avg # of iterations =  4.0

     negative rho (up, down):  8.131E-06 0.000E+00

     total cpu time spent up to now is        4.8 secs

     total energy              =     -31.49239754 Ry
     Harris-Foulkes estimate   =     -31.49248049 Ry
     estimated scf accuracy    <       0.00608899 Ry

     iteration #  8     ecut=    30.00 Ry     beta=0.70
     Davidson diagonalization with overlap
     ethr =  7.61E-05,  avg # of iterations =  8.0

     negative rho (up, down):  7.071E-07 0.000E+00

     total cpu time spent up to now is        4.9 secs

     total energy              =     -31.49242085 Ry
     Harris-Foulkes estimate   =     -31.49243653 Ry
     estimated scf accuracy    <       0.00030977 Ry

     iteration #  9     ecut=    30.00 Ry     beta=0.70
     Davidson diagonalization with overlap
     ethr =  3.87E-06,  avg # of iterations =  7.0

     total cpu time spent up to now is        4.9 secs

     total energy              =     -31.49243311 Ry
     Harris-Foulkes estimate   =     -31.49244999 Ry
     estimated scf accuracy    <       0.00124292 Ry

     iteration # 10     ecut=    30.00 Ry     beta=0.70
     Davidson diagonalization with overlap
     ethr =  3.87E-06,  avg # of iterations =  1.0

     total cpu time spent up to now is        4.9 secs

     total energy              =     -31.49243854 Ry
     Harris-Foulkes estimate   =     -31.49244009 Ry
     estimated scf accuracy    <       0.00009246 Ry

     iteration # 11     ecut=    30.00 Ry     beta=0.70
     Davidson diagonalization with overlap
     ethr =  1.16E-06,  avg # of iterations =  1.0

     total cpu time spent up to now is        5.0 secs

     total energy              =     -31.49243930 Ry
     Harris-Foulkes estimate   =     -31.49243935 Ry
     estimated scf accuracy    <       0.00000048 Ry

     iteration # 12     ecut=    30.00 Ry     beta=0.70
     Davidson diagonalization with overlap
     ethr =  5.97E-09,  avg # of iterations =  1.0

     total cpu time spent up to now is        5.0 secs

     total energy              =     -31.49243933 Ry
     Harris-Foulkes estimate   =     -31.49243931 Ry
     estimated scf accuracy    <       0.00000005 Ry

     iteration # 13     ecut=    30.00 Ry     beta=0.70
     Davidson diagonalization with overlap
     ethr =  5.96E-10,  avg # of iterations =  1.0

     total cpu time spent up to now is        5.0 secs

     End of self-consistent calculation

          k = 0.0000 0.0000 0.0000 ( 22119 PWs)   bands (ev):

   -23.6654  -7.0758  -7.0738  -7.0727  -7.0522  -6.8712  -0.2292   0.6167

     the Fermi energy is    -6.9390 ev

!    total energy              =     -31.49243929 Ry
     Harris-Foulkes estimate   =     -31.49243933 Ry
     estimated scf accuracy    <          3.3E-09 Ry

     convergence has been achieved in  13 iterations

     Forces acting on atoms (Ry/au):

     atom    1 type  1   force =     0.00104676    0.00242005    0.00167909
     atom    2 type  1   force =    -0.00165737   -0.00191658   -0.00176130
     atom    3 type  2   force =     0.00061061   -0.00050347    0.00008222

     Total force =     0.004464     Total SCF correction =     0.000048

     Entering Dynamics:    iteration =     5
                           time      =   0.0242 pico-seconds


     Andersen thermostat:    3 collisions

ATOMIC_POSITIONS (bohr)
H       20.346070392   9.545181416   7.592264034
H        3.275233289  14.758453002  10.820456292
O       15.425432149   0.736453932  10.406625603


     kinetic energy (Ekin) =     0.03305674 Ry
     temperature           =  1739.74685743 K 
     Ekin + Etot (const)   =   -31.45938255 Ry
     Message from routine dynamics:
     Total linear momentum <> 0

     Linear momentum :    0.2555715914    0.0401351917   -0.1541686132

     Writing output data file pwscf.save

     second order wave-functions extrapolation
     Check: negative starting charge=   -0.352050
     second order charge density extrapolation
     Check: negative starting charge=   -0.353059

     negative rho (up, down):  7.483E-02 0.000E+00

     total cpu time spent up to now is        5.3 secs

     per-process dynamical memory:    20.4 Mb

     Self-consistent Calculation

     iteration #  1     ecut=    30.00 Ry     beta=0.70
     Davidson diagonalization with overlap
     ethr =  1.00E-06,  avg # of iterations = 19.0

     negative rho (up, down):  1.881E-02 0.000E+00

     total cpu time spent up to now is        5.4 secs

     total energy              =     -29.85068538 Ry
     Harris-Foulkes estimate   =     -32.12339614 Ry
     estimated scf accuracy    <       1.38468312 Ry

     iteration #  2     ecut=    30.00 Ry     beta=0.70
     Davidson diagonalization with overlap
     ethr =  1.00E-02,  avg # of iterations =  3.0

     negative rho (up, down):  1.456E-02 0.000E+00

     total cpu time spent up to now is        5.5 secs

     total energy              =     -31.43296168 Ry
     Harris-Foulkes estimate   =     -33.46448394 Ry
     estimated scf accuracy    <       5.84819166 Ry

     iteration #  3     ecut=    30.00 Ry     beta=0.70
     Davidson diagonalization with overlap
     ethr =  1.00E-02,  avg # of iterations =  2.0

     negative rho (up, down):  1.187E-02 0.000E+00

     total cpu time spent up to now is        5.5 secs

     total energy              =     -31.81899473 Ry
     Harris-Foulkes estimate   =     -32.40745107 Ry
     estimated scf accuracy    <       2.31663026 Ry

     iteration #  4     ecut=    30.00 Ry     beta=0.70
     Davidson diagonalization with overlap
     ethr =  1.00E-02,  avg # of iterations =  1.0

     negative rho (up, down):  1.052E-02 0.000E+00

     total cpu time spent up to now is        5.5 secs

     total energy              =     -31.63538652 Ry
     Harris-Foulkes estimate   =     -31.83791256 Ry
     estimated scf accuracy    <       1.45240980 Ry

     iteration #  5     ecut=    30.00 Ry     beta=0.70
     Davidson diagonalization with overlap
     ethr =  1.00E-02,  avg # of iterations =  3.0

     negative rho (up, down):  6.541E-03 0.000E+00

     total cpu time spent up to now is        5.5 secs

     total energy              =     -31.55281592 Ry
     Harris-Foulkes estimate   =     -31.78243911 Ry
     estimated scf accuracy    <       3.11002711 Ry

     iteration #  6     ecut=    30.00 Ry     beta=0.70
     Davidson diagonalization with overlap
     ethr =  1.00E-02,  avg # of iterations =  2.0

     negative rho (up, down):  6.014E-03 0.000E+00

     total cpu time spent up to now is        5.6 secs

     total energy              =     -31.37340363 Ry
     Harris-Foulkes estimate   =     -31.66813774 Ry
     estimated scf accuracy    <       1.27131401 Ry

     iteration #  7     ecut=    30.00 Ry     beta=0.70
     Davidson diagonalization with overlap
     ethr =  1.00E-02,  avg # of iterations =  1.0

     negative rho (up, down):  3.233E-03 0.000E+00

     total cpu time spent up to now is        5.6 secs

     total energy              =     -31.44701283 Ry
     Harris-Foulkes estimate   =     -31.63253756 Ry
     estimated scf accuracy    <       2.89968411 Ry

     iteration #  8     ecut=    30.00 Ry     beta=0.70
     Davidson diagonalization with overlap
     ethr =  1.00E-02,  avg # of iterations =  1.0

     negative rho (up, down):  3.258E-03 0.000E+00

     total cpu time spent up to now is        5.7 secs

     total energy              =     -31.49617958 Ry
     Harris-Foulkes estimate   =     -31.50041557 Ry
     estimated scf accuracy    <       0.35583313 Ry

     iteration #  9     ecut=    30.00 Ry     beta=0.70
     Davidson diagonalization with overlap
     ethr =  4.45E-03,  avg # of iterations =  1.0

     negative rho (up, down):  1.287E-03 0.000E+00

     total cpu time spent up to now is        5.7 secs

     total energy              =     -31.56964675 Ry
     Harris-Foulkes estimate   =     -31.49700505 Ry
     estimated scf accuracy    <       0.19138573 Ry

     iteration # 10     ecut=    30.00 Ry     beta=0.70
     Davidson diagonalization with overlap
     ethr =  2.39E-03,  avg # of iterations =  1.0

     negative rho (up, down):  3.269E-07 0.000E+00

     total cpu time spent up to now is        5.7 secs

     total energy              =     -31.85393166 Ry
     Harris-Foulkes estimate   =     -31.64272296 Ry
     estimated scf accuracy    <       1.37227280 Ry

     iteration # 11     ecut=    30.00 Ry     beta=0.70
     Davidson diagonalization with overlap
     ethr =  2.39E-03,  avg # of iterations =  1.0

     negative rho (up, down):  4.840E-05 0.000E+00

     total cpu time spent up to now is        5.8 secs

     total energy              =     -31.55335023 Ry
     Harris-Foulkes estimate   =     -31.86093824 Ry
     estimated scf accuracy    <       1.48065105 Ry

     iteration # 12     ecut=    30.00 Ry     beta=0.70
     Davidson diagonalization with overlap
     ethr =  2.39E-03,  avg # of iterations =  2.0

     negative rho (up, down):  1.417E-04 0.000E+00

     total cpu time spent up to now is        5.8 secs

     total energy              =     -31.49379413 Ry
     Harris-Foulkes estimate   =     -31.67659883 Ry
     estimated scf accuracy    <       3.91310051 Ry

     iteration # 13     ecut=    30.00 Ry     beta=0.70
     Davidson diagonalization with overlap
     ethr =  2.39E-03,  avg # of iterations =  1.0

     negative rho (up, down):  7.425E-08 0.000E+00

     total cpu time spent up to now is        5.8 secs

     total energy              =     -31.44177722 Ry
     Harris-Foulkes estimate   =     -31.51982437 Ry
     estimated scf accuracy    <       0.97578751 Ry

     iteration # 14     ecut=    30.00 Ry     beta=0.70
     Davidson diagonalization with overlap
     ethr =  2.39E-03,  avg # of iterations =  1.0

     negative rho (up, down):  9.994E-07 0.000E+00

     total cpu time spent up to now is        5.9 secs

     total energy              =     -31.52134989 Ry
     Harris-Foulkes estimate   =     -31.58554336 Ry
     estimated scf accuracy    <       0.97441711 Ry

     iteration # 15     ecut=    30.00 Ry     beta=0.70
     Davidson diagonalization with overlap
     ethr =  2.39E-03,  avg # of iterations =  1.0

     negative rho (up, down):  5.452E-06 0.000E+00

     total cpu time spent up to now is        5.9 secs

     total energy              =     -31.50124137 Ry
     Harris-Foulkes estimate   =     -31.52142568 Ry
     estimated scf accuracy    <       1.17000196 Ry

     iteration # 16     ecut=    30.00 Ry     beta=0.70
     Davidson diagonalization with overlap
     ethr =  2.39E-03,  avg # of iterations =  1.0

     negative rho (up, down):  7.261E-06 0.000E+00

     total cpu time spent up to now is        6.0 secs

     total energy              =     -31.51256543 Ry
     Harris-Foulkes estimate   =     -31.50582302 Ry
     estimated scf accuracy    <       0.49643036 Ry

     iteration # 17     ecut=    30.00 Ry     beta=0.70
     Davidson diagonalization with overlap
     ethr =  2.39E-03,  avg # of iterations =  1.0

     negative rho (up, down):  1.639E-08 0.000E+00

     total cpu time spent up to now is        6.0 secs

     total energy              =     -31.55867533 Ry
     Harris-Foulkes estimate   =     -31.51420656 Ry
     estimated scf accuracy    <       0.68404775 Ry

     iteration # 18     ecut=    30.00 Ry     beta=0.70
     Davidson diagonalization with overlap
     ethr =  2.39E-03,  avg # of iterations =  1.0

     negative rho (up, down):  1.976E-08 0.000E+00

     total cpu time spent up to now is        6.0 secs

     total energy              =     -31.56651274 Ry
     Harris-Foulkes estimate   =     -31.56888749 Ry
     estimated scf accuracy    <       0.91101621 Ry

     iteration # 19     ecut=    30.00 Ry     beta=0.70
     Davidson diagonalization with overlap
     ethr =  2.39E-03,  avg # of iterations =  1.0

     negative rho (up, down):  2.826E-08 0.000E+00

     total cpu time spent up to now is        6.0 secs

     total energy              =     -31.56577123 Ry
     Harris-Foulkes estimate   =     -31.56667961 Ry
     estimated scf accuracy    <       0.88740848 Ry

     iteration # 20     ecut=    30.00 Ry     beta=0.70
     Davidson diagonalization with overlap
     ethr =  2.39E-03,  avg # of iterations =  1.0

     negative rho (up, down):  1.777E-06 0.000E+00

     total cpu time spent up to now is        6.1 secs

     total energy              =     -31.53303453 Ry
     Harris-Foulkes estimate   =     -31.56577548 Ry
     estimated scf accuracy    <       0.88518567 Ry

     iteration # 21     ecut=    30.00 Ry     beta=0.70
     Davidson diagonalization with overlap
     ethr =  2.39E-03,  avg # of iterations =  1.0

     negative rho (up, down):  9.815E-07 0.000E+00

     total cpu time spent up to now is        6.1 secs

     total energy              =     -31.51768974 Ry
     Harris-Foulkes estimate   =     -31.53239211 Ry
     estimated scf accuracy    <       0.99793488 Ry

     iteration # 22     ecut=    30.00 Ry     beta=0.70
     Davidson diagonalization with overlap
     ethr =  2.39E-03,  avg # of iterations =  1.0

     negative rho (up, down):  3.259E-05 0.000E+00

     total cpu time spent up to now is        6.1 secs

     total energy              =     -31.55142548 Ry
     Harris-Foulkes estimate   =     -31.51790488 Ry
     estimated scf accuracy    <       0.87666973 Ry

     iteration # 23     ecut=    30.00 Ry     beta=0.70
     Davidson diagonalization with overlap
     ethr =  2.39E-03,  avg # of iterations =  1.0

     negative rho (up, down):  1.340E-06 0.000E+00

     total cpu time spent up to now is        6.2 secs

     total energy              =     -31.44727845 Ry
     Harris-Foulkes estimate   =     -31.55242462 Ry
     estimated scf accuracy    <       0.89164930 Ry

     iteration # 24     ecut=    30.00 Ry     beta=0.70
     Davidson diagonalization with overlap
     ethr =  2.39E-03,  avg # of iterations =  1.0

     negative rho (up, down):  1.160E-08 0.000E+00

     total cpu time spent up to now is        6.2 secs

     total energy              =     -31.50695072 Ry
     Harris-Foulkes estimate   =     -31.51213274 Ry
     estimated scf accuracy    <       0.57660502 Ry

     iteration # 25     ecut=    30.00 Ry     beta=0.70
     Davidson diagonalization with overlap
     ethr =  2.39E-03,  avg # of iterations =  1.0

     negative rho (up, down):  3.706E-07 0.000E+00

     total cpu time spent up to now is        6.2 secs

     total energy              =     -31.50153078 Ry
     Harris-Foulkes estimate   =     -31.50720549 Ry
     estimated scf accuracy    <       0.46191670 Ry

     iteration # 26     ecut=    30.00 Ry     beta=0.70
     Davidson diagonalization with overlap
     ethr =  2.39E-03,  avg # of iterations =  1.0

     negative rho (up, down):  1.103E-07 0.000E+00

     total cpu time spent up to now is        6.3 secs

     total energy              =     -31.48918866 Ry
     Harris-Foulkes estimate   =     -31.50200700 Ry
     estimated scf accuracy    <       0.33511733 Ry

     iteration # 27     ecut=    30.00 Ry     beta=0.70
     Davidson diagonalization with overlap
     ethr =  2.39E-03,  avg # of iterations =  1.0

     negative rho (up, down):  7.237E-08 0.000E+00

     total cpu time spent up to now is        6.3 secs

     total energy              =     -31.49540243 Ry
     Harris-Foulkes estimate   =     -31.49544430 Ry
     estimated scf accuracy    <       0.00337066 Ry

     iteration # 28     ecut=    30.00 Ry     beta=0.70
     Davidson diagonalization with overlap
     ethr =  4.21E-05,  avg # of iterations =  5.0

     total cpu time spent up to now is        6.3 secs

     total energy              =     -31.49556696 Ry
     Harris-Foulkes estimate   =     -31.49541361 Ry
     estimated scf accuracy    <       0.00161375 Ry

     iteration # 29     ecut=    30.00 Ry     beta=0.70
     Davidson diagonalization with overlap
     ethr =  2.02E-05,  avg # of iterations =  1.0

     total cpu time spent up to now is        6.4 secs

     total energy              =     -31.49483331 Ry
     Harris-Foulkes estimate   =     -31.49579853 Ry
     estimated scf accuracy    <       0.02863612 Ry

     iteration # 30     ecut=    30.00 Ry     beta=0.70
     Davidson diagonalization with overlap
     ethr =  2.02E-05,  avg # of iterations =  1.0

     total cpu time spent up to now is        6.4 secs

     total energy              =     -31.49538735 Ry
     Harris-Foulkes estimate   =     -31.49541416 Ry
     estimated scf accuracy    <       0.00111473 Ry

     iteration # 31     ecut=    30.00 Ry     beta=0.70
     Davidson diagonalization with overlap
     ethr =  1.39E-05,  avg # of iterations =  1.0

     total cpu time spent up to now is        6.4 secs

     total energy              =     -31.49540053 Ry
     Harris-Foulkes estimate   =     -31.49539967 Ry
     estimated scf accuracy    <       0.00002561 Ry

     iteration # 32     ecut=    30.00 Ry     beta=0.70
     Davidson diagonalization with overlap
     ethr =  3.20E-07,  avg # of iterations =  7.0

     total cpu time spent up to now is        6.5 secs

     total energy              =     -31.49539806 Ry
     Harris-Foulkes estimate   =     -31.49540106 Ry
     estimated scf accuracy    <       0.00010859 Ry

     iteration # 33     ecut=    30.00 Ry     beta=0.70
     Davidson diagonalization with overlap
     ethr =  3.20E-07,  avg # of iterations =  1.0

     total cpu time spent up to now is        6.5 secs

     total energy              =     -31.49539991 Ry
     Harris-Foulkes estimate   =     -31.49539992 Ry
     estimated scf accuracy    <       0.00000052 Ry

     iteration # 34     ecut=    30.00 Ry     beta=0.70
     Davidson diagonalization with overlap
     ethr =  6.46E-09,  avg # of iterations =  1.0

     total cpu time spent up to now is        6.5 secs

     total energy              =     -31.49539986 Ry
     Harris-Foulkes estimate   =     -31.49539991 Ry
     estimated scf accuracy    <       0.00000050 Ry

     iteration # 35     ecut=    30.00 Ry     beta=0.70
     Davidson diagonalization with overlap
     ethr =  6.19E-09,  avg # of iterations =  1.0

     total cpu time spent up to now is        6.6 secs

     total energy              =     -31.49539980 Ry
     Harris-Foulkes estimate   =     -31.49539987 Ry
     estimated scf accuracy    <       0.00000013 Ry

     iteration # 36     ecut=    30.00 Ry     beta=0.70
     Davidson diagonalization with overlap
     ethr =  1.58E-09,  avg # of iterations =  1.0

     total cpu time spent up to now is        6.6 secs

     End of self-consistent calculation

          k = 0.0000 0.0000 0.0000 ( 22119 PWs)   bands (ev):

   -23.6937  -7.1258  -7.1008  -7.0996  -7.0956  -6.8424  -0.2296   0.5891

     the Fermi energy is    -6.9661 ev

!    total energy              =     -31.49539980 Ry
     Harris-Foulkes estimate   =     -31.49539980 Ry
     estimated scf accuracy    <          6.6E-10 Ry

     convergence has been achieved in  36 iterations

     Forces acting on atoms (Ry/au):

     atom    1 type  1   force =     0.00318617    0.00579223    0.00355264
     atom    2 type  1   force =    -0.00326268   -0.00542420   -0.00359836
     atom    3 type  2   force =     0.00007651   -0.00036803    0.00004573

     Total force =     0.010463     Total SCF correction =     0.000002

     Entering Dynamics:    iteration =     6
                           time      =   0.0290 pico-seconds


     Andersen thermostat:    3 collisions

ATOMIC_POSITIONS (bohr)
H       20.355236434   9.020783610   7.512472708
H        2.873011216  14.482424448  11.131767622
O       15.450243811   0.786980846  10.392010903


     kinetic energy (Ekin) =     0.03241995 Ry
     temperature           =  1706.23322682 K 
     Ekin + Etot (const)   =   -31.46297985 Ry
     Message from routine dynamics:
     Total linear momentum <> 0

     Linear momentum :    0.0271839412   -0.0722010692   -0.2133873842

     Writing output data file pwscf.save

     second order wave-functions extrapolation
     Check: negative starting charge=   -0.353059
     second order charge density extrapolation
     Check: negative starting charge=   -0.350938

     negative rho (up, down):  8.734E-02 0.000E+00

     total cpu time spent up to now is        7.0 secs

     per-process dynamical memory:    20.4 Mb

     Self-consistent Calculation

     iteration #  1     ecut=    30.00 Ry     beta=0.70
     Davidson diagonalization with overlap
     ethr =  1.00E-06,  avg # of iterations = 11.0

     negative rho (up, down):  1.892E-02 0.000E+00

     total cpu time spent up to now is        7.1 secs

     total energy              =      -8.40645613 Ry
     Harris-Foulkes estimate   =     -48.89014116 Ry
     estimated scf accuracy    <       5.74988705 Ry

     iteration #  2     ecut=    30.00 Ry     beta=0.70
     Davidson diagonalization with overlap
     ethr =  1.00E-02,  avg # of iterations =  3.0

     negative rho (up, down):  1.260E-02 0.000E+00

     total cpu time spent up to now is        7.3 secs

     total energy              =     -31.39856098 Ry
     Harris-Foulkes estimate   =     -35.22558395 Ry
     estimated scf accuracy    <       7.99944097 Ry

     iteration #  3     ecut=    30.00 Ry     beta=0.70
     Davidson diagonalization with overlap
     ethr =  1.00E-02,  avg # of iterations =  4.0

     negative rho (up, down):  5.750E-03 0.000E+00

     total cpu time spent up to now is        7.3 secs

     total energy              =     -31.45798085 Ry
     Harris-Foulkes estimate   =     -33.29814607 Ry
     estimated scf accuracy    <       7.30378793 Ry

     iteration #  4     ecut=    30.00 Ry     beta=0.70
     Davidson diagonalization with overlap
     ethr =  1.00E-02,  avg # of iterations =  2.0

     negative rho (up, down):  5.647E-03 0.000E+00

     total cpu time spent up to now is        7.4 secs

     total energy              =     -32.48939176 Ry
     Harris-Foulkes estimate   =     -32.37763750 Ry
     estimated scf accuracy    <       2.29875720 Ry

     iteration #  5     ecut=    30.00 Ry     beta=0.70
     Davidson diagonalization with overlap
     ethr =  1.00E-02,  avg # of iterations =  1.0

     negative rho (up, down):  5.518E-03 0.000E+00

     total cpu time spent up to now is        7.5 secs

     total energy              =     -32.67894823 Ry
     Harris-Foulkes estimate   =     -32.48769298 Ry
     estimated scf accuracy    <       2.32434626 Ry

     iteration #  6     ecut=    30.00 Ry     beta=0.70
     Davidson diagonalization with overlap
     ethr =  1.00E-02,  avg # of iterations =  1.0

     negative rho (up, down):  5.492E-03 0.000E+00

     total cpu time spent up to now is        7.5 secs

     total energy              =     -32.46114625 Ry
     Harris-Foulkes estimate   =     -32.68084102 Ry
     estimated scf accuracy    <       2.62861910 Ry

     iteration #  7     ecut=    30.00 Ry     beta=0.70
     Davidson diagonalization with overlap
     ethr =  1.00E-02,  avg # of iterations =  1.0

     negative rho (up, down):  4.546E-03 0.000E+00

     total cpu time spent up to now is        7.6 secs

     total energy              =     -31.59232028 Ry
     Harris-Foulkes estimate   =     -32.46269049 Ry
     estimated scf accuracy    <       2.29887744 Ry

     iteration #  8     ecut=    30.00 Ry     beta=0.70
     Davidson diagonalization with overlap
     ethr =  1.00E-02,  avg # of iterations =  2.0

     negative rho (up, down):  3.486E-03 0.000E+00

     total cpu time spent up to now is        7.6 secs

     total energy              =     -31.75938937 Ry
     Harris-Foulkes estimate   =     -32.19034008 Ry
     estimated scf accuracy    <       3.80002193 Ry

     iteration #  9     ecut=    30.00 Ry     beta=0.70
     Davidson diagonalization with overlap
     ethr =  1.00E-02,  avg # of iterations =  1.0

     negative rho (up, down):  2.656E-01 0.000E+00

     total cpu time spent up to now is        7.6 secs

     total energy              =     -34.24373189 Ry
     Harris-Foulkes estimate   =     -31.76489641 Ry
     estimated scf accuracy    <       3.01658456 Ry

     iteration # 10     ecut=    30.00 Ry     beta=0.70
     Davidson diagonalization with overlap
     ethr =  1.00E-02,  avg # of iterations =  5.0

     negative rho (up, down):  9.952E-01 0.000E+00

     total cpu time spent up to now is        7.7 secs

     total energy              =     -33.65022438 Ry
     Harris-Foulkes estimate   =     -37.99229124 Ry
     estimated scf accuracy    <       6.30504350 Ry

     iteration # 11     ecut=    30.00 Ry     beta=0.70
     Davidson diagonalization with overlap
     ethr =  1.00E-02,  avg # of iterations =  3.0

     negative rho (up, down):  3.273E-01 0.000E+00

     total cpu time spent up to now is        7.7 secs

     total energy              =     -32.82786817 Ry
     Harris-Foulkes estimate   =     -39.10206021 Ry
     estimated scf accuracy    <      10.36041328 Ry

     iteration # 12     ecut=    30.00 Ry     beta=0.70
     Davidson diagonalization with overlap
     ethr =  1.00E-02,  avg # of iterations =  4.0

     negative rho (up, down):  1.024E+00 0.000E+00

     total cpu time spent up to now is        7.8 secs

     total energy              =     -36.48558333 Ry
     Harris-Foulkes estimate   =     -33.71919626 Ry
     estimated scf accuracy    <      18.94705368 Ry

     iteration # 13     ecut=    30.00 Ry     beta=0.70
     Davidson diagonalization with overlap
     ethr =  1.00E-02,  avg # of iterations =  7.0

     negative rho (up, down):  1.539E+00 0.000E+00

     total cpu time spent up to now is        7.8 secs

     total energy              =     -41.69379085 Ry
     Harris-Foulkes estimate   =     -43.58980232 Ry
     estimated scf accuracy    <      48.19157559 Ry

     iteration # 14     ecut=    30.00 Ry     beta=0.70
     Davidson diagonalization with overlap
     ethr =  1.00E-02,  avg # of iterations =  3.0

     negative rho (up, down):  1.942E-01 0.000E+00

     total cpu time spent up to now is        7.9 secs

     total energy              =     -18.28544912 Ry
     Harris-Foulkes estimate   =     -46.60573207 Ry
     estimated scf accuracy    <      59.85072551 Ry

     iteration # 15     ecut=    30.00 Ry     beta=0.70
     Davidson diagonalization with overlap
     ethr =  1.00E-02,  avg # of iterations = 13.0

     negative rho (up, down):  2.275E-01 0.000E+00

     total cpu time spent up to now is        7.9 secs

     total energy              =     -32.44968095 Ry
     Harris-Foulkes estimate   =     -32.15305624 Ry
     estimated scf accuracy    <       4.99287884 Ry

     iteration # 16     ecut=    30.00 Ry     beta=0.70
     Davidson diagonalization with overlap
     ethr =  1.00E-02,  avg # of iterations =  5.0

     negative rho (up, down):  1.979E-01 0.000E+00

     total cpu time spent up to now is        8.0 secs

     total energy              =     -31.23683215 Ry
     Harris-Foulkes estimate   =     -48.42876011 Ry
     estimated scf accuracy    <      10.16052814 Ry

     iteration # 17     ecut=    30.00 Ry     beta=0.70
     Davidson diagonalization with overlap
     ethr =  1.00E-02,  avg # of iterations =  4.0

     negative rho (up, down):  8.603E-02 0.000E+00

     total cpu time spent up to now is        8.0 secs

     total energy              =     -47.25593281 Ry
     Harris-Foulkes estimate   =     -37.70192660 Ry
     estimated scf accuracy    <       8.26585080 Ry

     iteration # 18     ecut=    30.00 Ry     beta=0.70
     Davidson diagonalization with overlap
     ethr =  1.00E-02,  avg # of iterations =  5.0

     negative rho (up, down):  4.555E-01 0.000E+00

     total cpu time spent up to now is        8.0 secs

     total energy              =    -972.46530354 Ry
     Harris-Foulkes estimate   =     -73.08444222 Ry
     estimated scf accuracy    <       8.76901653 Ry

     iteration # 19     ecut=    30.00 Ry     beta=0.70
     Davidson diagonalization with overlap
     ethr =  1.00E-02,  avg # of iterations =  8.0

     negative rho (up, down):  4.685E-01 0.000E+00

     total cpu time spent up to now is        8.1 secs

     total energy              =    3034.97844066 Ry
     Harris-Foulkes estimate   =   -1844.79282650 Ry
     estimated scf accuracy    <      57.42546252 Ry

     iteration # 20     ecut=    30.00 Ry     beta=0.70
     Davidson diagonalization with overlap
     ethr =  1.00E-02,  avg # of iterations = 14.0

     negative rho (up, down):  5.696E-01 0.000E+00

     total cpu time spent up to now is        8.2 secs

     total energy              =     -20.33595641 Ry
     Harris-Foulkes estimate   =    -228.45455666 Ry
     estimated scf accuracy    <      55.55914089 Ry

     iteration # 21     ecut=    30.00 Ry     beta=0.70
     Davidson diagonalization with overlap
     ethr =  1.00E-02,  avg # of iterations =  8.0

     negative rho (up, down):  4.334E-01 0.000E+00

     total cpu time spent up to now is        8.2 secs

     total energy              =       5.93413619 Ry
     Harris-Foulkes estimate   =    -742.19136951 Ry
     estimated scf accuracy    <      54.02709235 Ry

     iteration # 22     ecut=    30.00 Ry     beta=0.70
     Davidson diagonalization with overlap
     ethr =  1.00E-02,  avg # of iterations =  8.0

     negative rho (up, down):  3.486E-01 0.000E+00

     total cpu time spent up to now is        8.3 secs

     total energy              =    -189.17006012 Ry
     Harris-Foulkes estimate   =   -1260.35416717 Ry
     estimated scf accuracy    <      57.13554340 Ry

     iteration # 23     ecut=    30.00 Ry     beta=0.70
     Davidson diagonalization with overlap
     ethr =  1.00E-02,  avg # of iterations =  7.0

     negative rho (up, down):  9.410E-01 0.000E+00

     total cpu time spent up to now is        8.4 secs

     total energy              =      17.92819151 Ry
     Harris-Foulkes estimate   =    -591.85940073 Ry
     estimated scf accuracy    <      54.29227425 Ry

     iteration # 24     ecut=    30.00 Ry     beta=0.70
     Davidson diagonalization with overlap
     ethr =  1.00E-02,  avg # of iterations =  7.0

     negative rho (up, down):  1.421E+00 0.000E+00

     total cpu time spent up to now is        8.4 secs

     total energy              =      65.82835982 Ry
     Harris-Foulkes estimate   =    -748.15159377 Ry
     estimated scf accuracy    <      72.44017371 Ry

     iteration # 25     ecut=    30.00 Ry     beta=0.70
     Davidson diagonalization with overlap
     ethr =  1.00E-02,  avg # of iterations =  6.0

     negative rho (up, down):  1.548E+00 0.000E+00

     total cpu time spent up to now is        8.5 secs

     total energy              =      23.76826022 Ry
     Harris-Foulkes estimate   =    -463.81013971 Ry
     estimated scf accuracy    <      57.44604341 Ry

     iteration # 26     ecut=    30.00 Ry     beta=0.70
     Davidson diagonalization with overlap
     ethr =  1.00E-02,  avg # of iterations =  8.0

     negative rho (up, down):  1.984E+00 0.000E+00

     total cpu time spent up to now is        8.5 secs

     total energy              =      81.14208957 Ry
     Harris-Foulkes estimate   =    -837.42345036 Ry
     estimated scf accuracy    <      65.79552542 Ry

     iteration # 27     ecut=    30.00 Ry     beta=0.70
     Davidson diagonalization with overlap
     ethr =  1.00E-02,  avg # of iterations =  8.0

     negative rho (up, down):  1.326E-02 0.000E+00

     total cpu time spent up to now is        8.6 secs

     total energy              =     132.43665661 Ry
     Harris-Foulkes estimate   =   -1244.11453991 Ry
     estimated scf accuracy    <      65.21057977 Ry

     iteration # 28     ecut=    30.00 Ry     beta=0.70
     Davidson diagonalization with overlap
     ethr =  1.00E-02,  avg # of iterations = 10.0

     negative rho (up, down):  5.126E-02 0.000E+00

     total cpu time spent up to now is        8.7 secs

     total energy              =     -44.97748808 Ry
     Harris-Foulkes estimate   =     -72.23112397 Ry
     estimated scf accuracy    <      55.66014830 Ry

     iteration # 29     ecut=    30.00 Ry     beta=0.70
     Davidson diagonalization with overlap
     ethr =  1.00E-02,  avg # of iterations =  5.0

     negative rho (up, down):  1.181E-01 0.000E+00

     total cpu time spent up to now is        8.7 secs

     total energy              =      -7.58130983 Ry
     Harris-Foulkes estimate   =    -169.43833717 Ry
     estimated scf accuracy    <      12.40230990 Ry

     iteration # 30     ecut=    30.00 Ry     beta=0.70
     Davidson diagonalization with overlap
     ethr =  1.00E-02,  avg # of iterations = 10.0

     negative rho (up, down):  1.283E-01 0.000E+00

     total cpu time spent up to now is        8.8 secs

     total energy              =    -207.40688996 Ry
     Harris-Foulkes estimate   =    -635.83544198 Ry
     estimated scf accuracy    <      37.02770348 Ry

     iteration # 31     ecut=    30.00 Ry     beta=0.70
     Davidson diagonalization with overlap
     ethr =  1.00E-02,  avg # of iterations =  8.0

     negative rho (up, down):  1.315E-01 0.000E+00

     total cpu time spent up to now is        8.8 secs

     total energy              =     101.57873644 Ry
     Harris-Foulkes estimate   =   -5916.66119931 Ry
     estimated scf accuracy    <      34.04977522 Ry

     iteration # 32     ecut=    30.00 Ry     beta=0.70
     Davidson diagonalization with overlap
     ethr =  1.00E-02,  avg # of iterations = 10.0

     negative rho (up, down):  1.246E-01 0.000E+00

     total cpu time spent up to now is        8.9 secs

     total energy              =      21.81103087 Ry
     Harris-Foulkes estimate   =    -474.82972334 Ry
     estimated scf accuracy    <       9.82114082 Ry

     iteration # 33     ecut=    30.00 Ry     beta=0.70
     Davidson diagonalization with overlap
     ethr =  1.00E-02,  avg # of iterations =  6.0

     negative rho (up, down):  7.506E-02 0.000E+00

     total cpu time spent up to now is        8.9 secs

     total energy              =    -209.86373493 Ry
     Harris-Foulkes estimate   =    -317.99995018 Ry
     estimated scf accuracy    <      39.96542162 Ry

     iteration # 34     ecut=    30.00 Ry     beta=0.70
     Davidson diagonalization with overlap
     ethr =  1.00E-02,  avg # of iterations =  6.0

     negative rho (up, down):  2.796E-02 0.000E+00

     total cpu time spent up to now is        9.0 secs

     total energy              =     106.54434126 Ry
     Harris-Foulkes estimate   =   -3048.36286272 Ry
     estimated scf accuracy    <      31.34493776 Ry

     iteration # 35     ecut=    30.00 Ry     beta=0.70
     Davidson diagonalization with overlap
     ethr =  1.00E-02,  avg # of iterations =  8.0

     negative rho (up, down):  1.431E-02 0.000E+00

[...]
     Harris-Foulkes estimate   =    -277.35316608 Ry
     estimated scf accuracy    <      25.85811900 Ry

     iteration # 59     ecut=    30.00 Ry     beta=0.70
     Davidson diagonalization with overlap
     ethr =  1.00E-02,  avg # of iterations =  6.0

     negative rho (up, down):  2.219E-03 0.000E+00

     total cpu time spent up to now is       10.2 secs

     total energy              =     116.62724587 Ry
     Harris-Foulkes estimate   =    -760.20171812 Ry
     estimated scf accuracy    <      62.46676992 Ry

     iteration # 60     ecut=    30.00 Ry     beta=0.70
     Davidson diagonalization with overlap
     ethr =  1.00E-02,  avg # of iterations =  8.0

     negative rho (up, down):  4.528E-02 0.000E+00

     total cpu time spent up to now is       10.2 secs

     total energy              =     -37.34557923 Ry
     Harris-Foulkes estimate   =     -38.75476216 Ry
     estimated scf accuracy    <      12.57426165 Ry

     iteration # 61     ecut=    30.00 Ry     beta=0.70
     Davidson diagonalization with overlap
     ethr =  1.00E-02,  avg # of iterations =  6.0

     negative rho (up, down):  2.441E-02 0.000E+00

     total cpu time spent up to now is       10.3 secs

     total energy              =      39.78393409 Ry
     Harris-Foulkes estimate   =    -223.87891522 Ry
     estimated scf accuracy    <      42.59260631 Ry

     iteration # 62     ecut=    30.00 Ry     beta=0.70
     Davidson diagonalization with overlap
     ethr =  1.00E-02,  avg # of iterations =  7.0

     negative rho (up, down):  4.821E-02 0.000E+00

     total cpu time spent up to now is       10.3 secs

     total energy              =    -236.03732824 Ry
     Harris-Foulkes estimate   =     -88.54307108 Ry
     estimated scf accuracy    <       8.71381375 Ry

     iteration # 63     ecut=    30.00 Ry     beta=0.70
     Davidson diagonalization with overlap
     ethr =  1.00E-02,  avg # of iterations =  6.0

     negative rho (up, down):  7.065E-02 0.000E+00

     total cpu time spent up to now is       10.3 secs

     total energy              =       6.19266126 Ry
     Harris-Foulkes estimate   =   -1016.86949657 Ry
     estimated scf accuracy    <      22.04658291 Ry

     iteration # 64     ecut=    30.00 Ry     beta=0.70
     Davidson diagonalization with overlap
     ethr =  1.00E-02,  avg # of iterations =  6.0

     negative rho (up, down):  8.686E-02 0.000E+00

     total cpu time spent up to now is       10.4 secs

     total energy              =     116.42351781 Ry
     Harris-Foulkes estimate   =    -505.36522902 Ry
     estimated scf accuracy    <      44.12004936 Ry

     iteration # 65     ecut=    30.00 Ry     beta=0.70
     Davidson diagonalization with overlap
     ethr =  1.00E-02,  avg # of iterations =  6.0

     negative rho (up, down):  8.015E-02 0.000E+00

     total cpu time spent up to now is       10.4 secs

     total energy              =     -20.80145179 Ry
     Harris-Foulkes estimate   =     -50.37103989 Ry
     estimated scf accuracy    <       7.48460000 Ry

     iteration # 66     ecut=    30.00 Ry     beta=0.70
     Davidson diagonalization with overlap
     ethr =  1.00E-02,  avg # of iterations =  5.0

     negative rho (up, down):  1.283E-01 0.000E+00

     total cpu time spent up to now is       10.5 secs

     total energy              =      33.11182337 Ry
     Harris-Foulkes estimate   =   -1321.87842241 Ry
     estimated scf accuracy    <      11.73835079 Ry

     iteration # 67     ecut=    30.00 Ry     beta=0.70
     Davidson diagonalization with overlap
     ethr =  1.00E-02,  avg # of iterations =  5.0

     negative rho (up, down):  7.144E-02 0.000E+00

     total cpu time spent up to now is       10.5 secs

     total energy              =    -982.75752328 Ry
     Harris-Foulkes estimate   =    -119.69015915 Ry
     estimated scf accuracy    <      25.08652468 Ry

     iteration # 68     ecut=    30.00 Ry     beta=0.70
     Davidson diagonalization with overlap
     ethr =  1.00E-02,  avg # of iterations =  7.0

     negative rho (up, down):  8.704E-02 0.000E+00

     total cpu time spent up to now is       10.6 secs

     total energy              =      22.61903296 Ry
     Harris-Foulkes estimate   =   -9822.56767314 Ry
     estimated scf accuracy    <      63.65082642 Ry

     iteration # 69     ecut=    30.00 Ry     beta=0.70
     Davidson diagonalization with overlap
     ethr =  1.00E-02,  avg # of iterations =  4.0

     negative rho (up, down):  1.276E-01 0.000E+00

     total cpu time spent up to now is       10.6 secs

     total energy              =     -47.14051665 Ry
     Harris-Foulkes estimate   =   -1188.56664052 Ry
     estimated scf accuracy    <       6.08364287 Ry

     iteration # 70     ecut=    30.00 Ry     beta=0.70
     Davidson diagonalization with overlap
     ethr =  1.00E-02,  avg # of iterations =  7.0

     negative rho (up, down):  1.351E-01 0.000E+00

     total cpu time spent up to now is       10.7 secs

     total energy              =      76.89607298 Ry
     Harris-Foulkes estimate   =   -1166.71017772 Ry
     estimated scf accuracy    <      44.64498091 Ry

     iteration # 71     ecut=    30.00 Ry     beta=0.70
     Davidson diagonalization with overlap
     ethr =  1.00E-02,  avg # of iterations =  7.0

     negative rho (up, down):  1.494E-02 0.000E+00

     total cpu time spent up to now is       10.7 secs

     total energy              =      58.48355673 Ry
     Harris-Foulkes estimate   =     -89.99464042 Ry
     estimated scf accuracy    <      40.31268799 Ry

     iteration # 72     ecut=    30.00 Ry     beta=0.70
     Davidson diagonalization with overlap
     ethr =  1.00E-02,  avg # of iterations = 10.0

     negative rho (up, down):  6.672E-02 0.000E+00

     total cpu time spent up to now is       10.8 secs

     total energy              =      42.84109429 Ry
     Harris-Foulkes estimate   =    -255.50453864 Ry
     estimated scf accuracy    <      19.45037032 Ry

     iteration # 73     ecut=    30.00 Ry     beta=0.70
     Davidson diagonalization with overlap
     ethr =  1.00E-02,  avg # of iterations =  9.0

     negative rho (up, down):  9.796E-02 0.000E+00

     total cpu time spent up to now is       10.8 secs

     total energy              =      91.31754345 Ry
     Harris-Foulkes estimate   =    -422.33565488 Ry
     estimated scf accuracy    <      44.90569823 Ry

     iteration # 74     ecut=    30.00 Ry     beta=0.70
     Davidson diagonalization with overlap
     ethr =  1.00E-02,  avg # of iterations =  9.0

     negative rho (up, down):  1.263E-01 0.000E+00

     total cpu time spent up to now is       10.9 secs

     total energy              =     -10.64145435 Ry
     Harris-Foulkes estimate   =     -60.53820640 Ry
     estimated scf accuracy    <       9.85251640 Ry

     iteration # 75     ecut=    30.00 Ry     beta=0.70
     Davidson diagonalization with overlap
     ethr =  1.00E-02,  avg # of iterations = 10.0

     negative rho (up, down):  2.053E-01 0.000E+00

     total cpu time spent up to now is       11.0 secs

     total energy              =    -281.50291701 Ry
     Harris-Foulkes estimate   =    -226.13961124 Ry
     estimated scf accuracy    <      44.66737528 Ry

     iteration # 76     ecut=    30.00 Ry     beta=0.70
     Davidson diagonalization with overlap
     ethr =  1.00E-02,  avg # of iterations =  5.0

     negative rho (up, down):  2.198E-01 0.000E+00

     total cpu time spent up to now is       11.0 secs

     total energy              =    -123.28187037 Ry
     Harris-Foulkes estimate   =   -1939.86917622 Ry
     estimated scf accuracy    <      51.10764798 Ry

     iteration # 77     ecut=    30.00 Ry     beta=0.70
     Davidson diagonalization with overlap
     ethr =  1.00E-02,  avg # of iterations = 11.0

     negative rho (up, down):  2.033E-01 0.000E+00

     total cpu time spent up to now is       11.1 secs

     total energy              =   -1270.23990228 Ry
     Harris-Foulkes estimate   =   -1718.48699469 Ry
     estimated scf accuracy    <      19.00228354 Ry

     iteration # 78     ecut=    30.00 Ry     beta=0.70
     Davidson diagonalization with overlap
     ethr =  1.00E-02,  avg # of iterations = 11.0

     negative rho (up, down):  6.814E-01 0.000E+00

     total cpu time spent up to now is       11.1 secs

     total energy              =     -53.11596863 Ry
     Harris-Foulkes estimate   =   -2675.63850915 Ry
     estimated scf accuracy    <      45.64451760 Ry

     iteration # 79     ecut=    30.00 Ry     beta=0.70
     Davidson diagonalization with overlap
     ethr =  1.00E-02,  avg # of iterations =  8.0

     negative rho (up, down):  8.312E-01 0.000E+00

     total cpu time spent up to now is       11.2 secs

     total energy              =     -86.47818703 Ry
     Harris-Foulkes estimate   =    -967.87298535 Ry
     estimated scf accuracy    <      32.76928841 Ry

     iteration # 80     ecut=    30.00 Ry     beta=0.70
     Davidson diagonalization with overlap
     ethr =  1.00E-02,  avg # of iterations =  6.0

     negative rho (up, down):  6.816E-01 0.000E+00

     total cpu time spent up to now is       11.2 secs

     total energy              =    -581.18764170 Ry
     Harris-Foulkes estimate   =   -3083.29019072 Ry
     estimated scf accuracy    <      51.13029772 Ry

     iteration # 81     ecut=    30.00 Ry     beta=0.70
     Davidson diagonalization with overlap
     ethr =  1.00E-02,  avg # of iterations =  8.0

     negative rho (up, down):  1.042E+00 0.000E+00

     total cpu time spent up to now is       11.3 secs

     total energy              =     -90.84732951 Ry
     Harris-Foulkes estimate   =   -9562.25060922 Ry
     estimated scf accuracy    <      33.04078550 Ry

     iteration # 82     ecut=    30.00 Ry     beta=0.70
     Davidson diagonalization with overlap
     ethr =  1.00E-02,  avg # of iterations =  7.0

     negative rho (up, down):  1.115E+00 0.000E+00

     total cpu time spent up to now is       11.3 secs

     total energy              =     -21.84780113 Ry
     Harris-Foulkes estimate   =  -15664.64783738 Ry
     estimated scf accuracy    <      35.81499349 Ry

     iteration # 83     ecut=    30.00 Ry     beta=0.70
     Davidson diagonalization with overlap
     ethr =  1.00E-02,  avg # of iterations =  8.0

     negative rho (up, down):  1.153E+00 0.000E+00

     total cpu time spent up to now is       11.4 secs

     total energy              =      96.65429921 Ry
     Harris-Foulkes estimate   =   -2567.66523023 Ry
     estimated scf accuracy    <      34.87129674 Ry

     iteration # 84     ecut=    30.00 Ry     beta=0.70
     Davidson diagonalization with overlap
     ethr =  1.00E-02,  avg # of iterations =  8.0

     negative rho (up, down):  8.552E-01 0.000E+00

     total cpu time spent up to now is       11.5 secs

     total energy              =     101.65568731 Ry
     Harris-Foulkes estimate   =   -2582.62809771 Ry
     estimated scf accuracy    <      29.98439914 Ry

     iteration # 85     ecut=    30.00 Ry     beta=0.70
     Davidson diagonalization with overlap
     ethr =  1.00E-02,  avg # of iterations =  9.0

     negative rho (up, down):  6.207E-01 0.000E+00

     total cpu time spent up to now is       11.5 secs

     total energy              =      -6.88033401 Ry
     Harris-Foulkes estimate   =   -1561.92998189 Ry
     estimated scf accuracy    <      33.21823254 Ry

     iteration # 86     ecut=    30.00 Ry     beta=0.70
     Davidson diagonalization with overlap
     ethr =  1.00E-02,  avg # of iterations =  6.0

     negative rho (up, down):  5.663E-01 0.000E+00

     total cpu time spent up to now is       11.6 secs

     total energy              =      31.09458019 Ry
     Harris-Foulkes estimate   =   -3037.47065017 Ry
     estimated scf accuracy    <      29.42301835 Ry

     iteration # 87     ecut=    30.00 Ry     beta=0.70
     Davidson diagonalization with overlap
     ethr =  1.00E-02,  avg # of iterations = 13.0

     negative rho (up, down):  2.054E-01 0.000E+00

     total cpu time spent up to now is       11.7 secs

     total energy              =     453.26108160 Ry
     Harris-Foulkes estimate   =   -1841.98370548 Ry
     estimated scf accuracy    <      19.26914932 Ry

     iteration # 88     ecut=    30.00 Ry     beta=0.70
     Davidson diagonalization with overlap
     ethr =  1.00E-02,  avg # of iterations = 11.0

     negative rho (up, down):  4.650E-02 0.000E+00

     total cpu time spent up to now is       11.8 secs

     total energy              =     -30.91089725 Ry
     Harris-Foulkes estimate   =     -92.55468322 Ry
     estimated scf accuracy    <      45.51972699 Ry

     iteration # 89     ecut=    30.00 Ry     beta=0.70
     Davidson diagonalization with overlap
     ethr =  1.00E-02,  avg # of iterations =  7.0

     negative rho (up, down):  6.279E-02 0.000E+00

     total cpu time spent up to now is       11.9 secs

     total energy              =       6.26776240 Ry
     Harris-Foulkes estimate   =   -1005.33668773 Ry
     estimated scf accuracy    <      24.12798379 Ry

     iteration # 90     ecut=    30.00 Ry     beta=0.70
     Davidson diagonalization with overlap
     ethr =  1.00E-02,  avg # of iterations =  6.0

     negative rho (up, down):  4.922E-02 0.000E+00

     total cpu time spent up to now is       11.9 secs

     total energy              =     108.15262356 Ry
     Harris-Foulkes estimate   =    -685.61558321 Ry
     estimated scf accuracy    <      18.25502229 Ry

     iteration # 91     ecut=    30.00 Ry     beta=0.70
     Davidson diagonalization with overlap
     ethr =  1.00E-02,  avg # of iterations =  4.0

     negative rho (up, down):  1.379E-03 0.000E+00

     total cpu time spent up to now is       12.0 secs

     total energy              =     134.32618227 Ry
     Harris-Foulkes estimate   =    -490.68051611 Ry
     estimated scf accuracy    <      17.31153300 Ry

     iteration # 92     ecut=    30.00 Ry     beta=0.70
     Davidson diagonalization with overlap
     ethr =  1.00E-02,  avg # of iterations =  4.0

     negative rho (up, down):  2.026E-03 0.000E+00

     total cpu time spent up to now is       12.1 secs

     total energy              =     -65.73040694 Ry
     Harris-Foulkes estimate   =     -68.21580555 Ry
     estimated scf accuracy    <      50.84664829 Ry

     iteration # 93     ecut=    30.00 Ry     beta=0.70
     Davidson diagonalization with overlap
     ethr =  1.00E-02,  avg # of iterations =  1.0

     negative rho (up, down):  2.948E-01 0.000E+00

     total cpu time spent up to now is       12.1 secs

     total energy              =     -59.43206718 Ry
     Harris-Foulkes estimate   =     -65.73666082 Ry
     estimated scf accuracy    <      47.50176104 Ry

     iteration # 94     ecut=    30.00 Ry     beta=0.70
     Davidson diagonalization with overlap
     ethr =  1.00E-02,  avg # of iterations =  7.0

     negative rho (up, down):  1.970E-01 0.000E+00

     total cpu time spent up to now is       12.2 secs

     total energy              =    -176.42370406 Ry
     Harris-Foulkes estimate   =    -723.44771595 Ry
     estimated scf accuracy    <      27.80984397 Ry

     iteration # 95     ecut=    30.00 Ry     beta=0.70
     Davidson diagonalization with overlap
     ethr =  1.00E-02,  avg # of iterations =  5.0

     negative rho (up, down):  1.179E-01 0.000E+00

     total cpu time spent up to now is       12.3 secs

     total energy              =      25.20288137 Ry
     Harris-Foulkes estimate   =    -495.35081824 Ry
     estimated scf accuracy    <      16.25359410 Ry

     iteration # 96     ecut=    30.00 Ry     beta=0.70
     Davidson diagonalization with overlap
     ethr =  1.00E-02,  avg # of iterations =  6.0

     negative rho (up, down):  1.399E-01 0.000E+00

     total cpu time spent up to now is       12.4 secs

     total energy              =     -19.63980277 Ry
     Harris-Foulkes estimate   =     -68.98845894 Ry
     estimated scf accuracy    <      23.51122614 Ry

     iteration # 97     ecut=    30.00 Ry     beta=0.70
     Davidson diagonalization with overlap
     ethr =  1.00E-02,  avg # of iterations =  5.0

     negative rho (up, down):  1.105E-04 0.000E+00

     total cpu time spent up to now is       12.4 secs

     total energy              =     -14.22692249 Ry
     Harris-Foulkes estimate   =    -152.62081810 Ry
     estimated scf accuracy    <      23.33561670 Ry

     iteration # 98     ecut=    30.00 Ry     beta=0.70
     Davidson diagonalization with overlap
     ethr =  1.00E-02,  avg # of iterations =  3.0

     negative rho (up, down):  2.892E-02 0.000E+00

     total cpu time spent up to now is       12.5 secs

     total energy              =     -59.99603151 Ry
     Harris-Foulkes estimate   =     -61.34618483 Ry
     estimated scf accuracy    <      42.10655953 Ry

     iteration # 99     ecut=    30.00 Ry     beta=0.70
     Davidson diagonalization with overlap
     ethr =  1.00E-02,  avg # of iterations =  8.0

     negative rho (up, down):  1.143E-03 0.000E+00

     total cpu time spent up to now is       12.6 secs

     total energy              =     119.72683785 Ry
     Harris-Foulkes estimate   =    -703.45463490 Ry
     estimated scf accuracy    <      32.30190479 Ry

     iteration #100     ecut=    30.00 Ry     beta=0.70
     Davidson diagonalization with overlap
     ethr =  1.00E-02,  avg # of iterations =  8.0

     negative rho (up, down):  5.456E-03 0.000E+00

     total cpu time spent up to now is       12.6 secs

     total energy              =     -11.90500791 Ry
     Harris-Foulkes estimate   =    -200.93081741 Ry
     estimated scf accuracy    <      22.32904729 Ry

     End of self-consistent calculation

     convergence NOT achieved after 100 iterations: stopping

     Writing output data file pwscf.save
 
     init_run     :      0.09s CPU      0.11s WALL (       1 calls)
     electrons    :      8.59s CPU     10.84s WALL (       7 calls)
     update_pot   :      0.70s CPU      1.10s WALL (       6 calls)
     forces       :      0.16s CPU      0.17s WALL (       6 calls)

     Called by init_run:
     wfcinit      :      0.01s CPU      0.03s WALL (       1 calls)
     potinit      :      0.02s CPU      0.03s WALL (       1 calls)

     Called by electrons:
     c_bands      :      4.30s CPU      4.64s WALL (     227 calls)
     sum_band     :      0.68s CPU      0.73s WALL (     227 calls)
     v_of_rho     :      1.83s CPU      1.98s WALL (     234 calls)
     mix_rho      :      1.47s CPU      2.61s WALL (     227 calls)

     Called by c_bands:
     init_us_2    :      0.02s CPU      0.03s WALL (     455 calls)
     cegterg      :      4.25s CPU      4.52s WALL (     227 calls)

     Called by sum_band:

     Called by *egterg:
     h_psi        :      3.52s CPU      3.75s WALL (    1210 calls)
     g_psi        :      0.03s CPU      0.03s WALL (     982 calls)
     cdiaghg      :      0.28s CPU      0.30s WALL (    1203 calls)

     Called by h_psi:
     h_psi:pot    :      3.51s CPU      3.73s WALL (    1210 calls)
     h_psi:calbec :      0.16s CPU      0.22s WALL (    1210 calls)
     vloc_psi     :      3.33s CPU      3.49s WALL (    1210 calls)
     add_vuspsi   :      0.01s CPU      0.01s WALL (    1210 calls)

     General routines
     calbec       :      0.19s CPU      0.27s WALL (    1239 calls)
     fft          :      1.28s CPU      1.39s WALL (    2586 calls)
     fftw         :      3.46s CPU      3.64s WALL (   14500 calls)
     davcio       :      0.23s CPU      0.94s WALL (    3930 calls)
 
     Parallel routines
     fft_scatter  :      2.02s CPU      2.24s WALL (   17086 calls)
 
     PWSCF        :     9.77s CPU        12.73s WALL

 
   This run was terminated on:   0: 7:36  11Feb2018            

=------------------------------------------------------------------------------=
   JOB DONE.
=------------------------------------------------------------------------------=
