
     Program PWSCF v.6.0 (svn rev. 13079) starts on 11Feb2018 at  0:11:23 

     This program is part of the open-source Quantum ESPRESSO suite
     for quantum simulation of materials; please cite
         "P. Giannozzi et al., J. Phys.:Condens. Matter 21 395502 (2009);
          URL http://www.quantum-espresso.org", 
     in publications or presentations arising from this work. More details at
     http://www.quantum-espresso.org/quote

     Parallel version (MPI), running on    28 processors
     R & G space division:  proc/nbgrp/npool/nimage =      28
     Reading input from inputs/water-1-md/142.in

     Current dimensions of program PWSCF are:
     Max number of different atomic species (ntypx) = 10
     Max number of k-points (npk) =  40000
     Max angular momentum in pseudopotentials (lmaxx) =  3

     Subspace diagonalization in iterative solution of the eigenvalue problem:
     a serial algorithm will be used

 
     Parallelization info
     --------------------
     sticks:   dense  smooth     PW     G-vecs:    dense   smooth      PW
     Min         136     136     33                 6338     6338     787
     Max         137     137     34                 6341     6341     792
     Sum        3809    3809    949               177509   177509   22119
 


     bravais-lattice index     =            1
     lattice parameter (alat)  =      20.0000  a.u.
     unit-cell volume          =    8000.0000 (a.u.)^3
     number of atoms/cell      =            3
     number of atomic types    =            2
     number of electrons       =         8.00
     number of Kohn-Sham states=            8
     kinetic-energy cutoff     =      30.0000  Ry
     charge density cutoff     =     120.0000  Ry
     convergence threshold     =      1.0E-08
     mixing beta               =       0.7000
     number of iterations used =            8  plain     mixing
     Exchange-correlation      = BLYP ( 1  3  1  3 0 0)
     nstep                     =         5000


     celldm(1)=  20.000000  celldm(2)=   0.000000  celldm(3)=   0.000000
     celldm(4)=   0.000000  celldm(5)=   0.000000  celldm(6)=   0.000000

     crystal axes: (cart. coord. in units of alat)
               a(1) = (   1.000000   0.000000   0.000000 )  
               a(2) = (   0.000000   1.000000   0.000000 )  
               a(3) = (   0.000000   0.000000   1.000000 )  

     reciprocal axes: (cart. coord. in units 2 pi/alat)
               b(1) = (  1.000000  0.000000  0.000000 )  
               b(2) = (  0.000000  1.000000  0.000000 )  
               b(3) = (  0.000000  0.000000  1.000000 )  


     PseudoPot. # 1 for  H read from file:
     ./H.blyp-hgh.UPF
     MD5 check sum: c576e69559cde411e611be972c763230
     Pseudo is Norm-conserving, Zval =  1.0
     Generated in analytical, separable form
     Using radial grid of  929 points,  0 beta functions with: 

     PseudoPot. # 2 for  O read from file:
     ./O.blyp-hgh.UPF
     MD5 check sum: d0b7156309aa9befef28faac7bc56342
     Pseudo is Norm-conserving, Zval =  6.0
     Generated in analytical, separable form
     Using radial grid of 1095 points,  1 beta functions with: 
                l(1) =   0

     atomic species   valence    mass     pseudopotential
        H              1.00     1.01000      H( 1.00)
        O              6.00    16.00000      O( 1.00)

     No symmetry found



   Cartesian axes

     site n.     atom                  positions (alat units)
         1           H   tau(   1) = (   0.6280828   0.0761284   0.5101663  )
         2           H   tau(   2) = (   0.9803124   0.3698217   0.5329060  )
         3           O   tau(   3) = (   0.3531622   0.4106446   0.5879591  )

     number of k points=     1  Marzari-Vanderbilt smearing, width (Ry)=  0.0250
                       cart. coord. in units 2pi/alat
        k(    1) = (   0.0000000   0.0000000   0.0000000), wk =   2.0000000

     Dense  grid:   177509 G-vectors     FFT dimensions: (  72,  72,  72)

     Estimated max dynamical RAM per process >       6.09Mb

     Estimated total allocated dynamical RAM >     170.64Mb

     Initial potential from superposition of free atoms
     Check: negative starting charge=   -0.343101

     starting charge    7.99998, renormalised to    8.00000

     negative rho (up, down):  3.431E-01 0.000E+00
     Starting wfc are    6 randomized atomic wfcs +    2 random wfc

     total cpu time spent up to now is        0.2 secs

     per-process dynamical memory:    18.8 Mb

     Self-consistent Calculation

     iteration #  1     ecut=    30.00 Ry     beta=0.70
     Davidson diagonalization with overlap
     ethr =  1.00E-02,  avg # of iterations =  7.0

     negative rho (up, down):  8.318E-02 0.000E+00

     total cpu time spent up to now is        0.3 secs

     total energy              =     -28.24020351 Ry
     Harris-Foulkes estimate   =     -32.05664699 Ry
     estimated scf accuracy    <       4.41096293 Ry

     iteration #  2     ecut=    30.00 Ry     beta=0.70
     Davidson diagonalization with overlap
     ethr =  1.00E-02,  avg # of iterations =  4.0

     negative rho (up, down):  6.098E-02 0.000E+00

     total cpu time spent up to now is        0.3 secs

     total energy              =     -32.55634803 Ry
     Harris-Foulkes estimate   =     -37.63044709 Ry
     estimated scf accuracy    <      12.41703000 Ry

     iteration #  3     ecut=    30.00 Ry     beta=0.70
     Davidson diagonalization with overlap
     ethr =  1.00E-02,  avg # of iterations =  3.0

     negative rho (up, down):  6.294E-02 0.000E+00

     total cpu time spent up to now is        0.3 secs

     total energy              =     -33.09555423 Ry
     Harris-Foulkes estimate   =     -32.89443619 Ry
     estimated scf accuracy    <       4.73822768 Ry

     iteration #  4     ecut=    30.00 Ry     beta=0.70
     Davidson diagonalization with overlap
     ethr =  1.00E-02,  avg # of iterations =  1.0

     negative rho (up, down):  2.458E-02 0.000E+00

     total cpu time spent up to now is        0.4 secs

     total energy              =     -30.23046516 Ry
     Harris-Foulkes estimate   =     -33.09617759 Ry
     estimated scf accuracy    <       5.04023128 Ry

     iteration #  5     ecut=    30.00 Ry     beta=0.70
     Davidson diagonalization with overlap
     ethr =  1.00E-02,  avg # of iterations =  5.0

     negative rho (up, down):  2.396E-02 0.000E+00

     total cpu time spent up to now is        0.4 secs

     total energy              =     -33.27458144 Ry
     Harris-Foulkes estimate   =     -33.28506402 Ry
     estimated scf accuracy    <      13.43675796 Ry

     iteration #  6     ecut=    30.00 Ry     beta=0.70
     Davidson diagonalization with overlap
     ethr =  1.00E-02,  avg # of iterations =  1.0

     negative rho (up, down):  3.959E-02 0.000E+00

     total cpu time spent up to now is        0.4 secs

     total energy              =     -33.23222775 Ry
     Harris-Foulkes estimate   =     -33.27937169 Ry
     estimated scf accuracy    <      13.41190714 Ry

     iteration #  7     ecut=    30.00 Ry     beta=0.70
     Davidson diagonalization with overlap
     ethr =  1.00E-02,  avg # of iterations =  1.0

     negative rho (up, down):  9.301E-02 0.000E+00

     total cpu time spent up to now is        0.5 secs

     total energy              =     -32.65490257 Ry
     Harris-Foulkes estimate   =     -33.23589312 Ry
     estimated scf accuracy    <      12.67247260 Ry

     iteration #  8     ecut=    30.00 Ry     beta=0.70
     Davidson diagonalization with overlap
     ethr =  1.00E-02,  avg # of iterations =  1.0

     negative rho (up, down):  1.988E-02 0.000E+00

     total cpu time spent up to now is        0.5 secs

     total energy              =     -32.47654243 Ry
     Harris-Foulkes estimate   =     -32.79907145 Ry
     estimated scf accuracy    <       5.85223276 Ry

     iteration #  9     ecut=    30.00 Ry     beta=0.70
     Davidson diagonalization with overlap
     ethr =  1.00E-02,  avg # of iterations =  1.0

     negative rho (up, down):  2.564E-02 0.000E+00

     total cpu time spent up to now is        0.5 secs

     total energy              =     -31.53424827 Ry
     Harris-Foulkes estimate   =     -32.48387882 Ry
     estimated scf accuracy    <       5.21780983 Ry

     iteration # 10     ecut=    30.00 Ry     beta=0.70
     Davidson diagonalization with overlap
     ethr =  1.00E-02,  avg # of iterations =  2.0

     negative rho (up, down):  2.533E-02 0.000E+00

     total cpu time spent up to now is        0.6 secs

     total energy              =     -31.62264654 Ry
     Harris-Foulkes estimate   =     -31.56851548 Ry
     estimated scf accuracy    <       4.49176228 Ry

     iteration # 11     ecut=    30.00 Ry     beta=0.70
     Davidson diagonalization with overlap
     ethr =  1.00E-02,  avg # of iterations =  1.0

     negative rho (up, down):  3.488E-02 0.000E+00

     total cpu time spent up to now is        0.6 secs

     total energy              =     -31.44933650 Ry
     Harris-Foulkes estimate   =     -31.62032478 Ry
     estimated scf accuracy    <       3.74216752 Ry

     iteration # 12     ecut=    30.00 Ry     beta=0.70
     Davidson diagonalization with overlap
     ethr =  1.00E-02,  avg # of iterations =  1.0

     negative rho (up, down):  1.081E-01 0.000E+00

     total cpu time spent up to now is        0.6 secs

     total energy              =     -31.53572782 Ry
     Harris-Foulkes estimate   =     -31.48578046 Ry
     estimated scf accuracy    <       0.06066212 Ry

     iteration # 13     ecut=    30.00 Ry     beta=0.70
     Davidson diagonalization with overlap
     ethr =  7.58E-04,  avg # of iterations =  2.0

     negative rho (up, down):  9.929E-02 0.000E+00

     total cpu time spent up to now is        0.7 secs

     total energy              =     -31.60268339 Ry
     Harris-Foulkes estimate   =     -31.97193172 Ry
     estimated scf accuracy    <       3.28781884 Ry

     iteration # 14     ecut=    30.00 Ry     beta=0.70
     Davidson diagonalization with overlap
     ethr =  7.58E-04,  avg # of iterations =  1.0

     negative rho (up, down):  1.423E-02 0.000E+00

     total cpu time spent up to now is        0.7 secs

     total energy              =     -31.37136456 Ry
     Harris-Foulkes estimate   =     -31.60745315 Ry
     estimated scf accuracy    <       2.65729632 Ry

     iteration # 15     ecut=    30.00 Ry     beta=0.70
     Davidson diagonalization with overlap
     ethr =  7.58E-04,  avg # of iterations =  1.0

     negative rho (up, down):  1.715E-02 0.000E+00

     total cpu time spent up to now is        0.7 secs

     total energy              =     -31.52650277 Ry
     Harris-Foulkes estimate   =     -31.56698715 Ry
     estimated scf accuracy    <       4.48855020 Ry

     iteration # 16     ecut=    30.00 Ry     beta=0.70
     Davidson diagonalization with overlap
     ethr =  7.58E-04,  avg # of iterations =  1.0

     negative rho (up, down):  6.639E-03 0.000E+00

     total cpu time spent up to now is        0.8 secs

     total energy              =     -31.55586151 Ry
     Harris-Foulkes estimate   =     -31.52886361 Ry
     estimated scf accuracy    <       3.12423811 Ry

     iteration # 17     ecut=    30.00 Ry     beta=0.70
     Davidson diagonalization with overlap
     ethr =  7.58E-04,  avg # of iterations =  1.0

     negative rho (up, down):  9.954E-03 0.000E+00

     total cpu time spent up to now is        0.8 secs

     total energy              =     -31.43310371 Ry
     Harris-Foulkes estimate   =     -31.55893299 Ry
     estimated scf accuracy    <       4.43430599 Ry

     iteration # 18     ecut=    30.00 Ry     beta=0.70
     Davidson diagonalization with overlap
     ethr =  7.58E-04,  avg # of iterations =  1.0

     negative rho (up, down):  4.088E-03 0.000E+00

     total cpu time spent up to now is        0.8 secs

     total energy              =     -31.50402832 Ry
     Harris-Foulkes estimate   =     -31.49517390 Ry
     estimated scf accuracy    <       0.13290772 Ry

     iteration # 19     ecut=    30.00 Ry     beta=0.70
     Davidson diagonalization with overlap
     ethr =  7.58E-04,  avg # of iterations =  1.0

     negative rho (up, down):  6.567E-04 0.000E+00

     total cpu time spent up to now is        0.9 secs

     total energy              =     -31.48589968 Ry
     Harris-Foulkes estimate   =     -31.51562214 Ry
     estimated scf accuracy    <       1.52323204 Ry

     iteration # 20     ecut=    30.00 Ry     beta=0.70
     Davidson diagonalization with overlap
     ethr =  7.58E-04,  avg # of iterations =  1.0

     negative rho (up, down):  3.739E-04 0.000E+00

     total cpu time spent up to now is        0.9 secs

     total energy              =     -31.49696278 Ry
     Harris-Foulkes estimate   =     -31.49501984 Ry
     estimated scf accuracy    <       0.13978918 Ry

     iteration # 21     ecut=    30.00 Ry     beta=0.70
     Davidson diagonalization with overlap
     ethr =  7.58E-04,  avg # of iterations =  1.0

     negative rho (up, down):  2.444E-04 0.000E+00

     total cpu time spent up to now is        0.9 secs

     total energy              =     -31.49455473 Ry
     Harris-Foulkes estimate   =     -31.49756908 Ry
     estimated scf accuracy    <       0.36425126 Ry

     iteration # 22     ecut=    30.00 Ry     beta=0.70
     Davidson diagonalization with overlap
     ethr =  7.58E-04,  avg # of iterations =  1.0

     negative rho (up, down):  2.818E-04 0.000E+00

     total cpu time spent up to now is        1.0 secs

     total energy              =     -31.49146971 Ry
     Harris-Foulkes estimate   =     -31.49508682 Ry
     estimated scf accuracy    <       0.14855202 Ry

     iteration # 23     ecut=    30.00 Ry     beta=0.70
     Davidson diagonalization with overlap
     ethr =  7.58E-04,  avg # of iterations =  1.0

     negative rho (up, down):  3.354E-04 0.000E+00

     total cpu time spent up to now is        1.0 secs

     total energy              =     -31.49356490 Ry
     Harris-Foulkes estimate   =     -31.49357585 Ry
     estimated scf accuracy    <       0.00608547 Ry

     iteration # 24     ecut=    30.00 Ry     beta=0.70
     Davidson diagonalization with overlap
     ethr =  7.61E-05,  avg # of iterations =  1.0

     negative rho (up, down):  3.509E-04 0.000E+00

     total cpu time spent up to now is        1.0 secs

     total energy              =     -31.49354747 Ry
     Harris-Foulkes estimate   =     -31.49356594 Ry
     estimated scf accuracy    <       0.00539789 Ry

     iteration # 25     ecut=    30.00 Ry     beta=0.70
     Davidson diagonalization with overlap
     ethr =  6.75E-05,  avg # of iterations =  1.0

     negative rho (up, down):  4.545E-04 0.000E+00

     total cpu time spent up to now is        1.1 secs

     total energy              =     -31.49349811 Ry
     Harris-Foulkes estimate   =     -31.49354948 Ry
     estimated scf accuracy    <       0.00354554 Ry

     iteration # 26     ecut=    30.00 Ry     beta=0.70
     Davidson diagonalization with overlap
     ethr =  4.43E-05,  avg # of iterations =  1.0

     negative rho (up, down):  3.248E-04 0.000E+00

     total cpu time spent up to now is        1.1 secs

     total energy              =     -31.49348283 Ry
     Harris-Foulkes estimate   =     -31.49351753 Ry
     estimated scf accuracy    <       0.00027752 Ry

     iteration # 27     ecut=    30.00 Ry     beta=0.70
     Davidson diagonalization with overlap
     ethr =  3.47E-06,  avg # of iterations = 16.0

     negative rho (up, down):  4.633E-05 0.000E+00

     total cpu time spent up to now is        1.1 secs

     total energy              =     -31.49343081 Ry
     Harris-Foulkes estimate   =     -31.49358963 Ry
     estimated scf accuracy    <       0.00766143 Ry

     iteration # 28     ecut=    30.00 Ry     beta=0.70
     Davidson diagonalization with overlap
     ethr =  3.47E-06,  avg # of iterations =  1.0

     negative rho (up, down):  8.531E-07 0.000E+00

     total cpu time spent up to now is        1.2 secs

     total energy              =     -31.49351498 Ry
     Harris-Foulkes estimate   =     -31.49351466 Ry
     estimated scf accuracy    <       0.00001889 Ry

     iteration # 29     ecut=    30.00 Ry     beta=0.70
     Davidson diagonalization with overlap
     ethr =  2.36E-07,  avg # of iterations =  6.0

     negative rho (up, down):  7.166E-08 0.000E+00

     total cpu time spent up to now is        1.2 secs

     total energy              =     -31.49351538 Ry
     Harris-Foulkes estimate   =     -31.49351526 Ry
     estimated scf accuracy    <       0.00000042 Ry

     iteration # 30     ecut=    30.00 Ry     beta=0.70
     Davidson diagonalization with overlap
     ethr =  5.19E-09,  avg # of iterations =  1.0

     negative rho (up, down):  2.477E-08 0.000E+00

     total cpu time spent up to now is        1.2 secs

     total energy              =     -31.49351546 Ry
     Harris-Foulkes estimate   =     -31.49351539 Ry
     estimated scf accuracy    <       0.00000024 Ry

     iteration # 31     ecut=    30.00 Ry     beta=0.70
     Davidson diagonalization with overlap
     ethr =  2.94E-09,  avg # of iterations =  1.0

     total cpu time spent up to now is        1.3 secs

     End of self-consistent calculation

          k = 0.0000 0.0000 0.0000 ( 22119 PWs)   bands (ev):

   -23.6056  -7.0660  -7.0292  -7.0209  -6.9230  -6.8547  -0.1871   0.6202

     the Fermi energy is    -6.8868 ev

!    total energy              =     -31.49351545 Ry
     Harris-Foulkes estimate   =     -31.49351546 Ry
     estimated scf accuracy    <          4.6E-09 Ry

     convergence has been achieved in  31 iterations

     Forces acting on atoms (Ry/au):

     atom    1 type  1   force =    -0.00043776    0.00049770   -0.00016299
     atom    2 type  1   force =     0.00276469    0.00034620    0.00009246
     atom    3 type  2   force =    -0.00232693   -0.00084390    0.00007054

     Total force =     0.003791     Total SCF correction =     0.000063

     Molecular Dynamics Calculation

     Starting temperature  =  1000.00 K

     temperature is controlled by Andersen thermostat
     Collision frequency = 1.0000/timestep
     mass H                =     1.01
     mass O                =    16.00
     Time step             =   100.00 a.u.,  4.8378 femto-seconds

     Entering Dynamics:    iteration =     1
                           time      =   0.0048 pico-seconds


     Andersen thermostat:    3 collisions

ATOMIC_POSITIONS (bohr)
H       12.790836391   1.801811426  10.004312851
H       19.627795771   7.627328366  10.469726038
O        7.047416785   8.180689552  11.783637074


     kinetic energy (Ekin) =     0.01319564 Ry
     temperature           =   694.47456190 K 
     Ekin + Etot (const)   =   -31.48031981 Ry

     Linear momentum :   -0.0000000000   -0.0000000000   -0.0000000000

     Writing output data file pwscf.save
     Check: negative starting charge=   -0.343101
     NEW-OLD atomic charge density approx. for the potential
     Check: negative starting charge=   -0.343340

     negative rho (up, down):  8.217E-02 0.000E+00

     total cpu time spent up to now is        1.5 secs

     per-process dynamical memory:    20.4 Mb

     Self-consistent Calculation

     iteration #  1     ecut=    30.00 Ry     beta=0.70
     Davidson diagonalization with overlap
     c_bands:  1 eigenvalues not converged
     ethr =  1.00E-06,  avg # of iterations = 20.0

     negative rho (up, down):  1.978E-02 0.000E+00

     total cpu time spent up to now is        1.6 secs

     total energy              =     -31.44933531 Ry
     Harris-Foulkes estimate   =     -31.43072135 Ry
     estimated scf accuracy    <       0.03310494 Ry

     iteration #  2     ecut=    30.00 Ry     beta=0.70
     Davidson diagonalization with overlap
     ethr =  4.14E-04,  avg # of iterations =  2.0

     negative rho (up, down):  1.843E-02 0.000E+00

     total cpu time spent up to now is        1.6 secs

     total energy              =     -31.46794657 Ry
     Harris-Foulkes estimate   =     -31.85958987 Ry
     estimated scf accuracy    <       4.06620569 Ry

     iteration #  3     ecut=    30.00 Ry     beta=0.70
     Davidson diagonalization with overlap
     ethr =  4.14E-04,  avg # of iterations =  2.0

     negative rho (up, down):  1.805E-02 0.000E+00

     total cpu time spent up to now is        1.7 secs

     total energy              =     -31.47187889 Ry
     Harris-Foulkes estimate   =     -31.49124041 Ry
     estimated scf accuracy    <       0.91210922 Ry

     iteration #  4     ecut=    30.00 Ry     beta=0.70
     Davidson diagonalization with overlap
     ethr =  4.14E-04,  avg # of iterations =  1.0

     negative rho (up, down):  5.660E-03 0.000E+00

     total cpu time spent up to now is        1.7 secs

     total energy              =     -31.44812493 Ry
     Harris-Foulkes estimate   =     -31.47998148 Ry
     estimated scf accuracy    <       0.36932197 Ry

     iteration #  5     ecut=    30.00 Ry     beta=0.70
     Davidson diagonalization with overlap
     ethr =  4.14E-04,  avg # of iterations =  1.0

     negative rho (up, down):  3.299E-03 0.000E+00

     total cpu time spent up to now is        1.7 secs

     total energy              =     -31.46877496 Ry
     Harris-Foulkes estimate   =     -31.55747858 Ry
     estimated scf accuracy    <       2.51162729 Ry

     iteration #  6     ecut=    30.00 Ry     beta=0.70
     Davidson diagonalization with overlap
     ethr =  4.14E-04,  avg # of iterations =  1.0

     negative rho (up, down):  9.760E-04 0.000E+00

     total cpu time spent up to now is        1.8 secs

     total energy              =     -31.49226242 Ry
     Harris-Foulkes estimate   =     -31.49217109 Ry
     estimated scf accuracy    <       0.07667286 Ry

     iteration #  7     ecut=    30.00 Ry     beta=0.70
     Davidson diagonalization with overlap
     ethr =  4.14E-04,  avg # of iterations =  3.0

     negative rho (up, down):  2.427E-04 0.000E+00

     total cpu time spent up to now is        1.8 secs

     total energy              =     -31.49353164 Ry
     Harris-Foulkes estimate   =     -31.49356942 Ry
     estimated scf accuracy    <       0.00579340 Ry

     iteration #  8     ecut=    30.00 Ry     beta=0.70
     Davidson diagonalization with overlap
     ethr =  7.24E-05,  avg # of iterations = 10.0

     negative rho (up, down):  4.520E-06 0.000E+00

     total cpu time spent up to now is        1.8 secs

     total energy              =     -31.49373171 Ry
     Harris-Foulkes estimate   =     -31.49364622 Ry
     estimated scf accuracy    <       0.00081663 Ry

     iteration #  9     ecut=    30.00 Ry     beta=0.70
     Davidson diagonalization with overlap
     ethr =  1.02E-05,  avg # of iterations = 14.0

     negative rho (up, down):  8.883E-08 0.000E+00

     total cpu time spent up to now is        1.9 secs

     total energy              =     -31.49367510 Ry
     Harris-Foulkes estimate   =     -31.49387216 Ry
     estimated scf accuracy    <       0.02104980 Ry

     iteration # 10     ecut=    30.00 Ry     beta=0.70
     Davidson diagonalization with overlap
     ethr =  1.02E-05,  avg # of iterations =  1.0

     total cpu time spent up to now is        2.0 secs

     total energy              =     -31.49355074 Ry
     Harris-Foulkes estimate   =     -31.49372450 Ry
     estimated scf accuracy    <       0.00617182 Ry

     iteration # 11     ecut=    30.00 Ry     beta=0.70
     Davidson diagonalization with overlap
     ethr =  1.02E-05,  avg # of iterations =  1.0

     total cpu time spent up to now is        2.0 secs

     total energy              =     -31.49366240 Ry
     Harris-Foulkes estimate   =     -31.49367377 Ry
     estimated scf accuracy    <       0.00111963 Ry

     iteration # 12     ecut=    30.00 Ry     beta=0.70
     Davidson diagonalization with overlap
     ethr =  1.02E-05,  avg # of iterations =  1.0

     total cpu time spent up to now is        2.0 secs

     total energy              =     -31.49366096 Ry
     Harris-Foulkes estimate   =     -31.49366519 Ry
     estimated scf accuracy    <       0.00028939 Ry

     iteration # 13     ecut=    30.00 Ry     beta=0.70
     Davidson diagonalization with overlap
     ethr =  3.62E-06,  avg # of iterations =  1.0

     total cpu time spent up to now is        2.1 secs

     total energy              =     -31.49366213 Ry
     Harris-Foulkes estimate   =     -31.49366247 Ry
     estimated scf accuracy    <       0.00002354 Ry

     iteration # 14     ecut=    30.00 Ry     beta=0.70
     Davidson diagonalization with overlap
     ethr =  2.94E-07,  avg # of iterations =  1.0

     total cpu time spent up to now is        2.1 secs

     total energy              =     -31.49366213 Ry
     Harris-Foulkes estimate   =     -31.49366222 Ry
     estimated scf accuracy    <       0.00000358 Ry

     iteration # 15     ecut=    30.00 Ry     beta=0.70
     Davidson diagonalization with overlap
     ethr =  4.47E-08,  avg # of iterations =  1.0

     total cpu time spent up to now is        2.1 secs

     End of self-consistent calculation

          k = 0.0000 0.0000 0.0000 ( 22119 PWs)   bands (ev):

   -23.6093  -7.0710  -7.0327  -7.0244  -6.9289  -6.8534  -0.1857   0.6227

     the Fermi energy is    -6.8902 ev

!    total energy              =     -31.49366219 Ry
     Harris-Foulkes estimate   =     -31.49366217 Ry
     estimated scf accuracy    <          1.2E-09 Ry

     convergence has been achieved in  15 iterations

     Forces acting on atoms (Ry/au):

     atom    1 type  1   force =    -0.00041101    0.00037951    0.00002182
     atom    2 type  1   force =     0.00266442    0.00000012    0.00028714
     atom    3 type  2   force =    -0.00225341   -0.00037963   -0.00030896

     Total force =     0.003579     Total SCF correction =     0.000195

     Entering Dynamics:    iteration =     2
                           time      =   0.0097 pico-seconds


     Andersen thermostat:    3 collisions

ATOMIC_POSITIONS (bohr)
H       12.838785264   1.982083892  10.149680609
H       19.719995735   7.473479041  10.649086406
O        7.038569889   8.179021591  11.763138611


     kinetic energy (Ekin) =     0.00862986 Ry
     temperature           =   454.18177345 K 
     Ekin + Etot (const)   =   -31.48503233 Ry
     Message from routine dynamics:
     Total linear momentum <> 0

     Linear momentum :   -0.0482643422    0.4839037204    0.0463385468

     Writing output data file pwscf.save

     first order wave-functions extrapolation
     Check: negative starting charge=   -0.343340
     first order charge density extrapolation
     Check: negative starting charge=   -0.342585

     negative rho (up, down):  1.134E-01 0.000E+00

     total cpu time spent up to now is        2.4 secs

     per-process dynamical memory:    20.4 Mb

     Self-consistent Calculation

     iteration #  1     ecut=    30.00 Ry     beta=0.70
     Davidson diagonalization with overlap
     c_bands:  1 eigenvalues not converged
     ethr =  1.00E-06,  avg # of iterations = 20.0

     negative rho (up, down):  2.803E-02 0.000E+00

     total cpu time spent up to now is        2.5 secs

     total energy              =     -31.40994797 Ry
     Harris-Foulkes estimate   =     -31.41717857 Ry
     estimated scf accuracy    <       0.07388946 Ry

     iteration #  2     ecut=    30.00 Ry     beta=0.70
     Davidson diagonalization with overlap
     ethr =  9.24E-04,  avg # of iterations =  2.0

     negative rho (up, down):  2.536E-02 0.000E+00

     total cpu time spent up to now is        2.6 secs

     total energy              =     -31.48321651 Ry
     Harris-Foulkes estimate   =     -32.06667421 Ry
     estimated scf accuracy    <       4.44657321 Ry

     iteration #  3     ecut=    30.00 Ry     beta=0.70
     Davidson diagonalization with overlap
     ethr =  9.24E-04,  avg # of iterations =  2.0

     negative rho (up, down):  2.446E-02 0.000E+00

     total cpu time spent up to now is        2.6 secs

     total energy              =     -31.47518151 Ry
     Harris-Foulkes estimate   =     -31.51649560 Ry
     estimated scf accuracy    <       1.05858961 Ry

     iteration #  4     ecut=    30.00 Ry     beta=0.70
     Davidson diagonalization with overlap
     ethr =  9.24E-04,  avg # of iterations =  1.0

     negative rho (up, down):  1.987E-02 0.000E+00

     total cpu time spent up to now is        2.6 secs

     total energy              =     -31.36001349 Ry
     Harris-Foulkes estimate   =     -31.48766277 Ry
     estimated scf accuracy    <       1.67230979 Ry

     iteration #  5     ecut=    30.00 Ry     beta=0.70
     Davidson diagonalization with overlap
     ethr =  9.24E-04,  avg # of iterations =  1.0

     negative rho (up, down):  8.197E-03 0.000E+00

     total cpu time spent up to now is        2.7 secs

     total energy              =     -31.45812947 Ry
     Harris-Foulkes estimate   =     -31.56674305 Ry
     estimated scf accuracy    <       2.61533167 Ry

     iteration #  6     ecut=    30.00 Ry     beta=0.70
     Davidson diagonalization with overlap
     ethr =  9.24E-04,  avg # of iterations =  1.0

     negative rho (up, down):  2.188E-03 0.000E+00

     total cpu time spent up to now is        2.7 secs

     total energy              =     -31.49361525 Ry
     Harris-Foulkes estimate   =     -31.48717405 Ry
     estimated scf accuracy    <       0.02670210 Ry

     iteration #  7     ecut=    30.00 Ry     beta=0.70
     Davidson diagonalization with overlap
     ethr =  3.34E-04,  avg # of iterations =  3.0

     negative rho (up, down):  1.255E-03 0.000E+00

     total cpu time spent up to now is        2.8 secs

     total energy              =     -31.49538045 Ry
     Harris-Foulkes estimate   =     -31.49414726 Ry
     estimated scf accuracy    <       0.10556317 Ry

     iteration #  8     ecut=    30.00 Ry     beta=0.70
     Davidson diagonalization with overlap
     ethr =  3.34E-04,  avg # of iterations =  1.0

     negative rho (up, down):  4.895E-05 0.000E+00

     total cpu time spent up to now is        2.8 secs

     total energy              =     -31.49024268 Ry
     Harris-Foulkes estimate   =     -31.49543723 Ry
     estimated scf accuracy    <       0.15135105 Ry

     iteration #  9     ecut=    30.00 Ry     beta=0.70
     Davidson diagonalization with overlap
     ethr =  3.34E-04,  avg # of iterations =  1.0

     negative rho (up, down):  1.327E-06 0.000E+00

     total cpu time spent up to now is        2.9 secs

     total energy              =     -31.49448995 Ry
     Harris-Foulkes estimate   =     -31.49502869 Ry
     estimated scf accuracy    <       0.09321993 Ry

     iteration # 10     ecut=    30.00 Ry     beta=0.70
     Davidson diagonalization with overlap
     ethr =  3.34E-04,  avg # of iterations =  1.0

     negative rho (up, down):  1.854E-07 0.000E+00

     total cpu time spent up to now is        2.9 secs

     total energy              =     -31.49389837 Ry
     Harris-Foulkes estimate   =     -31.49457233 Ry
     estimated scf accuracy    <       0.04677178 Ry

     iteration # 11     ecut=    30.00 Ry     beta=0.70
     Davidson diagonalization with overlap
     ethr =  3.34E-04,  avg # of iterations =  1.0

     total cpu time spent up to now is        3.0 secs

     total energy              =     -31.49399337 Ry
     Harris-Foulkes estimate   =     -31.49414049 Ry
     estimated scf accuracy    <       0.00357457 Ry

     iteration # 12     ecut=    30.00 Ry     beta=0.70
     Davidson diagonalization with overlap
     ethr =  4.47E-05,  avg # of iterations = 11.0

     total cpu time spent up to now is        3.0 secs

     total energy              =     -31.49407567 Ry
     Harris-Foulkes estimate   =     -31.49414586 Ry
     estimated scf accuracy    <       0.00395238 Ry

     iteration # 13     ecut=    30.00 Ry     beta=0.70
     Davidson diagonalization with overlap
     ethr =  4.47E-05,  avg # of iterations =  1.0

     total cpu time spent up to now is        3.1 secs

     total energy              =     -31.49410532 Ry
     Harris-Foulkes estimate   =     -31.49410546 Ry
     estimated scf accuracy    <       0.00008563 Ry

     iteration # 14     ecut=    30.00 Ry     beta=0.70
     Davidson diagonalization with overlap
     ethr =  1.07E-06,  avg # of iterations = 17.0

     total cpu time spent up to now is        3.2 secs

     total energy              =     -31.49410361 Ry
     Harris-Foulkes estimate   =     -31.49410533 Ry
     estimated scf accuracy    <       0.00007591 Ry

     iteration # 15     ecut=    30.00 Ry     beta=0.70
     Davidson diagonalization with overlap
     ethr =  9.49E-07,  avg # of iterations =  1.0

     total cpu time spent up to now is        3.2 secs

     End of self-consistent calculation

          k = 0.0000 0.0000 0.0000 ( 22119 PWs)   bands (ev):

   -23.6136  -7.0803  -7.0376  -7.0283  -6.9343  -6.8490  -0.1820   0.6202

     the Fermi energy is    -6.8942 ev

!    total energy              =     -31.49410446 Ry
     Harris-Foulkes estimate   =     -31.49410439 Ry
     estimated scf accuracy    <          2.5E-09 Ry

     convergence has been achieved in  15 iterations

     Forces acting on atoms (Ry/au):

     atom    1 type  1   force =    -0.00043034    0.00018622    0.00044466
     atom    2 type  1   force =     0.00299537   -0.00021624    0.00072231
     atom    3 type  2   force =    -0.00256503    0.00003003   -0.00116697

     Total force =     0.004231     Total SCF correction =     0.001804
     SCF correction compared to forces is large: reduce conv_thr to get better values

     Entering Dynamics:    iteration =     3
                           time      =   0.0145 pico-seconds


     Andersen thermostat:    3 collisions

ATOMIC_POSITIONS (bohr)
H       13.055723063   1.701387631  10.242958619
H       19.895891437   7.543687056  10.995882982
O        7.013772275   8.192308662  11.735358903


     kinetic energy (Ekin) =     0.01700823 Ry
     temperature           =   895.12822914 K 
     Ekin + Etot (const)   =   -31.47709622 Ry
     Message from routine dynamics:
     Total linear momentum <> 0

     Linear momentum :    0.3047675616   -0.3500624036   -0.1369358232

     Writing output data file pwscf.save

     second order wave-functions extrapolation
     Check: negative starting charge=   -0.342585
     second order charge density extrapolation
     Check: negative starting charge=   -0.342257

     negative rho (up, down):  7.400E-02 0.000E+00

     total cpu time spent up to now is        3.5 secs

     per-process dynamical memory:    20.4 Mb

     Self-consistent Calculation

     iteration #  1     ecut=    30.00 Ry     beta=0.70
     Davidson diagonalization with overlap
     c_bands:  1 eigenvalues not converged
     ethr =  1.00E-06,  avg # of iterations = 20.0

     negative rho (up, down):  1.769E-02 0.000E+00

     total cpu time spent up to now is        3.7 secs

     total energy              =     -31.43632035 Ry
     Harris-Foulkes estimate   =     -31.43554053 Ry
     estimated scf accuracy    <       0.05382620 Ry

     iteration #  2     ecut=    30.00 Ry     beta=0.70
     Davidson diagonalization with overlap
     ethr =  6.73E-04,  avg # of iterations =  2.0

     negative rho (up, down):  1.621E-02 0.000E+00

     total cpu time spent up to now is        3.7 secs

     total energy              =     -31.47787143 Ry
     Harris-Foulkes estimate   =     -31.97478081 Ry
     estimated scf accuracy    <       4.25955886 Ry

     iteration #  3     ecut=    30.00 Ry     beta=0.70
     Davidson diagonalization with overlap
     ethr =  6.73E-04,  avg # of iterations =  2.0

     negative rho (up, down):  1.566E-02 0.000E+00

     total cpu time spent up to now is        3.7 secs

     total energy              =     -31.47379900 Ry
     Harris-Foulkes estimate   =     -31.52082361 Ry
     estimated scf accuracy    <       1.03507291 Ry

     iteration #  4     ecut=    30.00 Ry     beta=0.70
     Davidson diagonalization with overlap
     ethr =  6.73E-04,  avg # of iterations =  1.0

     negative rho (up, down):  1.101E-02 0.000E+00

     total cpu time spent up to now is        3.8 secs

     total energy              =     -31.41068800 Ry
     Harris-Foulkes estimate   =     -31.48981821 Ry
     estimated scf accuracy    <       0.97517400 Ry

     iteration #  5     ecut=    30.00 Ry     beta=0.70
     Davidson diagonalization with overlap
     ethr =  6.73E-04,  avg # of iterations =  1.0

     negative rho (up, down):  3.972E-03 0.000E+00

     total cpu time spent up to now is        3.8 secs

     total energy              =     -31.47497743 Ry
     Harris-Foulkes estimate   =     -31.55677085 Ry
     estimated scf accuracy    <       2.51396906 Ry

     iteration #  6     ecut=    30.00 Ry     beta=0.70
     Davidson diagonalization with overlap
     ethr =  6.73E-04,  avg # of iterations =  1.0

     negative rho (up, down):  1.300E-03 0.000E+00

     total cpu time spent up to now is        3.8 secs

     total energy              =     -31.49247774 Ry
     Harris-Foulkes estimate   =     -31.49448799 Ry
     estimated scf accuracy    <       0.20689556 Ry

     iteration #  7     ecut=    30.00 Ry     beta=0.70
     Davidson diagonalization with overlap
     ethr =  6.73E-04,  avg # of iterations =  1.0

     negative rho (up, down):  5.234E-04 0.000E+00

     total cpu time spent up to now is        3.9 secs

     total energy              =     -31.49501848 Ry
     Harris-Foulkes estimate   =     -31.49464343 Ry
     estimated scf accuracy    <       0.00073986 Ry

     iteration #  8     ecut=    30.00 Ry     beta=0.70
     Davidson diagonalization with overlap
     ethr =  9.25E-06,  avg # of iterations = 13.0

     negative rho (up, down):  2.369E-05 0.000E+00

     total cpu time spent up to now is        3.9 secs

     total energy              =     -31.49487313 Ry
     Harris-Foulkes estimate   =     -31.49521696 Ry
     estimated scf accuracy    <       0.02612705 Ry

     iteration #  9     ecut=    30.00 Ry     beta=0.70
     Davidson diagonalization with overlap
     ethr =  9.25E-06,  avg # of iterations = 10.0

     negative rho (up, down):  4.007E-07 0.000E+00

     total cpu time spent up to now is        4.0 secs

     total energy              =     -31.49492807 Ry
     Harris-Foulkes estimate   =     -31.49499810 Ry
     estimated scf accuracy    <       0.00317006 Ry

     iteration # 10     ecut=    30.00 Ry     beta=0.70
     Davidson diagonalization with overlap
     ethr =  9.25E-06,  avg # of iterations =  1.0

     negative rho (up, down):  1.039E-08 0.000E+00

     total cpu time spent up to now is        4.0 secs

     total energy              =     -31.49497322 Ry
     Harris-Foulkes estimate   =     -31.49496939 Ry
     estimated scf accuracy    <       0.00002751 Ry

     iteration # 11     ecut=    30.00 Ry     beta=0.70
     Davidson diagonalization with overlap
     ethr =  3.44E-07,  avg # of iterations =  7.0

     total cpu time spent up to now is        4.0 secs

     total energy              =     -31.49487692 Ry
     Harris-Foulkes estimate   =     -31.49500166 Ry
     estimated scf accuracy    <       0.00308560 Ry

     iteration # 12     ecut=    30.00 Ry     beta=0.70
     Davidson diagonalization with overlap
     ethr =  3.44E-07,  avg # of iterations =  1.0

     total cpu time spent up to now is        4.1 secs

     total energy              =     -31.49495704 Ry
     Harris-Foulkes estimate   =     -31.49499938 Ry
     estimated scf accuracy    <       0.00261897 Ry

     iteration # 13     ecut=    30.00 Ry     beta=0.70
     Davidson diagonalization with overlap
     ethr =  3.44E-07,  avg # of iterations =  1.0

     total cpu time spent up to now is        4.1 secs

     total energy              =     -31.49496799 Ry
     Harris-Foulkes estimate   =     -31.49497171 Ry
     estimated scf accuracy    <       0.00025651 Ry

     iteration # 14     ecut=    30.00 Ry     beta=0.70
     Davidson diagonalization with overlap
     ethr =  3.44E-07,  avg # of iterations =  1.0

     total cpu time spent up to now is        4.1 secs

     total energy              =     -31.49496902 Ry
     Harris-Foulkes estimate   =     -31.49496926 Ry
     estimated scf accuracy    <       0.00002754 Ry

     iteration # 15     ecut=    30.00 Ry     beta=0.70
     Davidson diagonalization with overlap
     ethr =  3.44E-07,  avg # of iterations =  1.0

     total cpu time spent up to now is        4.2 secs

     End of self-consistent calculation

          k = 0.0000 0.0000 0.0000 ( 22119 PWs)   bands (ev):

   -23.6149  -7.0963  -7.0345  -7.0285  -6.9310  -6.8403  -0.1823   0.6326

     the Fermi energy is    -6.8944 ev

!    total energy              =     -31.49496917 Ry
     Harris-Foulkes estimate   =     -31.49496932 Ry
     estimated scf accuracy    <          9.1E-10 Ry

     convergence has been achieved in  15 iterations

     Forces acting on atoms (Ry/au):

     atom    1 type  1   force =    -0.00023155    0.00040829    0.00023129
     atom    2 type  1   force =     0.00569178    0.00029981    0.00073354
     atom    3 type  2   force =    -0.00546023   -0.00070810   -0.00096483

     Total force =     0.008034     Total SCF correction =     0.001613
     SCF correction compared to forces is large: reduce conv_thr to get better values

     Entering Dynamics:    iteration =     4
                           time      =   0.0194 pico-seconds


     Andersen thermostat:    3 collisions

ATOMIC_POSITIONS (bohr)
H       13.041625019   1.569686966  10.154526310
H       19.760883857   7.212124402  10.808350800
O        7.023184567   8.221552159  11.752779161


     kinetic energy (Ekin) =     0.01908615 Ry
     temperature           =  1004.48698904 K 
     Ekin + Etot (const)   =   -31.47588302 Ry
     Message from routine dynamics:
     Total linear momentum <> 0

     Linear momentum :    0.6585480540    0.4524520681   -0.2987964083

     Writing output data file pwscf.save

     second order wave-functions extrapolation
     Check: negative starting charge=   -0.342257
     second order charge density extrapolation
     Check: negative starting charge=   -0.343076

     negative rho (up, down):  5.828E-02 0.000E+00

     total cpu time spent up to now is        4.5 secs

     per-process dynamical memory:    20.4 Mb

     Self-consistent Calculation

     iteration #  1     ecut=    30.00 Ry     beta=0.70
     Davidson diagonalization with overlap
     c_bands:  1 eigenvalues not converged
     ethr =  1.00E-06,  avg # of iterations = 20.0

     negative rho (up, down):  1.367E-02 0.000E+00

     total cpu time spent up to now is        4.6 secs

     total energy              =     -31.47178487 Ry
     Harris-Foulkes estimate   =     -31.44489601 Ry
     estimated scf accuracy    <       0.01238897 Ry

     iteration #  2     ecut=    30.00 Ry     beta=0.70
     Davidson diagonalization with overlap
     ethr =  1.55E-04,  avg # of iterations =  2.0

     negative rho (up, down):  1.309E-02 0.000E+00

     total cpu time spent up to now is        4.6 secs

     total energy              =     -31.45616363 Ry
     Harris-Foulkes estimate   =     -31.68076716 Ry
     estimated scf accuracy    <       3.76750986 Ry

     iteration #  3     ecut=    30.00 Ry     beta=0.70
     Davidson diagonalization with overlap
     ethr =  1.55E-04,  avg # of iterations =  2.0

     negative rho (up, down):  1.270E-02 0.000E+00

     total cpu time spent up to now is        4.6 secs

     total energy              =     -31.46890391 Ry
     Harris-Foulkes estimate   =     -31.50003461 Ry
     estimated scf accuracy    <       0.74930511 Ry

     iteration #  4     ecut=    30.00 Ry     beta=0.70
     Davidson diagonalization with overlap
     ethr =  1.55E-04,  avg # of iterations =  1.0

     negative rho (up, down):  2.673E-03 0.000E+00

     total cpu time spent up to now is        4.7 secs

     total energy              =     -31.49038183 Ry
     Harris-Foulkes estimate   =     -31.48222264 Ry
     estimated scf accuracy    <       0.03247799 Ry

     iteration #  5     ecut=    30.00 Ry     beta=0.70
     Davidson diagonalization with overlap
     ethr =  1.55E-04,  avg # of iterations =  4.0

     negative rho (up, down):  1.262E-03 0.000E+00

     total cpu time spent up to now is        4.7 secs

     total energy              =     -31.49026921 Ry
     Harris-Foulkes estimate   =     -31.49406940 Ry
     estimated scf accuracy    <       0.15302117 Ry

     iteration #  6     ecut=    30.00 Ry     beta=0.70
     Davidson diagonalization with overlap
     ethr =  1.55E-04,  avg # of iterations =  1.0

     negative rho (up, down):  2.493E-05 0.000E+00

     total cpu time spent up to now is        4.7 secs

     total energy              =     -31.49318293 Ry
     Harris-Foulkes estimate   =     -31.49410521 Ry
     estimated scf accuracy    <       0.04478008 Ry

     iteration #  7     ecut=    30.00 Ry     beta=0.70
     Davidson diagonalization with overlap
     ethr =  1.55E-04,  avg # of iterations =  3.0

     negative rho (up, down):  6.836E-06 0.000E+00

     total cpu time spent up to now is        4.8 secs

     total energy              =     -31.49391811 Ry
     Harris-Foulkes estimate   =     -31.49402327 Ry
     estimated scf accuracy    <       0.00497416 Ry

     iteration #  8     ecut=    30.00 Ry     beta=0.70
     Davidson diagonalization with overlap
     ethr =  6.22E-05,  avg # of iterations =  1.0

     total cpu time spent up to now is        4.8 secs

     total energy              =     -31.49397064 Ry
     Harris-Foulkes estimate   =     -31.49397134 Ry
     estimated scf accuracy    <       0.00000188 Ry

     iteration #  9     ecut=    30.00 Ry     beta=0.70
     Davidson diagonalization with overlap
     c_bands:  1 eigenvalues not converged
     ethr =  2.35E-08,  avg # of iterations = 20.0

     total cpu time spent up to now is        4.9 secs

     total energy              =     -31.49396795 Ry
     Harris-Foulkes estimate   =     -31.49397686 Ry
     estimated scf accuracy    <       0.00051954 Ry

     iteration # 10     ecut=    30.00 Ry     beta=0.70
     Davidson diagonalization with overlap
     ethr =  2.35E-08,  avg # of iterations =  8.0

     total cpu time spent up to now is        4.9 secs

     total energy              =     -31.49397056 Ry
     Harris-Foulkes estimate   =     -31.49397127 Ry
     estimated scf accuracy    <       0.00002895 Ry

     iteration # 11     ecut=    30.00 Ry     beta=0.70
     Davidson diagonalization with overlap
     ethr =  2.35E-08,  avg # of iterations =  1.0

     total cpu time spent up to now is        4.9 secs

     total energy              =     -31.49397094 Ry
     Harris-Foulkes estimate   =     -31.49397109 Ry
     estimated scf accuracy    <       0.00000277 Ry

     iteration # 12     ecut=    30.00 Ry     beta=0.70
     Davidson diagonalization with overlap
     ethr =  2.35E-08,  avg # of iterations =  1.0

     total cpu time spent up to now is        5.0 secs

     total energy              =     -31.49397080 Ry
     Harris-Foulkes estimate   =     -31.49397097 Ry
     estimated scf accuracy    <       0.00000005 Ry

     iteration # 13     ecut=    30.00 Ry     beta=0.70
     Davidson diagonalization with overlap
     ethr =  6.28E-10,  avg # of iterations =  1.0

     total cpu time spent up to now is        5.0 secs

     End of self-consistent calculation

          k = 0.0000 0.0000 0.0000 ( 22119 PWs)   bands (ev):

   -23.6164  -7.0843  -7.0354  -7.0303  -6.9378  -6.8519  -0.1863   0.6272

     the Fermi energy is    -6.8962 ev

!    total energy              =     -31.49397080 Ry
     Harris-Foulkes estimate   =     -31.49397080 Ry
     estimated scf accuracy    <          9.1E-10 Ry

     convergence has been achieved in  13 iterations

     Forces acting on atoms (Ry/au):

     atom    1 type  1   force =    -0.00045138    0.00078276   -0.00014207
     atom    2 type  1   force =     0.00327113    0.00055167    0.00019586
     atom    3 type  2   force =    -0.00281975   -0.00133444   -0.00005379

     Total force =     0.004649     Total SCF correction =     0.000060

     Entering Dynamics:    iteration =     5
                           time      =   0.0242 pico-seconds


     Andersen thermostat:    3 collisions

ATOMIC_POSITIONS (bohr)
H       12.853411113   1.871585399  10.457904887
H       19.261763887   7.433602570  10.531894059
O        7.066572518   8.188514011  11.751079720


     kinetic energy (Ekin) =     0.03127845 Ry
     temperature           =  1646.15683571 K 
     Ekin + Etot (const)   =   -31.46269235 Ry
     Message from routine dynamics:
     Total linear momentum <> 0

     Linear momentum :    0.2555715914    0.0401351917   -0.1541686132

     Writing output data file pwscf.save

     second order wave-functions extrapolation
     Check: negative starting charge=   -0.343076
     second order charge density extrapolation
     Check: negative starting charge=   -0.343836

     negative rho (up, down):  5.897E-02 0.000E+00

     total cpu time spent up to now is        5.3 secs

     per-process dynamical memory:    20.4 Mb

     Self-consistent Calculation

     iteration #  1     ecut=    30.00 Ry     beta=0.70
     Davidson diagonalization with overlap
     c_bands:  1 eigenvalues not converged
     ethr =  1.00E-06,  avg # of iterations = 20.0

     negative rho (up, down):  1.382E-02 0.000E+00

     total cpu time spent up to now is        5.4 secs

     total energy              =     -31.45033257 Ry
     Harris-Foulkes estimate   =     -31.43977199 Ry
     estimated scf accuracy    <       0.03644624 Ry

     iteration #  2     ecut=    30.00 Ry     beta=0.70
     Davidson diagonalization with overlap
     ethr =  4.56E-04,  avg # of iterations =  2.0

     negative rho (up, down):  1.281E-02 0.000E+00

     total cpu time spent up to now is        5.4 secs

     total energy              =     -31.47878492 Ry
     Harris-Foulkes estimate   =     -31.90026684 Ry
     estimated scf accuracy    <       4.15520079 Ry

     iteration #  3     ecut=    30.00 Ry     beta=0.70
     Davidson diagonalization with overlap
     ethr =  4.56E-04,  avg # of iterations =  2.0

     negative rho (up, down):  1.257E-02 0.000E+00

     total cpu time spent up to now is        5.5 secs

     total energy              =     -31.48202351 Ry
     Harris-Foulkes estimate   =     -31.49118287 Ry
     estimated scf accuracy    <       0.92965442 Ry

     iteration #  4     ecut=    30.00 Ry     beta=0.70
     Davidson diagonalization with overlap
     ethr =  4.56E-04,  avg # of iterations =  1.0

     negative rho (up, down):  6.072E-03 0.000E+00

     total cpu time spent up to now is        5.5 secs

     total energy              =     -31.43835344 Ry
     Harris-Foulkes estimate   =     -31.48561595 Ry
     estimated scf accuracy    <       0.52624377 Ry

     iteration #  5     ecut=    30.00 Ry     beta=0.70
     Davidson diagonalization with overlap
     ethr =  4.56E-04,  avg # of iterations =  1.0

     negative rho (up, down):  2.586E-03 0.000E+00

     total cpu time spent up to now is        5.5 secs

     total energy              =     -31.46634948 Ry
     Harris-Foulkes estimate   =     -31.55657760 Ry
     estimated scf accuracy    <       2.57360710 Ry

     iteration #  6     ecut=    30.00 Ry     beta=0.70
     Davidson diagonalization with overlap
     ethr =  4.56E-04,  avg # of iterations =  1.0

     negative rho (up, down):  5.999E-04 0.000E+00

     total cpu time spent up to now is        5.5 secs

     total energy              =     -31.49333556 Ry
     Harris-Foulkes estimate   =     -31.49172031 Ry
     estimated scf accuracy    <       0.04803814 Ry

     iteration #  7     ecut=    30.00 Ry     beta=0.70
     Davidson diagonalization with overlap
     ethr =  4.56E-04,  avg # of iterations =  3.0

     negative rho (up, down):  3.410E-04 0.000E+00

     total cpu time spent up to now is        5.6 secs

     total energy              =     -31.49265909 Ry
     Harris-Foulkes estimate   =     -31.49338691 Ry
     estimated scf accuracy    <       0.05644788 Ry

     iteration #  8     ecut=    30.00 Ry     beta=0.70
     Davidson diagonalization with overlap
     ethr =  4.56E-04,  avg # of iterations =  1.0

     negative rho (up, down):  1.072E-06 0.000E+00

     total cpu time spent up to now is        5.6 secs

     total energy              =     -31.49286059 Ry
     Harris-Foulkes estimate   =     -31.49289598 Ry
     estimated scf accuracy    <       0.00722651 Ry

     iteration #  9     ecut=    30.00 Ry     beta=0.70
     Davidson diagonalization with overlap
     ethr =  9.03E-05,  avg # of iterations =  3.0

     total cpu time spent up to now is        5.6 secs

     total energy              =     -31.49277647 Ry
     Harris-Foulkes estimate   =     -31.49287232 Ry
     estimated scf accuracy    <       0.00296726 Ry

     iteration # 10     ecut=    30.00 Ry     beta=0.70
     Davidson diagonalization with overlap
     ethr =  3.71E-05,  avg # of iterations = 10.0

     total cpu time spent up to now is        5.7 secs

     total energy              =     -31.49286391 Ry
     Harris-Foulkes estimate   =     -31.49285826 Ry
     estimated scf accuracy    <       0.00136959 Ry

     iteration # 11     ecut=    30.00 Ry     beta=0.70
     Davidson diagonalization with overlap
     ethr =  1.71E-05,  avg # of iterations =  1.0

     total cpu time spent up to now is        5.8 secs

     total energy              =     -31.49280228 Ry
     Harris-Foulkes estimate   =     -31.49286467 Ry
     estimated scf accuracy    <       0.00205747 Ry

     iteration # 12     ecut=    30.00 Ry     beta=0.70
     Davidson diagonalization with overlap
     ethr =  1.71E-05,  avg # of iterations =  1.0

     total cpu time spent up to now is        5.8 secs

     total energy              =     -31.49283991 Ry
     Harris-Foulkes estimate   =     -31.49284994 Ry
     estimated scf accuracy    <       0.00059427 Ry

     iteration # 13     ecut=    30.00 Ry     beta=0.70
     Davidson diagonalization with overlap
     ethr =  7.43E-06,  avg # of iterations =  1.0

     total cpu time spent up to now is        5.8 secs

     total energy              =     -31.49284417 Ry
     Harris-Foulkes estimate   =     -31.49284432 Ry
     estimated scf accuracy    <       0.00001100 Ry

     iteration # 14     ecut=    30.00 Ry     beta=0.70
     Davidson diagonalization with overlap
     ethr =  1.38E-07,  avg # of iterations = 17.0

     total cpu time spent up to now is        5.9 secs

     total energy              =     -31.49284426 Ry
     Harris-Foulkes estimate   =     -31.49284426 Ry
     estimated scf accuracy    <       0.00000012 Ry

     iteration # 15     ecut=    30.00 Ry     beta=0.70
     Davidson diagonalization with overlap
     ethr =  1.54E-09,  avg # of iterations =  1.0

     total cpu time spent up to now is        5.9 secs

     End of self-consistent calculation

          k = 0.0000 0.0000 0.0000 ( 22119 PWs)   bands (ev):

   -23.6153  -7.0595  -7.0396  -7.0302  -6.9498  -6.8609  -0.1890   0.6300

     the Fermi energy is    -6.8962 ev

!    total energy              =     -31.49284426 Ry
     Harris-Foulkes estimate   =     -31.49284426 Ry
     estimated scf accuracy    <          2.6E-10 Ry

     convergence has been achieved in  15 iterations

     Forces acting on atoms (Ry/au):

     atom    1 type  1   force =    -0.00011485    0.00074817   -0.00016148
     atom    2 type  1   force =     0.00169806   -0.00016844    0.00002639
     atom    3 type  2   force =    -0.00158321   -0.00057973    0.00013510

     Total force =     0.002524     Total SCF correction =     0.000093

     Entering Dynamics:    iteration =     6
                           time      =   0.0290 pico-seconds


     Andersen thermostat:    3 collisions

ATOMIC_POSITIONS (bohr)
H       12.826718350   1.292394040  10.337767181
H       18.913430104   7.214667221  10.882580946
O        7.090246069   8.238895759  11.736526303


     kinetic energy (Ekin) =     0.03314777 Ry
     temperature           =  1744.53769704 K 
     Ekin + Etot (const)   =   -31.45969649 Ry
     Message from routine dynamics:
     Total linear momentum <> 0

     Linear momentum :    0.0271839412   -0.0722010692   -0.2133873842

     Writing output data file pwscf.save

     second order wave-functions extrapolation
     Check: negative starting charge=   -0.343836
     second order charge density extrapolation
     Check: negative starting charge=   -0.344629

     negative rho (up, down):  8.582E-02 0.000E+00

     total cpu time spent up to now is        6.2 secs

     per-process dynamical memory:    20.4 Mb

     Self-consistent Calculation

     iteration #  1     ecut=    30.00 Ry     beta=0.70
     Davidson diagonalization with overlap
     c_bands:  1 eigenvalues not converged
     ethr =  1.00E-06,  avg # of iterations = 20.0

     negative rho (up, down):  2.135E-02 0.000E+00

     total cpu time spent up to now is        6.4 secs

     total energy              =     -30.91356393 Ry
     Harris-Foulkes estimate   =     -31.42102807 Ry
     estimated scf accuracy    <       0.72893547 Ry

     iteration #  2     ecut=    30.00 Ry     beta=0.70
     Davidson diagonalization with overlap
     ethr =  9.11E-03,  avg # of iterations =  3.0

     negative rho (up, down):  1.778E-04 0.000E+00

     total cpu time spent up to now is        6.4 secs

     total energy              =     -30.48074414 Ry
     Harris-Foulkes estimate   =     -33.30943904 Ry
     estimated scf accuracy    <      13.90308575 Ry

     iteration #  3     ecut=    30.00 Ry     beta=0.70
     Davidson diagonalization with overlap
     ethr =  9.11E-03,  avg # of iterations =  3.0

     negative rho (up, down):  2.349E-04 0.000E+00

     total cpu time spent up to now is        6.5 secs

     total energy              =     -31.62154083 Ry
     Harris-Foulkes estimate   =     -32.02900348 Ry
     estimated scf accuracy    <       1.82133368 Ry

     iteration #  4     ecut=    30.00 Ry     beta=0.70
     Davidson diagonalization with overlap
     ethr =  9.11E-03,  avg # of iterations =  1.0

     negative rho (up, down):  1.077E-03 0.000E+00

     total cpu time spent up to now is        6.5 secs

     total energy              =     -31.60462600 Ry
     Harris-Foulkes estimate   =     -31.72042998 Ry
     estimated scf accuracy    <       4.45893282 Ry

     iteration #  5     ecut=    30.00 Ry     beta=0.70
     Davidson diagonalization with overlap
     ethr =  9.11E-03,  avg # of iterations =  1.0

     negative rho (up, down):  7.346E-03 0.000E+00

     total cpu time spent up to now is        6.5 secs

     total energy              =     -31.52102547 Ry
     Harris-Foulkes estimate   =     -31.62874845 Ry
     estimated scf accuracy    <       1.29648856 Ry

     iteration #  6     ecut=    30.00 Ry     beta=0.70
     Davidson diagonalization with overlap
     ethr =  9.11E-03,  avg # of iterations =  1.0

     negative rho (up, down):  1.690E-02 0.000E+00

     total cpu time spent up to now is        6.6 secs

     total energy              =     -31.46724046 Ry
     Harris-Foulkes estimate   =     -31.52355310 Ry
     estimated scf accuracy    <       1.90621392 Ry

     iteration #  7     ecut=    30.00 Ry     beta=0.70
     Davidson diagonalization with overlap
     ethr =  9.11E-03,  avg # of iterations =  1.0

     negative rho (up, down):  2.423E-03 0.000E+00

     total cpu time spent up to now is        6.6 secs

     total energy              =     -31.49262083 Ry
     Harris-Foulkes estimate   =     -31.47943218 Ry
     estimated scf accuracy    <       0.14573168 Ry

     iteration #  8     ecut=    30.00 Ry     beta=0.70
     Davidson diagonalization with overlap
     ethr =  1.82E-03,  avg # of iterations =  1.0

     negative rho (up, down):  6.101E-04 0.000E+00

     total cpu time spent up to now is        6.6 secs

     total energy              =     -31.48933959 Ry
     Harris-Foulkes estimate   =     -31.49586705 Ry
     estimated scf accuracy    <       0.29140835 Ry

     iteration #  9     ecut=    30.00 Ry     beta=0.70
     Davidson diagonalization with overlap
     ethr =  1.82E-03,  avg # of iterations =  1.0

     negative rho (up, down):  4.977E-07 0.000E+00

     total cpu time spent up to now is        6.7 secs

     total energy              =     -31.49131366 Ry
     Harris-Foulkes estimate   =     -31.49224108 Ry
     estimated scf accuracy    <       0.02071547 Ry

     iteration # 10     ecut=    30.00 Ry     beta=0.70
     Davidson diagonalization with overlap
     ethr =  2.59E-04,  avg # of iterations =  3.0

     negative rho (up, down):  1.060E-04 0.000E+00

     total cpu time spent up to now is        6.7 secs

     total energy              =     -31.49182485 Ry
     Harris-Foulkes estimate   =     -31.49246118 Ry
     estimated scf accuracy    <       0.02412499 Ry

     iteration # 11     ecut=    30.00 Ry     beta=0.70
     Davidson diagonalization with overlap
     ethr =  2.59E-04,  avg # of iterations =  1.0

     negative rho (up, down):  4.025E-05 0.000E+00

     total cpu time spent up to now is        6.7 secs

     total energy              =     -31.49194729 Ry
     Harris-Foulkes estimate   =     -31.49205430 Ry
     estimated scf accuracy    <       0.00191379 Ry

     iteration # 12     ecut=    30.00 Ry     beta=0.70
     Davidson diagonalization with overlap
     ethr =  2.39E-05,  avg # of iterations = 10.0

     negative rho (up, down):  4.365E-07 0.000E+00

     total cpu time spent up to now is        6.8 secs

     total energy              =     -31.49202345 Ry
     Harris-Foulkes estimate   =     -31.49204135 Ry
     estimated scf accuracy    <       0.00132110 Ry

     iteration # 13     ecut=    30.00 Ry     beta=0.70
     Davidson diagonalization with overlap
     ethr =  1.65E-05,  avg # of iterations =  1.0

     total cpu time spent up to now is        6.8 secs

     total energy              =     -31.49201617 Ry
     Harris-Foulkes estimate   =     -31.49203385 Ry
     estimated scf accuracy    <       0.00047261 Ry

     iteration # 14     ecut=    30.00 Ry     beta=0.70
     Davidson diagonalization with overlap
     ethr =  5.91E-06,  avg # of iterations =  1.0

     total cpu time spent up to now is        6.8 secs

     total energy              =     -31.49202694 Ry
     Harris-Foulkes estimate   =     -31.49202686 Ry
     estimated scf accuracy    <       0.00001435 Ry

     iteration # 15     ecut=    30.00 Ry     beta=0.70
     Davidson diagonalization with overlap
     ethr =  1.79E-07,  avg # of iterations =  1.0

     total cpu time spent up to now is        6.9 secs

     total energy              =     -31.49202629 Ry
     Harris-Foulkes estimate   =     -31.49202696 Ry
     estimated scf accuracy    <       0.00002060 Ry

     iteration # 16     ecut=    30.00 Ry     beta=0.70
     Davidson diagonalization with overlap
     ethr =  1.79E-07,  avg # of iterations =  1.0

     total cpu time spent up to now is        6.9 secs

     total energy              =     -31.49202659 Ry
     Harris-Foulkes estimate   =     -31.49202657 Ry
     estimated scf accuracy    <       0.00000001 Ry

     iteration # 17     ecut=    30.00 Ry     beta=0.70
     Davidson diagonalization with overlap
     ethr =  1.29E-10,  avg # of iterations =  2.0

     total cpu time spent up to now is        7.1 secs

     End of self-consistent calculation

          k = 0.0000 0.0000 0.0000 ( 22119 PWs)   bands (ev):

   -23.6142  -7.0465  -7.0347  -7.0286  -6.9523  -6.8716  -0.1976   0.6449

     the Fermi energy is    -6.8947 ev

!    total energy              =     -31.49202653 Ry
     Harris-Foulkes estimate   =     -31.49202659 Ry
     estimated scf accuracy    <          3.8E-09 Ry

     convergence has been achieved in  17 iterations

     Forces acting on atoms (Ry/au):

     atom    1 type  1   force =    -0.00010541    0.00085856   -0.00014079
     atom    2 type  1   force =     0.00071295   -0.00004669   -0.00016467
     atom    3 type  2   force =    -0.00060754   -0.00081187    0.00030545

     Total force =     0.001558     Total SCF correction =     0.000292
     SCF correction compared to forces is large: reduce conv_thr to get better values

     Entering Dynamics:    iteration =     7
                           time      =   0.0339 pico-seconds


     Andersen thermostat:    3 collisions

ATOMIC_POSITIONS (bohr)
H       12.780058142   1.339026209  10.708472897
H       18.878372271   7.050384717  11.244608932
O        7.095404520   8.246322437  11.690272488


     kinetic energy (Ekin) =     0.01708942 Ry
     temperature           =   899.40116719 K 
     Ekin + Etot (const)   =   -31.47493710 Ry
     Message from routine dynamics:
     Total linear momentum <> 0

     Linear momentum :    0.1594201294   -0.0313115487    0.3185687409

     Writing output data file pwscf.save

     second order wave-functions extrapolation
     Check: negative starting charge=   -0.344629
     second order charge density extrapolation
     Check: negative starting charge=   -0.343842

     negative rho (up, down):  8.605E-02 0.000E+00

     total cpu time spent up to now is        7.4 secs

     per-process dynamical memory:    20.4 Mb

     Self-consistent Calculation

     iteration #  1     ecut=    30.00 Ry     beta=0.70
     Davidson diagonalization with overlap
     c_bands:  1 eigenvalues not converged
     ethr =  1.00E-06,  avg # of iterations = 20.0

     negative rho (up, down):  2.086E-02 0.000E+00

     total cpu time spent up to now is        7.5 secs

     total energy              =     -31.42890102 Ry
     Harris-Foulkes estimate   =     -31.42553833 Ry
     estimated scf accuracy    <       0.05457551 Ry

     iteration #  2     ecut=    30.00 Ry     beta=0.70
     Davidson diagonalization with overlap
     ethr =  6.82E-04,  avg # of iterations =  2.0

     negative rho (up, down):  1.911E-02 0.000E+00

     total cpu time spent up to now is        7.5 secs

     total energy              =     -31.48457067 Ry
     Harris-Foulkes estimate   =     -32.00251986 Ry
     estimated scf accuracy    <       4.36322891 Ry

     iteration #  3     ecut=    30.00 Ry     beta=0.70
     Davidson diagonalization with overlap
     ethr =  6.82E-04,  avg # of iterations =  2.0

     negative rho (up, down):  1.869E-02 0.000E+00

     total cpu time spent up to now is        7.6 secs

     total energy              =     -31.47547476 Ry
     Harris-Foulkes estimate   =     -31.49098929 Ry
     estimated scf accuracy    <       1.71469682 Ry

     iteration #  4     ecut=    30.00 Ry     beta=0.70
     Davidson diagonalization with overlap
     ethr =  6.82E-04,  avg # of iterations =  1.0

     negative rho (up, down):  1.258E-02 0.000E+00

     total cpu time spent up to now is        7.6 secs

     total energy              =     -31.41660712 Ry
     Harris-Foulkes estimate   =     -31.47990757 Ry
     estimated scf accuracy    <       0.59100616 Ry

     iteration #  5     ecut=    30.00 Ry     beta=0.70
     Davidson diagonalization with overlap
     ethr =  6.82E-04,  avg # of iterations =  1.0

     negative rho (up, down):  4.664E-03 0.000E+00

     total cpu time spent up to now is        7.6 secs

     total energy              =     -31.46397087 Ry
     Harris-Foulkes estimate   =     -31.57696843 Ry
     estimated scf accuracy    <       2.70988054 Ry

     iteration #  6     ecut=    30.00 Ry     beta=0.70
     Davidson diagonalization with overlap
     ethr =  6.82E-04,  avg # of iterations =  1.0

     negative rho (up, down):  1.365E-03 0.000E+00

     total cpu time spent up to now is        7.7 secs

     total energy              =     -31.49245852 Ry
     Harris-Foulkes estimate   =     -31.48912432 Ry
     estimated scf accuracy    <       0.07689128 Ry

     iteration #  7     ecut=    30.00 Ry     beta=0.70
     Davidson diagonalization with overlap
     ethr =  6.82E-04,  avg # of iterations =  1.0

     negative rho (up, down):  6.888E-04 0.000E+00

     total cpu time spent up to now is        7.7 secs

     total energy              =     -31.49256691 Ry
     Harris-Foulkes estimate   =     -31.49251477 Ry
     estimated scf accuracy    <       0.08281820 Ry

     iteration #  8     ecut=    30.00 Ry     beta=0.70
     Davidson diagonalization with overlap
     ethr =  6.82E-04,  avg # of iterations =  1.0

     negative rho (up, down):  4.059E-06 0.000E+00

     total cpu time spent up to now is        7.7 secs

     total energy              =     -31.49116482 Ry
     Harris-Foulkes estimate   =     -31.49259648 Ry
     estimated scf accuracy    <       0.05738411 Ry

     iteration #  9     ecut=    30.00 Ry     beta=0.70
     Davidson diagonalization with overlap
     ethr =  6.82E-04,  avg # of iterations =  1.0

     negative rho (up, down):  3.779E-07 0.000E+00

     total cpu time spent up to now is        7.8 secs

     total energy              =     -31.49221035 Ry
     Harris-Foulkes estimate   =     -31.49213003 Ry
     estimated scf accuracy    <       0.00563529 Ry

     iteration # 10     ecut=    30.00 Ry     beta=0.70
     Davidson diagonalization with overlap
     ethr =  7.04E-05,  avg # of iterations =  3.0

     negative rho (up, down):  1.190E-08 0.000E+00

     total cpu time spent up to now is        7.8 secs

     total energy              =     -31.49187093 Ry
     Harris-Foulkes estimate   =     -31.49224062 Ry
     estimated scf accuracy    <       0.01698163 Ry

     iteration # 11     ecut=    30.00 Ry     beta=0.70
     Davidson diagonalization with overlap
     ethr =  7.04E-05,  avg # of iterations =  1.0

     total cpu time spent up to now is        7.9 secs

     total energy              =     -31.49208972 Ry
     Harris-Foulkes estimate   =     -31.49208104 Ry
     estimated scf accuracy    <       0.00030541 Ry

     iteration # 12     ecut=    30.00 Ry     beta=0.70
     Davidson diagonalization with overlap
     ethr =  3.82E-06,  avg # of iterations = 17.0

     total cpu time spent up to now is        7.9 secs

     total energy              =     -31.49206211 Ry
     Harris-Foulkes estimate   =     -31.49209549 Ry
     estimated scf accuracy    <       0.00174184 Ry

     iteration # 13     ecut=    30.00 Ry     beta=0.70
     Davidson diagonalization with overlap
     ethr =  3.82E-06,  avg # of iterations =  1.0

     total cpu time spent up to now is        7.9 secs

     total energy              =     -31.49207867 Ry
     Harris-Foulkes estimate   =     -31.49207858 Ry
     estimated scf accuracy    <       0.00000026 Ry

     iteration # 14     ecut=    30.00 Ry     beta=0.70
     Davidson diagonalization with overlap
     ethr =  3.19E-09,  avg # of iterations =  1.0

     total cpu time spent up to now is        8.0 secs

     total energy              =     -31.49207862 Ry
     Harris-Foulkes estimate   =     -31.49207874 Ry
     estimated scf accuracy    <       0.00000422 Ry

     iteration # 15     ecut=    30.00 Ry     beta=0.70
     Davidson diagonalization with overlap
     ethr =  3.19E-09,  avg # of iterations =  1.0

     total cpu time spent up to now is        8.0 secs

     End of self-consistent calculation

          k = 0.0000 0.0000 0.0000 ( 22119 PWs)   bands (ev):

   -23.6166  -7.0482  -7.0382  -7.0306  -6.9578  -6.8698  -0.1967   0.6512

     the Fermi energy is    -6.8970 ev

!    total energy              =     -31.49207867 Ry
     Harris-Foulkes estimate   =     -31.49207866 Ry
     estimated scf accuracy    <          8.4E-10 Ry

     convergence has been achieved in  15 iterations

     Forces acting on atoms (Ry/au):

     atom    1 type  1   force =     0.00009005    0.00108062   -0.00004649
     atom    2 type  1   force =     0.00069182    0.00011197   -0.00005596
     atom    3 type  2   force =    -0.00078187   -0.00119258    0.00010245

     Total force =     0.001928     Total SCF correction =     0.000056

     Entering Dynamics:    iteration =     8
                           time      =   0.0387 pico-seconds


     Andersen thermostat:    3 collisions

ATOMIC_POSITIONS (bohr)
H       12.941530093   1.125087348  10.454553365
H       18.765646339   7.234414825  10.799425730
O        7.092327428   8.248210427  11.734403348


     kinetic energy (Ekin) =     0.02215162 Ry
     temperature           =  1165.81973838 K 
     Ekin + Etot (const)   =   -31.46992705 Ry
     Message from routine dynamics:
     Total linear momentum <> 0

     Linear momentum :    0.2597879121   -0.3234138334   -0.2818626839

     Writing output data file pwscf.save

     second order wave-functions extrapolation
     Check: negative starting charge=   -0.343842
     second order charge density extrapolation
     Check: negative starting charge=   -0.345118

     negative rho (up, down):  1.915E-02 0.000E+00

     total cpu time spent up to now is        8.3 secs

     per-process dynamical memory:    20.4 Mb

     Self-consistent Calculation

     iteration #  1     ecut=    30.00 Ry     beta=0.70
     Davidson diagonalization with overlap
     c_bands:  1 eigenvalues not converged
     ethr =  1.00E-06,  avg # of iterations = 20.0

     negative rho (up, down):  4.142E-03 0.000E+00

     total cpu time spent up to now is        8.4 secs

     total energy              =     -31.48216821 Ry
     Harris-Foulkes estimate   =     -31.47195456 Ry
     estimated scf accuracy    <       0.00760039 Ry

     iteration #  2     ecut=    30.00 Ry     beta=0.70
     Davidson diagonalization with overlap
     ethr =  9.50E-05,  avg # of iterations =  3.0

     negative rho (up, down):  3.986E-03 0.000E+00

     total cpu time spent up to now is        8.4 secs

     total energy              =     -31.46601910 Ry
     Harris-Foulkes estimate   =     -31.65720187 Ry
     estimated scf accuracy    <       3.82046792 Ry

     iteration #  3     ecut=    30.00 Ry     beta=0.70
     Davidson diagonalization with overlap
     ethr =  9.50E-05,  avg # of iterations =  2.0

     negative rho (up, down):  3.876E-03 0.000E+00

     total cpu time spent up to now is        8.5 secs

     total energy              =     -31.48126758 Ry
     Harris-Foulkes estimate   =     -31.49918557 Ry
     estimated scf accuracy    <       0.53562243 Ry

     iteration #  4     ecut=    30.00 Ry     beta=0.70
     Davidson diagonalization with overlap
     ethr =  9.50E-05,  avg # of iterations =  1.0

     negative rho (up, down):  5.102E-04 0.000E+00

     total cpu time spent up to now is        8.5 secs

     total energy              =     -31.48982640 Ry
     Harris-Foulkes estimate   =     -31.48906777 Ry
     estimated scf accuracy    <       0.03874620 Ry

     iteration #  5     ecut=    30.00 Ry     beta=0.70
     Davidson diagonalization with overlap
     ethr =  9.50E-05,  avg # of iterations =  9.0

     negative rho (up, down):  3.164E-06 0.000E+00

     total cpu time spent up to now is        8.5 secs

     total energy              =     -31.49076615 Ry
     Harris-Foulkes estimate   =     -31.49347943 Ry
     estimated scf accuracy    <       0.15118897 Ry

     iteration #  6     ecut=    30.00 Ry     beta=0.70
     Davidson diagonalization with overlap
     ethr =  9.50E-05,  avg # of iterations =  1.0

     total cpu time spent up to now is        8.6 secs

     total energy              =     -31.49174272 Ry
     Harris-Foulkes estimate   =     -31.49186388 Ry
     estimated scf accuracy    <       0.00419927 Ry

     iteration #  7     ecut=    30.00 Ry     beta=0.70
     Davidson diagonalization with overlap
     ethr =  5.25E-05,  avg # of iterations =  1.0

     total cpu time spent up to now is        8.6 secs

     total energy              =     -31.49181708 Ry
     Harris-Foulkes estimate   =     -31.49182773 Ry
     estimated scf accuracy    <       0.00068113 Ry

     iteration #  8     ecut=    30.00 Ry     beta=0.70
     Davidson diagonalization with overlap
     ethr =  8.51E-06,  avg # of iterations = 10.0

     total cpu time spent up to now is        8.6 secs

     total energy              =     -31.49182090 Ry
     Harris-Foulkes estimate   =     -31.49182136 Ry
     estimated scf accuracy    <       0.00003405 Ry

     iteration #  9     ecut=    30.00 Ry     beta=0.70
     Davidson diagonalization with overlap
     ethr =  4.26E-07,  avg # of iterations =  1.0

     total cpu time spent up to now is        8.7 secs

     total energy              =     -31.49182004 Ry
     Harris-Foulkes estimate   =     -31.49182098 Ry
     estimated scf accuracy    <       0.00000986 Ry

     iteration # 10     ecut=    30.00 Ry     beta=0.70
     Davidson diagonalization with overlap
     ethr =  1.23E-07,  avg # of iterations =  1.0

     total cpu time spent up to now is        8.7 secs

     total energy              =     -31.49182012 Ry
     Harris-Foulkes estimate   =     -31.49182087 Ry
     estimated scf accuracy    <       0.00003369 Ry

     iteration # 11     ecut=    30.00 Ry     beta=0.70
     Davidson diagonalization with overlap
     ethr =  1.23E-07,  avg # of iterations =  1.0

     total cpu time spent up to now is        8.8 secs

     total energy              =     -31.49182030 Ry
     Harris-Foulkes estimate   =     -31.49182048 Ry
     estimated scf accuracy    <       0.00000003 Ry

     iteration # 12     ecut=    30.00 Ry     beta=0.70
     Davidson diagonalization with overlap
     ethr =  3.35E-10,  avg # of iterations =  2.0

     total cpu time spent up to now is        8.8 secs

     total energy              =     -31.49182028 Ry
     Harris-Foulkes estimate   =     -31.49182030 Ry
     estimated scf accuracy    <       0.00000008 Ry

     iteration # 13     ecut=    30.00 Ry     beta=0.70
     Davidson diagonalization with overlap
     ethr =  3.35E-10,  avg # of iterations =  1.0

     total cpu time spent up to now is        8.8 secs

     End of self-consistent calculation

          k = 0.0000 0.0000 0.0000 ( 22119 PWs)   bands (ev):

   -23.6161  -7.0452  -7.0346  -7.0301  -6.9567  -6.8747  -0.2006   0.6455

     the Fermi energy is    -6.8962 ev

!    total energy              =     -31.49182021 Ry
     Harris-Foulkes estimate   =     -31.49182028 Ry
     estimated scf accuracy    <          5.0E-09 Ry

     convergence has been achieved in  13 iterations

     Forces acting on atoms (Ry/au):

     atom    1 type  1   force =     0.00013577    0.00089846   -0.00021330
     atom    2 type  1   force =     0.00050135   -0.00001594   -0.00022546
     atom    3 type  2   force =    -0.00063711   -0.00088252    0.00043876

     Total force =     0.001597     Total SCF correction =     0.000027

     Entering Dynamics:    iteration =     9
                           time      =   0.0435 pico-seconds


     Andersen thermostat:    3 collisions

ATOMIC_POSITIONS (bohr)
H       13.460030910   0.928683239   9.910194267
H       18.736961627   7.425722908  10.619214806
O        7.061407786   8.248532113  11.780141831


     kinetic energy (Ekin) =     0.03348235 Ry
     temperature           =  1762.14607735 K 
     Ekin + Etot (const)   =   -31.45833787 Ry
     Message from routine dynamics:
     Total linear momentum <> 0

     Linear momentum :   -0.1013634013   -0.0969617971   -0.0630988968

     Writing output data file pwscf.save

     second order wave-functions extrapolation
     Check: negative starting charge=   -0.345118
     second order charge density extrapolation
     Check: negative starting charge=   -0.346552

     negative rho (up, down):  7.368E-02 0.000E+00

[...]
     Harris-Foulkes estimate   =   -1256.54344891 Ry
     estimated scf accuracy    <      22.37893551 Ry

     iteration # 59     ecut=    30.00 Ry     beta=0.70
     Davidson diagonalization with overlap
     ethr =  1.00E-02,  avg # of iterations =  8.0

     negative rho (up, down):  3.603E-01 0.000E+00

     total cpu time spent up to now is       16.5 secs

     total energy              =    -492.95502452 Ry
     Harris-Foulkes estimate   =  -45668.68435274 Ry
     estimated scf accuracy    <      28.38778559 Ry

     iteration # 60     ecut=    30.00 Ry     beta=0.70
     Davidson diagonalization with overlap
     ethr =  1.00E-02,  avg # of iterations = 12.0

     negative rho (up, down):  3.620E-01 0.000E+00

     total cpu time spent up to now is       16.6 secs

     total energy              =      20.96789927 Ry
     Harris-Foulkes estimate   =   -9532.75204773 Ry
     estimated scf accuracy    <      17.70630376 Ry

     iteration # 61     ecut=    30.00 Ry     beta=0.70
     Davidson diagonalization with overlap
     ethr =  1.00E-02,  avg # of iterations =  5.0

     negative rho (up, down):  3.594E-01 0.000E+00

     total cpu time spent up to now is       16.6 secs

     total energy              =     -37.17789521 Ry
     Harris-Foulkes estimate   =    -600.75674090 Ry
     estimated scf accuracy    <      13.52845637 Ry

     iteration # 62     ecut=    30.00 Ry     beta=0.70
     Davidson diagonalization with overlap
     ethr =  1.00E-02,  avg # of iterations =  5.0

     negative rho (up, down):  6.050E-02 0.000E+00

     total cpu time spent up to now is       16.7 secs

     total energy              =     145.58009474 Ry
     Harris-Foulkes estimate   =   -1867.32602811 Ry
     estimated scf accuracy    <      22.00869972 Ry

     iteration # 63     ecut=    30.00 Ry     beta=0.70
     Davidson diagonalization with overlap
     ethr =  1.00E-02,  avg # of iterations =  7.0

     negative rho (up, down):  1.406E-01 0.000E+00

     total cpu time spent up to now is       16.7 secs

     total energy              =      52.61234162 Ry
     Harris-Foulkes estimate   =    -754.61886162 Ry
     estimated scf accuracy    <      32.28627459 Ry

     iteration # 64     ecut=    30.00 Ry     beta=0.70
     Davidson diagonalization with overlap
     ethr =  1.00E-02,  avg # of iterations =  7.0

     negative rho (up, down):  1.055E-01 0.000E+00

     total cpu time spent up to now is       16.8 secs

     total energy              =      36.79360478 Ry
     Harris-Foulkes estimate   =    -310.65913740 Ry
     estimated scf accuracy    <      16.87368646 Ry

     iteration # 65     ecut=    30.00 Ry     beta=0.70
     Davidson diagonalization with overlap
     ethr =  1.00E-02,  avg # of iterations =  7.0

     negative rho (up, down):  3.883E-02 0.000E+00

     total cpu time spent up to now is       16.8 secs

     total energy              =    -643.53690650 Ry
     Harris-Foulkes estimate   =    -111.18105233 Ry
     estimated scf accuracy    <      27.48409766 Ry

     iteration # 66     ecut=    30.00 Ry     beta=0.70
     Davidson diagonalization with overlap
     ethr =  1.00E-02,  avg # of iterations =  7.0

     negative rho (up, down):  4.658E-02 0.000E+00

     total cpu time spent up to now is       16.9 secs

     total energy              =    -129.62415805 Ry
     Harris-Foulkes estimate   =   -1900.13189427 Ry
     estimated scf accuracy    <      29.79100818 Ry

     iteration # 67     ecut=    30.00 Ry     beta=0.70
     Davidson diagonalization with overlap
     ethr =  1.00E-02,  avg # of iterations =  4.0

     negative rho (up, down):  1.422E-01 0.000E+00

     total cpu time spent up to now is       16.9 secs

     total energy              =      28.51966177 Ry
     Harris-Foulkes estimate   =   -5918.42746171 Ry
     estimated scf accuracy    <      17.70330499 Ry

     iteration # 68     ecut=    30.00 Ry     beta=0.70
     Davidson diagonalization with overlap
     ethr =  1.00E-02,  avg # of iterations =  6.0

     negative rho (up, down):  4.826E-02 0.000E+00

     total cpu time spent up to now is       17.0 secs

     total energy              =     123.31909753 Ry
     Harris-Foulkes estimate   =   -1092.13772380 Ry
     estimated scf accuracy    <      24.88476337 Ry

     iteration # 69     ecut=    30.00 Ry     beta=0.70
     Davidson diagonalization with overlap
     ethr =  1.00E-02,  avg # of iterations =  6.0

     negative rho (up, down):  1.450E-01 0.000E+00

     total cpu time spent up to now is       17.0 secs

     total energy              =     -10.25230195 Ry
     Harris-Foulkes estimate   =    -312.79781954 Ry
     estimated scf accuracy    <      19.88408725 Ry

     iteration # 70     ecut=    30.00 Ry     beta=0.70
     Davidson diagonalization with overlap
     ethr =  1.00E-02,  avg # of iterations =  6.0

     negative rho (up, down):  2.113E-01 0.000E+00

     total cpu time spent up to now is       17.1 secs

     total energy              =      44.17481419 Ry
     Harris-Foulkes estimate   =   -6874.48699705 Ry
     estimated scf accuracy    <      28.15680511 Ry

     iteration # 71     ecut=    30.00 Ry     beta=0.70
     Davidson diagonalization with overlap
     ethr =  1.00E-02,  avg # of iterations =  7.0

     negative rho (up, down):  3.206E-01 0.000E+00

     total cpu time spent up to now is       17.1 secs

     total energy              =     106.11409644 Ry
     Harris-Foulkes estimate   =   -1567.38760612 Ry
     estimated scf accuracy    <      37.74789096 Ry

     iteration # 72     ecut=    30.00 Ry     beta=0.70
     Davidson diagonalization with overlap
     ethr =  1.00E-02,  avg # of iterations = 10.0

     negative rho (up, down):  2.358E-01 0.000E+00

     total cpu time spent up to now is       17.2 secs

     total energy              =     -16.44021589 Ry
     Harris-Foulkes estimate   =    -553.76409736 Ry
     estimated scf accuracy    <      24.49983283 Ry

     iteration # 73     ecut=    30.00 Ry     beta=0.70
     Davidson diagonalization with overlap
     ethr =  1.00E-02,  avg # of iterations =  6.0

     negative rho (up, down):  3.127E-01 0.000E+00

     total cpu time spent up to now is       17.2 secs

     total energy              =    -168.01082006 Ry
     Harris-Foulkes estimate   =   -3045.11538275 Ry
     estimated scf accuracy    <      29.83691042 Ry

     iteration # 74     ecut=    30.00 Ry     beta=0.70
     Davidson diagonalization with overlap
     ethr =  1.00E-02,  avg # of iterations =  8.0

     negative rho (up, down):  5.041E-01 0.000E+00

     total cpu time spent up to now is       17.3 secs

     total energy              =       7.96734581 Ry
     Harris-Foulkes estimate   =    -698.63521600 Ry
     estimated scf accuracy    <      40.99160772 Ry

     iteration # 75     ecut=    30.00 Ry     beta=0.70
     Davidson diagonalization with overlap
     ethr =  1.00E-02,  avg # of iterations =  8.0

     negative rho (up, down):  7.889E-01 0.000E+00

     total cpu time spent up to now is       17.3 secs

     total energy              =     -80.16589740 Ry
     Harris-Foulkes estimate   =   -5974.80059764 Ry
     estimated scf accuracy    <      31.10529335 Ry

     iteration # 76     ecut=    30.00 Ry     beta=0.70
     Davidson diagonalization with overlap
     ethr =  1.00E-02,  avg # of iterations =  7.0

     negative rho (up, down):  9.632E-01 0.000E+00

     total cpu time spent up to now is       17.4 secs

     total energy              =   -3252.22393464 Ry
     Harris-Foulkes estimate   =   -2169.87110628 Ry
     estimated scf accuracy    <      32.45402795 Ry

     iteration # 77     ecut=    30.00 Ry     beta=0.70
     Davidson diagonalization with overlap
     ethr =  1.00E-02,  avg # of iterations =  8.0

     negative rho (up, down):  1.167E+00 0.000E+00

     total cpu time spent up to now is       17.4 secs

     total energy              =      76.76082561 Ry
     Harris-Foulkes estimate   =  -35890.66930131 Ry
     estimated scf accuracy    <      33.10516445 Ry

     iteration # 78     ecut=    30.00 Ry     beta=0.70
     Davidson diagonalization with overlap
     ethr =  1.00E-02,  avg # of iterations = 11.0

     negative rho (up, down):  6.282E-01 0.000E+00

     total cpu time spent up to now is       17.5 secs

     total energy              =    9386.01199117 Ry
     Harris-Foulkes estimate   =    -603.97552252 Ry
     estimated scf accuracy    <      26.42052333 Ry

     iteration # 79     ecut=    30.00 Ry     beta=0.70
     Davidson diagonalization with overlap
     ethr =  1.00E-02,  avg # of iterations = 10.0

     negative rho (up, down):  1.119E+00 0.000E+00

     total cpu time spent up to now is       17.6 secs

     total energy              =   -7821.28919662 Ry
     Harris-Foulkes estimate   =   -1618.75549647 Ry
     estimated scf accuracy    <      20.53186587 Ry

     iteration # 80     ecut=    30.00 Ry     beta=0.70
     Davidson diagonalization with overlap
     ethr =  1.00E-02,  avg # of iterations =  7.0

     negative rho (up, down):  5.435E-01 0.000E+00

     total cpu time spent up to now is       17.7 secs

     total energy              =   -2107.83141850 Ry
     Harris-Foulkes estimate   =  -30251.47933672 Ry
     estimated scf accuracy    <      22.65530202 Ry

     iteration # 81     ecut=    30.00 Ry     beta=0.70
     Davidson diagonalization with overlap
     ethr =  1.00E-02,  avg # of iterations =  5.0

     negative rho (up, down):  3.962E-01 0.000E+00

     total cpu time spent up to now is       17.7 secs

     total energy              =     183.47650359 Ry
     Harris-Foulkes estimate   =   -6972.86937279 Ry
     estimated scf accuracy    <      21.38527883 Ry

     iteration # 82     ecut=    30.00 Ry     beta=0.70
     Davidson diagonalization with overlap
     ethr =  1.00E-02,  avg # of iterations =  7.0

     negative rho (up, down):  4.408E-01 0.000E+00

     total cpu time spent up to now is       17.8 secs

     total energy              =      50.97848250 Ry
     Harris-Foulkes estimate   =    -648.42967797 Ry
     estimated scf accuracy    <      30.34763975 Ry

     iteration # 83     ecut=    30.00 Ry     beta=0.70
     Davidson diagonalization with overlap
     ethr =  1.00E-02,  avg # of iterations =  7.0

     negative rho (up, down):  1.379E-01 0.000E+00

     total cpu time spent up to now is       17.9 secs

     total energy              =     136.74215313 Ry
     Harris-Foulkes estimate   =   -1377.89460108 Ry
     estimated scf accuracy    <      24.65847619 Ry

     iteration # 84     ecut=    30.00 Ry     beta=0.70
     Davidson diagonalization with overlap
     ethr =  1.00E-02,  avg # of iterations =  8.0

     negative rho (up, down):  1.673E-01 0.000E+00

     total cpu time spent up to now is       18.0 secs

     total energy              =      71.21565354 Ry
     Harris-Foulkes estimate   =    -842.82449139 Ry
     estimated scf accuracy    <      22.78967222 Ry

     iteration # 85     ecut=    30.00 Ry     beta=0.70
     Davidson diagonalization with overlap
     ethr =  1.00E-02,  avg # of iterations =  5.0

     negative rho (up, down):  1.116E-01 0.000E+00

     total cpu time spent up to now is       18.1 secs

     total energy              =    -495.57552655 Ry
     Harris-Foulkes estimate   =   -2987.09480541 Ry
     estimated scf accuracy    <      21.88302790 Ry

     iteration # 86     ecut=    30.00 Ry     beta=0.70
     Davidson diagonalization with overlap
     ethr =  1.00E-02,  avg # of iterations =  6.0

     negative rho (up, down):  7.919E-02 0.000E+00

     total cpu time spent up to now is       18.2 secs

     total energy              =      66.56956906 Ry
     Harris-Foulkes estimate   =   -1501.37770038 Ry
     estimated scf accuracy    <      12.27003086 Ry

     iteration # 87     ecut=    30.00 Ry     beta=0.70
     Davidson diagonalization with overlap
     ethr =  1.00E-02,  avg # of iterations =  6.0

     negative rho (up, down):  3.303E-02 0.000E+00

     total cpu time spent up to now is       18.2 secs

     total energy              =     -25.32553770 Ry
     Harris-Foulkes estimate   =     -79.39611534 Ry
     estimated scf accuracy    <      29.14210249 Ry

     iteration # 88     ecut=    30.00 Ry     beta=0.70
     Davidson diagonalization with overlap
     ethr =  1.00E-02,  avg # of iterations =  4.0

     negative rho (up, down):  1.487E-02 0.000E+00

     total cpu time spent up to now is       18.3 secs

     total energy              =     -72.44277172 Ry
     Harris-Foulkes estimate   =     -70.98925850 Ry
     estimated scf accuracy    <      53.19763545 Ry

     iteration # 89     ecut=    30.00 Ry     beta=0.70
     Davidson diagonalization with overlap
     ethr =  1.00E-02,  avg # of iterations =  1.0

     negative rho (up, down):  9.264E-02 0.000E+00

     total cpu time spent up to now is       18.4 secs

     total energy              =    -135.42653399 Ry
     Harris-Foulkes estimate   =     -72.44403692 Ry
     estimated scf accuracy    <      54.83957106 Ry

     iteration # 90     ecut=    30.00 Ry     beta=0.70
     Davidson diagonalization with overlap
     ethr =  1.00E-02,  avg # of iterations =  9.0

     negative rho (up, down):  1.239E-02 0.000E+00

     total cpu time spent up to now is       18.5 secs

     total energy              =      76.23543699 Ry
     Harris-Foulkes estimate   =   -1390.52450486 Ry
     estimated scf accuracy    <      31.10187342 Ry

     iteration # 91     ecut=    30.00 Ry     beta=0.70
     Davidson diagonalization with overlap
     ethr =  1.00E-02,  avg # of iterations =  8.0

     negative rho (up, down):  2.998E-02 0.000E+00

     total cpu time spent up to now is       18.6 secs

     total energy              =     -33.02050859 Ry
     Harris-Foulkes estimate   =    -115.20192470 Ry
     estimated scf accuracy    <      39.86988524 Ry

     iteration # 92     ecut=    30.00 Ry     beta=0.70
     Davidson diagonalization with overlap
     ethr =  1.00E-02,  avg # of iterations =  5.0

     negative rho (up, down):  1.717E-01 0.000E+00

     total cpu time spent up to now is       18.6 secs

     total energy              =     -72.05454321 Ry
     Harris-Foulkes estimate   =    -126.96641392 Ry
     estimated scf accuracy    <      64.77852064 Ry

     iteration # 93     ecut=    30.00 Ry     beta=0.70
     Davidson diagonalization with overlap
     ethr =  1.00E-02,  avg # of iterations =  5.0

     negative rho (up, down):  2.783E-01 0.000E+00

     total cpu time spent up to now is       18.7 secs

     total energy              =     -88.63259570 Ry
     Harris-Foulkes estimate   =    -245.97654143 Ry
     estimated scf accuracy    <      69.21720451 Ry

     iteration # 94     ecut=    30.00 Ry     beta=0.70
     Davidson diagonalization with overlap
     ethr =  1.00E-02,  avg # of iterations =  9.0

     negative rho (up, down):  2.832E-01 0.000E+00

     total cpu time spent up to now is       18.8 secs

     total energy              =      36.73841744 Ry
     Harris-Foulkes estimate   =    -401.71025446 Ry
     estimated scf accuracy    <      70.58136215 Ry

     iteration # 95     ecut=    30.00 Ry     beta=0.70
     Davidson diagonalization with overlap
     ethr =  1.00E-02,  avg # of iterations =  9.0

     negative rho (up, down):  1.262E+00 0.000E+00

     total cpu time spent up to now is       18.8 secs

     total energy              =     -54.66756122 Ry
     Harris-Foulkes estimate   =   -1415.15825740 Ry
     estimated scf accuracy    <      64.28815947 Ry

     iteration # 96     ecut=    30.00 Ry     beta=0.70
     Davidson diagonalization with overlap
     ethr =  1.00E-02,  avg # of iterations =  7.0

     negative rho (up, down):  9.240E-01 0.000E+00

     total cpu time spent up to now is       18.9 secs

     total energy              =    2356.86080599 Ry
     Harris-Foulkes estimate   =   -1358.72938585 Ry
     estimated scf accuracy    <      26.72780924 Ry

     iteration # 97     ecut=    30.00 Ry     beta=0.70
     Davidson diagonalization with overlap
     ethr =  1.00E-02,  avg # of iterations =  9.0

     negative rho (up, down):  1.542E+00 0.000E+00

     total cpu time spent up to now is       18.9 secs

     total energy              =    -124.26980124 Ry
     Harris-Foulkes estimate   =   -2640.52156783 Ry
     estimated scf accuracy    <      57.27449785 Ry

     iteration # 98     ecut=    30.00 Ry     beta=0.70
     Davidson diagonalization with overlap
     ethr =  1.00E-02,  avg # of iterations =  8.0

     negative rho (up, down):  2.028E+00 0.000E+00

     total cpu time spent up to now is       19.0 secs

     total energy              =    -468.67288383 Ry
     Harris-Foulkes estimate   =   -4717.70686125 Ry
     estimated scf accuracy    <      53.86169433 Ry

     iteration # 99     ecut=    30.00 Ry     beta=0.70
     Davidson diagonalization with overlap
     ethr =  1.00E-02,  avg # of iterations =  6.0

     negative rho (up, down):  1.883E+00 0.000E+00

     total cpu time spent up to now is       19.0 secs

     total energy              =     -19.74991964 Ry
     Harris-Foulkes estimate   =   -4783.90250867 Ry
     estimated scf accuracy    <      56.69723268 Ry

     iteration #100     ecut=    30.00 Ry     beta=0.70
     Davidson diagonalization with overlap
     ethr =  1.00E-02,  avg # of iterations =  9.0

     negative rho (up, down):  1.417E+00 0.000E+00

     total cpu time spent up to now is       19.1 secs

     total energy              =     -44.94680257 Ry
     Harris-Foulkes estimate   =   -7312.96625377 Ry
     estimated scf accuracy    <      52.50229559 Ry

     End of self-consistent calculation

     convergence NOT achieved after 100 iterations: stopping

     Writing output data file pwscf.save
 
     init_run     :      0.09s CPU      0.11s WALL (       1 calls)
     electrons    :     12.37s CPU     15.94s WALL (      12 calls)
     update_pot   :      1.40s CPU      2.03s WALL (      11 calls)
     forces       :      0.29s CPU      0.31s WALL (      11 calls)

     Called by init_run:
     wfcinit      :      0.01s CPU      0.02s WALL (       1 calls)
     potinit      :      0.02s CPU      0.03s WALL (       1 calls)

     Called by electrons:
     c_bands      :      5.65s CPU      6.22s WALL (     348 calls)
     sum_band     :      1.03s CPU      1.10s WALL (     348 calls)
     v_of_rho     :      2.79s CPU      3.00s WALL (     360 calls)
     mix_rho      :      2.37s CPU      4.17s WALL (     348 calls)

     Called by c_bands:
     init_us_2    :      0.03s CPU      0.04s WALL (     697 calls)
     cegterg      :      5.57s CPU      6.03s WALL (     348 calls)

     Called by sum_band:

     Called by *egterg:
     h_psi        :      4.55s CPU      4.95s WALL (    1598 calls)
     g_psi        :      0.04s CPU      0.04s WALL (    1249 calls)
     cdiaghg      :      0.43s CPU      0.46s WALL (    1586 calls)

     Called by h_psi:
     h_psi:pot    :      4.53s CPU      4.92s WALL (    1598 calls)
     h_psi:calbec :      0.17s CPU      0.31s WALL (    1598 calls)
     vloc_psi     :      4.33s CPU      4.60s WALL (    1598 calls)
     add_vuspsi   :      0.01s CPU      0.01s WALL (    1598 calls)

     General routines
     calbec       :      0.26s CPU      0.43s WALL (    1652 calls)
     fft          :      2.07s CPU      2.23s WALL (    3982 calls)
     fftw         :      4.58s CPU      4.87s WALL (   19716 calls)
     davcio       :      0.36s CPU      1.45s WALL (    5905 calls)
 
     Parallel routines
     fft_scatter  :      2.89s CPU      3.23s WALL (   23698 calls)
 
     PWSCF        :    14.51s CPU        19.19s WALL

 
   This run was terminated on:   0:11:42  11Feb2018            

=------------------------------------------------------------------------------=
   JOB DONE.
=------------------------------------------------------------------------------=
