
     Program PWSCF v.6.0 (svn rev. 13079) starts on 11Feb2018 at  0:11:57 

     This program is part of the open-source Quantum ESPRESSO suite
     for quantum simulation of materials; please cite
         "P. Giannozzi et al., J. Phys.:Condens. Matter 21 395502 (2009);
          URL http://www.quantum-espresso.org", 
     in publications or presentations arising from this work. More details at
     http://www.quantum-espresso.org/quote

     Parallel version (MPI), running on    28 processors
     R & G space division:  proc/nbgrp/npool/nimage =      28
     Reading input from inputs/water-1-md/144.in

     Current dimensions of program PWSCF are:
     Max number of different atomic species (ntypx) = 10
     Max number of k-points (npk) =  40000
     Max angular momentum in pseudopotentials (lmaxx) =  3

     Subspace diagonalization in iterative solution of the eigenvalue problem:
     a serial algorithm will be used

 
     Parallelization info
     --------------------
     sticks:   dense  smooth     PW     G-vecs:    dense   smooth      PW
     Min         136     136     33                 6338     6338     787
     Max         137     137     34                 6341     6341     792
     Sum        3809    3809    949               177509   177509   22119
 


     bravais-lattice index     =            1
     lattice parameter (alat)  =      20.0000  a.u.
     unit-cell volume          =    8000.0000 (a.u.)^3
     number of atoms/cell      =            3
     number of atomic types    =            2
     number of electrons       =         8.00
     number of Kohn-Sham states=            8
     kinetic-energy cutoff     =      30.0000  Ry
     charge density cutoff     =     120.0000  Ry
     convergence threshold     =      1.0E-08
     mixing beta               =       0.7000
     number of iterations used =            8  plain     mixing
     Exchange-correlation      = BLYP ( 1  3  1  3 0 0)
     nstep                     =         5000


     celldm(1)=  20.000000  celldm(2)=   0.000000  celldm(3)=   0.000000
     celldm(4)=   0.000000  celldm(5)=   0.000000  celldm(6)=   0.000000

     crystal axes: (cart. coord. in units of alat)
               a(1) = (   1.000000   0.000000   0.000000 )  
               a(2) = (   0.000000   1.000000   0.000000 )  
               a(3) = (   0.000000   0.000000   1.000000 )  

     reciprocal axes: (cart. coord. in units 2 pi/alat)
               b(1) = (  1.000000  0.000000  0.000000 )  
               b(2) = (  0.000000  1.000000  0.000000 )  
               b(3) = (  0.000000  0.000000  1.000000 )  


     PseudoPot. # 1 for  H read from file:
     ./H.blyp-hgh.UPF
     MD5 check sum: c576e69559cde411e611be972c763230
     Pseudo is Norm-conserving, Zval =  1.0
     Generated in analytical, separable form
     Using radial grid of  929 points,  0 beta functions with: 

     PseudoPot. # 2 for  O read from file:
     ./O.blyp-hgh.UPF
     MD5 check sum: d0b7156309aa9befef28faac7bc56342
     Pseudo is Norm-conserving, Zval =  6.0
     Generated in analytical, separable form
     Using radial grid of 1095 points,  1 beta functions with: 
                l(1) =   0

     atomic species   valence    mass     pseudopotential
        H              1.00     1.01000      H( 1.00)
        O              6.00    16.00000      O( 1.00)

     No symmetry found



   Cartesian axes

     site n.     atom                  positions (alat units)
         1           H   tau(   1) = (   0.0148211   0.6370887   0.4022861  )
         2           H   tau(   2) = (   0.4454563   0.8688617   0.7773743  )
         3           O   tau(   3) = (   0.2013542   0.6735459   0.0398339  )

     number of k points=     1  Marzari-Vanderbilt smearing, width (Ry)=  0.0250
                       cart. coord. in units 2pi/alat
        k(    1) = (   0.0000000   0.0000000   0.0000000), wk =   2.0000000

     Dense  grid:   177509 G-vectors     FFT dimensions: (  72,  72,  72)

     Estimated max dynamical RAM per process >       6.09Mb

     Estimated total allocated dynamical RAM >     170.64Mb

     Initial potential from superposition of free atoms
     Check: negative starting charge=   -0.342627

     starting charge    7.99998, renormalised to    8.00000

     negative rho (up, down):  3.426E-01 0.000E+00
     Starting wfc are    6 randomized atomic wfcs +    2 random wfc

     total cpu time spent up to now is        0.3 secs

     per-process dynamical memory:    18.8 Mb

     Self-consistent Calculation

     iteration #  1     ecut=    30.00 Ry     beta=0.70
     Davidson diagonalization with overlap
     ethr =  1.00E-02,  avg # of iterations =  8.0

     negative rho (up, down):  8.252E-02 0.000E+00

     total cpu time spent up to now is        0.3 secs

     total energy              =     -28.25278484 Ry
     Harris-Foulkes estimate   =     -32.05893211 Ry
     estimated scf accuracy    <       4.39951093 Ry

     iteration #  2     ecut=    30.00 Ry     beta=0.70
     Davidson diagonalization with overlap
     ethr =  1.00E-02,  avg # of iterations =  4.0

     negative rho (up, down):  6.047E-02 0.000E+00

     total cpu time spent up to now is        0.4 secs

     total energy              =     -32.54792806 Ry
     Harris-Foulkes estimate   =     -37.60352076 Ry
     estimated scf accuracy    <      12.37422961 Ry

     iteration #  3     ecut=    30.00 Ry     beta=0.70
     Davidson diagonalization with overlap
     ethr =  1.00E-02,  avg # of iterations =  4.0

     negative rho (up, down):  6.244E-02 0.000E+00

     total cpu time spent up to now is        0.4 secs

     total energy              =     -33.08675563 Ry
     Harris-Foulkes estimate   =     -32.88641563 Ry
     estimated scf accuracy    <       4.71233984 Ry

     iteration #  4     ecut=    30.00 Ry     beta=0.70
     Davidson diagonalization with overlap
     ethr =  1.00E-02,  avg # of iterations =  1.0

     negative rho (up, down):  2.416E-02 0.000E+00

     total cpu time spent up to now is        0.4 secs

     total energy              =     -30.21766466 Ry
     Harris-Foulkes estimate   =     -33.08737379 Ry
     estimated scf accuracy    <       5.01358253 Ry

     iteration #  5     ecut=    30.00 Ry     beta=0.70
     Davidson diagonalization with overlap
     ethr =  1.00E-02,  avg # of iterations =  3.0

     negative rho (up, down):  2.312E-02 0.000E+00

     total cpu time spent up to now is        0.5 secs

     total energy              =     -33.33532483 Ry
     Harris-Foulkes estimate   =     -33.35363452 Ry
     estimated scf accuracy    <      13.61032813 Ry

     iteration #  6     ecut=    30.00 Ry     beta=0.70
     Davidson diagonalization with overlap
     ethr =  1.00E-02,  avg # of iterations =  1.0

     negative rho (up, down):  3.158E-02 0.000E+00

     total cpu time spent up to now is        0.5 secs

     total energy              =     -33.30460271 Ry
     Harris-Foulkes estimate   =     -33.33894996 Ry
     estimated scf accuracy    <      13.60023321 Ry

     iteration #  7     ecut=    30.00 Ry     beta=0.70
     Davidson diagonalization with overlap
     ethr =  1.00E-02,  avg # of iterations =  1.0

     negative rho (up, down):  3.481E-02 0.000E+00

     total cpu time spent up to now is        0.5 secs

     total energy              =     -33.23363691 Ry
     Harris-Foulkes estimate   =     -33.30664433 Ry
     estimated scf accuracy    <      13.50248359 Ry

     iteration #  8     ecut=    30.00 Ry     beta=0.70
     Davidson diagonalization with overlap
     ethr =  1.00E-02,  avg # of iterations =  1.0

     negative rho (up, down):  1.048E-01 0.000E+00

     total cpu time spent up to now is        0.6 secs

     total energy              =     -32.36685537 Ry
     Harris-Foulkes estimate   =     -33.23540912 Ry
     estimated scf accuracy    <      13.04838724 Ry

     iteration #  9     ecut=    30.00 Ry     beta=0.70
     Davidson diagonalization with overlap
     ethr =  1.00E-02,  avg # of iterations =  1.0

     negative rho (up, down):  5.024E-02 0.000E+00

     total cpu time spent up to now is        0.6 secs

     total energy              =     -32.39859273 Ry
     Harris-Foulkes estimate   =     -32.60834362 Ry
     estimated scf accuracy    <       5.39459563 Ry

     iteration # 10     ecut=    30.00 Ry     beta=0.70
     Davidson diagonalization with overlap
     ethr =  1.00E-02,  avg # of iterations =  1.0

     negative rho (up, down):  9.619E-03 0.000E+00

     total cpu time spent up to now is        0.6 secs

     total energy              =     -31.94157304 Ry
     Harris-Foulkes estimate   =     -32.40253866 Ry
     estimated scf accuracy    <       5.01378456 Ry

     iteration # 11     ecut=    30.00 Ry     beta=0.70
     Davidson diagonalization with overlap
     ethr =  1.00E-02,  avg # of iterations =  1.0

     negative rho (up, down):  3.480E-02 0.000E+00

     total cpu time spent up to now is        0.7 secs

     total energy              =     -31.51255056 Ry
     Harris-Foulkes estimate   =     -31.95049662 Ry
     estimated scf accuracy    <       4.20355425 Ry

     iteration # 12     ecut=    30.00 Ry     beta=0.70
     Davidson diagonalization with overlap
     ethr =  1.00E-02,  avg # of iterations =  1.0

     negative rho (up, down):  7.301E-02 0.000E+00

     total cpu time spent up to now is        0.7 secs

     total energy              =     -30.94127030 Ry
     Harris-Foulkes estimate   =     -31.51300815 Ry
     estimated scf accuracy    <       2.98125472 Ry

     iteration # 13     ecut=    30.00 Ry     beta=0.70
     Davidson diagonalization with overlap
     ethr =  1.00E-02,  avg # of iterations =  1.0

     negative rho (up, down):  5.891E-02 0.000E+00

     total cpu time spent up to now is        0.7 secs

     total energy              =     -31.37111672 Ry
     Harris-Foulkes estimate   =     -31.97941250 Ry
     estimated scf accuracy    <       3.21650908 Ry

     iteration # 14     ecut=    30.00 Ry     beta=0.70
     Davidson diagonalization with overlap
     ethr =  1.00E-02,  avg # of iterations =  1.0

     negative rho (up, down):  6.844E-02 0.000E+00

     total cpu time spent up to now is        0.8 secs

     total energy              =     -31.59113000 Ry
     Harris-Foulkes estimate   =     -31.54584747 Ry
     estimated scf accuracy    <       4.11735801 Ry

     iteration # 15     ecut=    30.00 Ry     beta=0.70
     Davidson diagonalization with overlap
     ethr =  1.00E-02,  avg # of iterations =  1.0

     negative rho (up, down):  3.711E-07 0.000E+00

     total cpu time spent up to now is        0.8 secs

     total energy              =     -31.61809532 Ry
     Harris-Foulkes estimate   =     -31.59354349 Ry
     estimated scf accuracy    <       4.08337106 Ry

     iteration # 16     ecut=    30.00 Ry     beta=0.70
     Davidson diagonalization with overlap
     ethr =  1.00E-02,  avg # of iterations =  1.0

     total cpu time spent up to now is        0.8 secs

     total energy              =     -31.54509868 Ry
     Harris-Foulkes estimate   =     -31.61808785 Ry
     estimated scf accuracy    <       3.80617942 Ry

     iteration # 17     ecut=    30.00 Ry     beta=0.70
     Davidson diagonalization with overlap
     ethr =  1.00E-02,  avg # of iterations =  1.0

     negative rho (up, down):  5.329E-04 0.000E+00

     total cpu time spent up to now is        0.9 secs

     total energy              =     -31.49626679 Ry
     Harris-Foulkes estimate   =     -31.54046162 Ry
     estimated scf accuracy    <       3.90438512 Ry

     iteration # 18     ecut=    30.00 Ry     beta=0.70
     Davidson diagonalization with overlap
     ethr =  1.00E-02,  avg # of iterations =  1.0

     negative rho (up, down):  4.963E-04 0.000E+00

     total cpu time spent up to now is        0.9 secs

     total energy              =     -31.61639559 Ry
     Harris-Foulkes estimate   =     -31.50497562 Ry
     estimated scf accuracy    <       1.22385528 Ry

     iteration # 19     ecut=    30.00 Ry     beta=0.70
     Davidson diagonalization with overlap
     ethr =  1.00E-02,  avg # of iterations =  1.0

     negative rho (up, down):  2.348E-03 0.000E+00

     total cpu time spent up to now is        0.9 secs

     total energy              =     -31.63074554 Ry
     Harris-Foulkes estimate   =     -31.69180327 Ry
     estimated scf accuracy    <       3.71352904 Ry

     iteration # 20     ecut=    30.00 Ry     beta=0.70
     Davidson diagonalization with overlap
     ethr =  1.00E-02,  avg # of iterations =  1.0

     negative rho (up, down):  1.554E-03 0.000E+00

     total cpu time spent up to now is        1.0 secs

     total energy              =     -31.26372343 Ry
     Harris-Foulkes estimate   =     -31.63071402 Ry
     estimated scf accuracy    <       3.72097889 Ry

     iteration # 21     ecut=    30.00 Ry     beta=0.70
     Davidson diagonalization with overlap
     ethr =  1.00E-02,  avg # of iterations =  1.0

     negative rho (up, down):  2.714E-04 0.000E+00

     total cpu time spent up to now is        1.0 secs

     total energy              =     -31.52226289 Ry
     Harris-Foulkes estimate   =     -31.63344576 Ry
     estimated scf accuracy    <       2.67067284 Ry

     iteration # 22     ecut=    30.00 Ry     beta=0.70
     Davidson diagonalization with overlap
     ethr =  1.00E-02,  avg # of iterations =  1.0

     negative rho (up, down):  1.140E-03 0.000E+00

     total cpu time spent up to now is        1.0 secs

     total energy              =     -31.46648906 Ry
     Harris-Foulkes estimate   =     -31.52493219 Ry
     estimated scf accuracy    <       1.92083184 Ry

     iteration # 23     ecut=    30.00 Ry     beta=0.70
     Davidson diagonalization with overlap
     ethr =  1.00E-02,  avg # of iterations =  1.0

     negative rho (up, down):  7.246E-05 0.000E+00

     total cpu time spent up to now is        1.1 secs

     total energy              =     -31.49503725 Ry
     Harris-Foulkes estimate   =     -31.49330632 Ry
     estimated scf accuracy    <       0.02768056 Ry

     iteration # 24     ecut=    30.00 Ry     beta=0.70
     Davidson diagonalization with overlap
     ethr =  3.46E-04,  avg # of iterations =  1.0

     negative rho (up, down):  1.045E-03 0.000E+00

     total cpu time spent up to now is        1.1 secs

     total energy              =     -31.50188950 Ry
     Harris-Foulkes estimate   =     -31.49838920 Ry
     estimated scf accuracy    <       0.55910981 Ry

     iteration # 25     ecut=    30.00 Ry     beta=0.70
     Davidson diagonalization with overlap
     ethr =  3.46E-04,  avg # of iterations =  1.0

     negative rho (up, down):  1.098E-03 0.000E+00

     total cpu time spent up to now is        1.1 secs

     total energy              =     -31.49273715 Ry
     Harris-Foulkes estimate   =     -31.50249802 Ry
     estimated scf accuracy    <       0.98662147 Ry

     iteration # 26     ecut=    30.00 Ry     beta=0.70
     Davidson diagonalization with overlap
     ethr =  3.46E-04,  avg # of iterations =  1.0

     negative rho (up, down):  1.639E-03 0.000E+00

     total cpu time spent up to now is        1.2 secs

     total energy              =     -31.46673994 Ry
     Harris-Foulkes estimate   =     -31.49519874 Ry
     estimated scf accuracy    <       0.23694394 Ry

     iteration # 27     ecut=    30.00 Ry     beta=0.70
     Davidson diagonalization with overlap
     ethr =  3.46E-04,  avg # of iterations =  1.0

     negative rho (up, down):  6.946E-04 0.000E+00

     total cpu time spent up to now is        1.2 secs

     total energy              =     -31.50486481 Ry
     Harris-Foulkes estimate   =     -31.54239068 Ry
     estimated scf accuracy    <       2.33492568 Ry

     iteration # 28     ecut=    30.00 Ry     beta=0.70
     Davidson diagonalization with overlap
     ethr =  3.46E-04,  avg # of iterations =  1.0

     negative rho (up, down):  6.223E-04 0.000E+00

     total cpu time spent up to now is        1.2 secs

     total energy              =     -31.51456381 Ry
     Harris-Foulkes estimate   =     -31.50880556 Ry
     estimated scf accuracy    <       1.21580881 Ry

     iteration # 29     ecut=    30.00 Ry     beta=0.70
     Davidson diagonalization with overlap
     ethr =  3.46E-04,  avg # of iterations =  1.0

     negative rho (up, down):  4.320E-04 0.000E+00

     total cpu time spent up to now is        1.2 secs

     total energy              =     -31.51012593 Ry
     Harris-Foulkes estimate   =     -31.51494244 Ry
     estimated scf accuracy    <       1.54280836 Ry

     iteration # 30     ecut=    30.00 Ry     beta=0.70
     Davidson diagonalization with overlap
     ethr =  3.46E-04,  avg # of iterations =  1.0

     negative rho (up, down):  5.314E-05 0.000E+00

     total cpu time spent up to now is        1.3 secs

     total energy              =     -31.46705946 Ry
     Harris-Foulkes estimate   =     -31.51031161 Ry
     estimated scf accuracy    <       1.30477786 Ry

     iteration # 31     ecut=    30.00 Ry     beta=0.70
     Davidson diagonalization with overlap
     ethr =  3.46E-04,  avg # of iterations =  1.0

     negative rho (up, down):  1.528E-04 0.000E+00

     total cpu time spent up to now is        1.3 secs

     total energy              =     -31.48708599 Ry
     Harris-Foulkes estimate   =     -31.49542446 Ry
     estimated scf accuracy    <       0.28032604 Ry

     iteration # 32     ecut=    30.00 Ry     beta=0.70
     Davidson diagonalization with overlap
     ethr =  3.46E-04,  avg # of iterations =  1.0

     negative rho (up, down):  1.102E-04 0.000E+00

     total cpu time spent up to now is        1.3 secs

     total energy              =     -31.49408123 Ry
     Harris-Foulkes estimate   =     -31.49347196 Ry
     estimated scf accuracy    <       0.07479908 Ry

     iteration # 33     ecut=    30.00 Ry     beta=0.70
     Davidson diagonalization with overlap
     ethr =  3.46E-04,  avg # of iterations =  1.0

     negative rho (up, down):  2.566E-06 0.000E+00

     total cpu time spent up to now is        1.4 secs

     total energy              =     -31.49105444 Ry
     Harris-Foulkes estimate   =     -31.49420172 Ry
     estimated scf accuracy    <       0.14298535 Ry

     iteration # 34     ecut=    30.00 Ry     beta=0.70
     Davidson diagonalization with overlap
     ethr =  3.46E-04,  avg # of iterations =  1.0

     negative rho (up, down):  1.016E-06 0.000E+00

     total cpu time spent up to now is        1.4 secs

     total energy              =     -31.49266749 Ry
     Harris-Foulkes estimate   =     -31.49270694 Ry
     estimated scf accuracy    <       0.00082076 Ry

     iteration # 35     ecut=    30.00 Ry     beta=0.70
     Davidson diagonalization with overlap
     ethr =  1.03E-05,  avg # of iterations =  6.0

     negative rho (up, down):  2.033E-08 0.000E+00

     total cpu time spent up to now is        1.5 secs

     total energy              =     -31.49269333 Ry
     Harris-Foulkes estimate   =     -31.49271757 Ry
     estimated scf accuracy    <       0.00181456 Ry

     iteration # 36     ecut=    30.00 Ry     beta=0.70
     Davidson diagonalization with overlap
     ethr =  1.03E-05,  avg # of iterations =  1.0

     total cpu time spent up to now is        1.5 secs

     total energy              =     -31.49269852 Ry
     Harris-Foulkes estimate   =     -31.49270165 Ry
     estimated scf accuracy    <       0.00018454 Ry

     iteration # 37     ecut=    30.00 Ry     beta=0.70
     Davidson diagonalization with overlap
     ethr =  2.31E-06,  avg # of iterations =  1.0

     total cpu time spent up to now is        1.5 secs

     total energy              =     -31.49270013 Ry
     Harris-Foulkes estimate   =     -31.49270015 Ry
     estimated scf accuracy    <       0.00000053 Ry

     iteration # 38     ecut=    30.00 Ry     beta=0.70
     Davidson diagonalization with overlap
     ethr =  6.61E-09,  avg # of iterations =  1.0

     total cpu time spent up to now is        1.6 secs

     total energy              =     -31.49270021 Ry
     Harris-Foulkes estimate   =     -31.49270013 Ry
     estimated scf accuracy    <       0.00000015 Ry

     iteration # 39     ecut=    30.00 Ry     beta=0.70
     Davidson diagonalization with overlap
     ethr =  1.88E-09,  avg # of iterations =  1.0

     total cpu time spent up to now is        1.6 secs

     total energy              =     -31.49270018 Ry
     Harris-Foulkes estimate   =     -31.49270021 Ry
     estimated scf accuracy    <       0.00000017 Ry

     iteration # 40     ecut=    30.00 Ry     beta=0.70
     Davidson diagonalization with overlap
     ethr =  1.88E-09,  avg # of iterations =  1.0

     total cpu time spent up to now is        1.6 secs

     total energy              =     -31.49270018 Ry
     Harris-Foulkes estimate   =     -31.49270018 Ry
     estimated scf accuracy    <       0.00000007 Ry

     iteration # 41     ecut=    30.00 Ry     beta=0.70
     Davidson diagonalization with overlap
     ethr =  8.78E-10,  avg # of iterations =  1.0

     total cpu time spent up to now is        1.6 secs

     End of self-consistent calculation

          k = 0.0000 0.0000 0.0000 ( 22119 PWs)   bands (ev):

   -23.5735  -7.0259  -6.9943  -6.9917  -6.8845  -6.8504  -0.1981   0.6107

     the Fermi energy is    -6.8569 ev

!    total energy              =     -31.49270013 Ry
     Harris-Foulkes estimate   =     -31.49270018 Ry
     estimated scf accuracy    <          8.5E-09 Ry

     convergence has been achieved in  41 iterations

     Forces acting on atoms (Ry/au):

     atom    1 type  1   force =     0.00066434    0.00014574   -0.00118821
     atom    2 type  1   force =    -0.00095285   -0.00074801    0.00124255
     atom    3 type  2   force =     0.00028851    0.00060227   -0.00005434

     Total force =     0.002310     Total SCF correction =     0.000015

     Molecular Dynamics Calculation

     Starting temperature  =  1000.00 K

     temperature is controlled by Andersen thermostat
     Collision frequency = 1.0000/timestep
     mass H                =     1.01
     mass O                =    16.00
     Time step             =   100.00 a.u.,  4.8378 femto-seconds

     Entering Dynamics:    iteration =     1
                           time      =   0.0048 pico-seconds


     Andersen thermostat:    3 collisions

ATOMIC_POSITIONS (bohr)
H        0.531588425  13.019105745   7.841140378
H        8.910481994  17.602185210  15.365338785
O        4.012153522  13.439211389   0.821090258


     kinetic energy (Ekin) =     0.01319564 Ry
     temperature           =   694.47456190 K 
     Ekin + Etot (const)   =   -31.47950449 Ry

     Linear momentum :   -0.0000000000   -0.0000000000    0.0000000000

     Writing output data file pwscf.save
     Check: negative starting charge=   -0.342627
     NEW-OLD atomic charge density approx. for the potential
     Check: negative starting charge=   -0.342501

     negative rho (up, down):  7.499E-02 0.000E+00

     total cpu time spent up to now is        1.9 secs

     per-process dynamical memory:    20.4 Mb

     Self-consistent Calculation

     iteration #  1     ecut=    30.00 Ry     beta=0.70
     Davidson diagonalization with overlap
     c_bands:  1 eigenvalues not converged
     ethr =  1.00E-06,  avg # of iterations = 20.0

     negative rho (up, down):  1.740E-02 0.000E+00

     total cpu time spent up to now is        2.0 secs

     total energy              =     -31.44134104 Ry
     Harris-Foulkes estimate   =     -31.43445899 Ry
     estimated scf accuracy    <       0.04563598 Ry

     iteration #  2     ecut=    30.00 Ry     beta=0.70
     Davidson diagonalization with overlap
     ethr =  5.70E-04,  avg # of iterations =  2.0

     negative rho (up, down):  1.602E-02 0.000E+00

     total cpu time spent up to now is        2.0 secs

     total energy              =     -31.46526951 Ry
     Harris-Foulkes estimate   =     -31.90271405 Ry
     estimated scf accuracy    <       4.12196706 Ry

     iteration #  3     ecut=    30.00 Ry     beta=0.70
     Davidson diagonalization with overlap
     ethr =  5.70E-04,  avg # of iterations =  2.0

     negative rho (up, down):  1.529E-02 0.000E+00

     total cpu time spent up to now is        2.1 secs

     total energy              =     -31.46858305 Ry
     Harris-Foulkes estimate   =     -31.54550075 Ry
     estimated scf accuracy    <       1.17925420 Ry

     iteration #  4     ecut=    30.00 Ry     beta=0.70
     Davidson diagonalization with overlap
     ethr =  5.70E-04,  avg # of iterations =  1.0

     negative rho (up, down):  9.028E-03 0.000E+00

     total cpu time spent up to now is        2.1 secs

     total energy              =     -31.42100416 Ry
     Harris-Foulkes estimate   =     -31.48497073 Ry
     estimated scf accuracy    <       0.64224988 Ry

     iteration #  5     ecut=    30.00 Ry     beta=0.70
     Davidson diagonalization with overlap
     ethr =  5.70E-04,  avg # of iterations =  1.0

     negative rho (up, down):  3.130E-03 0.000E+00

     total cpu time spent up to now is        2.1 secs

     total energy              =     -31.47594229 Ry
     Harris-Foulkes estimate   =     -31.55783938 Ry
     estimated scf accuracy    <       2.38694914 Ry

     iteration #  6     ecut=    30.00 Ry     beta=0.70
     Davidson diagonalization with overlap
     ethr =  5.70E-04,  avg # of iterations =  1.0

     negative rho (up, down):  1.033E-03 0.000E+00

     total cpu time spent up to now is        2.2 secs

     total energy              =     -31.48821074 Ry
     Harris-Foulkes estimate   =     -31.49623616 Ry
     estimated scf accuracy    <       0.28309484 Ry

     iteration #  7     ecut=    30.00 Ry     beta=0.70
     Davidson diagonalization with overlap
     ethr =  5.70E-04,  avg # of iterations =  1.0

     negative rho (up, down):  5.603E-04 0.000E+00

     total cpu time spent up to now is        2.2 secs

     total energy              =     -31.49185874 Ry
     Harris-Foulkes estimate   =     -31.49455245 Ry
     estimated scf accuracy    <       0.13136264 Ry

     iteration #  8     ecut=    30.00 Ry     beta=0.70
     Davidson diagonalization with overlap
     ethr =  5.70E-04,  avg # of iterations =  1.0

     negative rho (up, down):  3.155E-05 0.000E+00

     total cpu time spent up to now is        2.2 secs

     total energy              =     -31.49285396 Ry
     Harris-Foulkes estimate   =     -31.49307513 Ry
     estimated scf accuracy    <       0.00195477 Ry

     iteration #  9     ecut=    30.00 Ry     beta=0.70
     Davidson diagonalization with overlap
     ethr =  2.44E-05,  avg # of iterations = 15.0

     negative rho (up, down):  3.847E-07 0.000E+00

     total cpu time spent up to now is        2.3 secs

     total energy              =     -31.49247988 Ry
     Harris-Foulkes estimate   =     -31.49359105 Ry
     estimated scf accuracy    <       0.03290559 Ry

     iteration # 10     ecut=    30.00 Ry     beta=0.70
     Davidson diagonalization with overlap
     ethr =  2.44E-05,  avg # of iterations =  1.0

     total cpu time spent up to now is        2.3 secs

     total energy              =     -31.49297618 Ry
     Harris-Foulkes estimate   =     -31.49316743 Ry
     estimated scf accuracy    <       0.00834959 Ry

     iteration # 11     ecut=    30.00 Ry     beta=0.70
     Davidson diagonalization with overlap
     ethr =  2.44E-05,  avg # of iterations =  1.0

     total cpu time spent up to now is        2.4 secs

     total energy              =     -31.49307850 Ry
     Harris-Foulkes estimate   =     -31.49308675 Ry
     estimated scf accuracy    <       0.00030744 Ry

     iteration # 12     ecut=    30.00 Ry     beta=0.70
     Davidson diagonalization with overlap
     ethr =  3.84E-06,  avg # of iterations =  1.0

     total cpu time spent up to now is        2.4 secs

     total energy              =     -31.49308286 Ry
     Harris-Foulkes estimate   =     -31.49308328 Ry
     estimated scf accuracy    <       0.00002353 Ry

     iteration # 13     ecut=    30.00 Ry     beta=0.70
     Davidson diagonalization with overlap
     ethr =  2.94E-07,  avg # of iterations =  8.0

     total cpu time spent up to now is        2.4 secs

     total energy              =     -31.49308211 Ry
     Harris-Foulkes estimate   =     -31.49308297 Ry
     estimated scf accuracy    <       0.00002546 Ry

     iteration # 14     ecut=    30.00 Ry     beta=0.70
     Davidson diagonalization with overlap
     ethr =  2.94E-07,  avg # of iterations =  1.0

     total cpu time spent up to now is        2.5 secs

     total energy              =     -31.49308229 Ry
     Harris-Foulkes estimate   =     -31.49308237 Ry
     estimated scf accuracy    <       0.00000034 Ry

     iteration # 15     ecut=    30.00 Ry     beta=0.70
     Davidson diagonalization with overlap
     ethr =  4.19E-09,  avg # of iterations =  1.0

     total cpu time spent up to now is        2.5 secs

     End of self-consistent calculation

          k = 0.0000 0.0000 0.0000 ( 22119 PWs)   bands (ev):

   -23.5760  -7.0348  -6.9968  -6.9937  -6.8861  -6.8447  -0.1967   0.6149

     the Fermi energy is    -6.8589 ev

!    total energy              =     -31.49308230 Ry
     Harris-Foulkes estimate   =     -31.49308229 Ry
     estimated scf accuracy    <          6.4E-09 Ry

     convergence has been achieved in  15 iterations

     Forces acting on atoms (Ry/au):

     atom    1 type  1   force =     0.00096069   -0.00001896   -0.00210638
     atom    2 type  1   force =    -0.00052100   -0.00066915    0.00071994
     atom    3 type  2   force =    -0.00043968    0.00068811    0.00138645

     Total force =     0.003031     Total SCF correction =     0.000194

     Entering Dynamics:    iteration =     2
                           time      =   0.0097 pico-seconds


     Andersen thermostat:    3 collisions

ATOMIC_POSITIONS (bohr)
H        0.594437996  13.195049634   7.963389483
H        8.968078790  17.441065626  15.549400631
O        4.004550345  13.438275604   0.801754379


     kinetic energy (Ekin) =     0.00843913 Ry
     temperature           =   444.14376114 K 
     Ekin + Etot (const)   =   -31.48464317 Ry
     Message from routine dynamics:
     Total linear momentum <> 0

     Linear momentum :   -0.0482643422    0.4839037204    0.0463385468

     Writing output data file pwscf.save

     first order wave-functions extrapolation
     Check: negative starting charge=   -0.342501
     first order charge density extrapolation
     Check: negative starting charge=   -0.342182

     negative rho (up, down):  1.027E-01 0.000E+00

     total cpu time spent up to now is        2.8 secs

     per-process dynamical memory:    20.4 Mb

     Self-consistent Calculation

     iteration #  1     ecut=    30.00 Ry     beta=0.70
     Davidson diagonalization with overlap
     c_bands:  1 eigenvalues not converged
     ethr =  1.00E-06,  avg # of iterations = 20.0

     negative rho (up, down):  2.426E-02 0.000E+00

     total cpu time spent up to now is        2.9 secs

     total energy              =     -31.41301119 Ry
     Harris-Foulkes estimate   =     -31.41962071 Ry
     estimated scf accuracy    <       0.07446967 Ry

     iteration #  2     ecut=    30.00 Ry     beta=0.70
     Davidson diagonalization with overlap
     ethr =  9.31E-04,  avg # of iterations =  2.0

     negative rho (up, down):  2.198E-02 0.000E+00

     total cpu time spent up to now is        3.0 secs

     total energy              =     -31.45711392 Ry
     Harris-Foulkes estimate   =     -31.98657201 Ry
     estimated scf accuracy    <       4.27595454 Ry

     iteration #  3     ecut=    30.00 Ry     beta=0.70
     Davidson diagonalization with overlap
     ethr =  9.31E-04,  avg # of iterations =  2.0

     negative rho (up, down):  2.040E-02 0.000E+00

     total cpu time spent up to now is        3.0 secs

     total energy              =     -31.47758536 Ry
     Harris-Foulkes estimate   =     -31.59928443 Ry
     estimated scf accuracy    <       1.19340642 Ry

     iteration #  4     ecut=    30.00 Ry     beta=0.70
     Davidson diagonalization with overlap
     ethr =  9.31E-04,  avg # of iterations =  1.0

     negative rho (up, down):  1.951E-02 0.000E+00

     total cpu time spent up to now is        3.0 secs

     total energy              =     -31.44435571 Ry
     Harris-Foulkes estimate   =     -31.49005116 Ry
     estimated scf accuracy    <       1.29974372 Ry

     iteration #  5     ecut=    30.00 Ry     beta=0.70
     Davidson diagonalization with overlap
     ethr =  9.31E-04,  avg # of iterations =  1.0

     negative rho (up, down):  5.526E-03 0.000E+00

     total cpu time spent up to now is        3.0 secs

     total energy              =     -31.49809980 Ry
     Harris-Foulkes estimate   =     -31.47724929 Ry
     estimated scf accuracy    <       0.24773622 Ry

     iteration #  6     ecut=    30.00 Ry     beta=0.70
     Davidson diagonalization with overlap
     ethr =  9.31E-04,  avg # of iterations =  1.0

     negative rho (up, down):  1.979E-03 0.000E+00

     total cpu time spent up to now is        3.1 secs

     total energy              =     -31.48838140 Ry
     Harris-Foulkes estimate   =     -31.50061191 Ry
     estimated scf accuracy    <       0.71457230 Ry

     iteration #  7     ecut=    30.00 Ry     beta=0.70
     Davidson diagonalization with overlap
     ethr =  9.31E-04,  avg # of iterations =  1.0

     negative rho (up, down):  7.152E-06 0.000E+00

     total cpu time spent up to now is        3.1 secs

     total energy              =     -31.49190395 Ry
     Harris-Foulkes estimate   =     -31.49317425 Ry
     estimated scf accuracy    <       0.07574467 Ry

     iteration #  8     ecut=    30.00 Ry     beta=0.70
     Davidson diagonalization with overlap
     ethr =  9.31E-04,  avg # of iterations =  1.0

     negative rho (up, down):  1.548E-05 0.000E+00

     total cpu time spent up to now is        3.1 secs

     total energy              =     -31.49352213 Ry
     Harris-Foulkes estimate   =     -31.49386716 Ry
     estimated scf accuracy    <       0.06229488 Ry

     iteration #  9     ecut=    30.00 Ry     beta=0.70
     Davidson diagonalization with overlap
     ethr =  7.79E-04,  avg # of iterations =  1.0

     negative rho (up, down):  1.689E-05 0.000E+00

     total cpu time spent up to now is        3.2 secs

     total energy              =     -31.49360266 Ry
     Harris-Foulkes estimate   =     -31.49355948 Ry
     estimated scf accuracy    <       0.03860772 Ry

     iteration # 10     ecut=    30.00 Ry     beta=0.70
     Davidson diagonalization with overlap
     ethr =  4.83E-04,  avg # of iterations =  1.0

     negative rho (up, down):  1.308E-06 0.000E+00

     total cpu time spent up to now is        3.2 secs

     total energy              =     -31.49300761 Ry
     Harris-Foulkes estimate   =     -31.49363283 Ry
     estimated scf accuracy    <       0.05009994 Ry

     iteration # 11     ecut=    30.00 Ry     beta=0.70
     Davidson diagonalization with overlap
     ethr =  4.83E-04,  avg # of iterations =  1.0

     negative rho (up, down):  1.644E-08 0.000E+00

     total cpu time spent up to now is        3.2 secs

     total energy              =     -31.49295874 Ry
     Harris-Foulkes estimate   =     -31.49317977 Ry
     estimated scf accuracy    <       0.00965823 Ry

     iteration # 12     ecut=    30.00 Ry     beta=0.70
     Davidson diagonalization with overlap
     ethr =  1.21E-04,  avg # of iterations =  7.0

     total cpu time spent up to now is        3.3 secs

     total energy              =     -31.49307222 Ry
     Harris-Foulkes estimate   =     -31.49307936 Ry
     estimated scf accuracy    <       0.00031792 Ry

     iteration # 13     ecut=    30.00 Ry     beta=0.70
     Davidson diagonalization with overlap
     ethr =  3.97E-06,  avg # of iterations = 15.0

     total cpu time spent up to now is        3.3 secs

     total energy              =     -31.49307782 Ry
     Harris-Foulkes estimate   =     -31.49307730 Ry
     estimated scf accuracy    <       0.00013378 Ry

     iteration # 14     ecut=    30.00 Ry     beta=0.70
     Davidson diagonalization with overlap
     ethr =  1.67E-06,  avg # of iterations =  1.0

     total cpu time spent up to now is        3.4 secs

     total energy              =     -31.49308002 Ry
     Harris-Foulkes estimate   =     -31.49307852 Ry
     estimated scf accuracy    <       0.00006231 Ry

     iteration # 15     ecut=    30.00 Ry     beta=0.70
     Davidson diagonalization with overlap
     ethr =  7.79E-07,  avg # of iterations =  1.0

     negative rho (up, down):  1.511E-08 0.000E+00

     total cpu time spent up to now is        3.4 secs

     total energy              =     -31.49308074 Ry
     Harris-Foulkes estimate   =     -31.49308188 Ry
     estimated scf accuracy    <       0.00002743 Ry

     iteration # 16     ecut=    30.00 Ry     beta=0.70
     Davidson diagonalization with overlap
     ethr =  3.43E-07,  avg # of iterations =  1.0

     total cpu time spent up to now is        3.4 secs

     total energy              =     -31.49307984 Ry
     Harris-Foulkes estimate   =     -31.49308088 Ry
     estimated scf accuracy    <       0.00000496 Ry

     iteration # 17     ecut=    30.00 Ry     beta=0.70
     Davidson diagonalization with overlap
     ethr =  6.20E-08,  avg # of iterations =  1.0

     total cpu time spent up to now is        3.5 secs

     total energy              =     -31.49307995 Ry
     Harris-Foulkes estimate   =     -31.49307993 Ry
     estimated scf accuracy    <       0.00000002 Ry

     iteration # 18     ecut=    30.00 Ry     beta=0.70
     Davidson diagonalization with overlap
     ethr =  2.68E-10,  avg # of iterations =  1.0

     total cpu time spent up to now is        3.5 secs

     End of self-consistent calculation

          k = 0.0000 0.0000 0.0000 ( 22119 PWs)   bands (ev):

   -23.5759  -7.0342  -6.9978  -6.9937  -6.8855  -6.8454  -0.1955   0.6145

     the Fermi energy is    -6.8590 ev

!    total energy              =     -31.49307995 Ry
     Harris-Foulkes estimate   =     -31.49307995 Ry
     estimated scf accuracy    <          9.5E-10 Ry

     convergence has been achieved in  18 iterations

     Forces acting on atoms (Ry/au):

     atom    1 type  1   force =     0.00080655   -0.00011022   -0.00183039
     atom    2 type  1   force =    -0.00091269   -0.00087879    0.00110939
     atom    3 type  2   force =     0.00010614    0.00098901    0.00072100

     Total force =     0.002891     Total SCF correction =     0.000308
     SCF correction compared to forces is large: reduce conv_thr to get better values

     Entering Dynamics:    iteration =     3
                           time      =   0.0145 pico-seconds


     Andersen thermostat:    3 collisions

ATOMIC_POSITIONS (bohr)
H        0.824812059  12.911133132   8.031953710
H        9.101521436  17.504076422  15.900402063
O        3.981584416  13.452220277   0.775269297


     kinetic energy (Ekin) =     0.01679337 Ry
     temperature           =   883.82027051 K 
     Ekin + Etot (const)   =   -31.47628657 Ry
     Message from routine dynamics:
     Total linear momentum <> 0

     Linear momentum :    0.3047675616   -0.3500624036   -0.1369358232

     Writing output data file pwscf.save

     second order wave-functions extrapolation
     Check: negative starting charge=   -0.342182
     second order charge density extrapolation
     Check: negative starting charge=   -0.342221

     negative rho (up, down):  6.712E-02 0.000E+00

     total cpu time spent up to now is        3.8 secs

     per-process dynamical memory:    20.4 Mb

     Self-consistent Calculation

     iteration #  1     ecut=    30.00 Ry     beta=0.70
     Davidson diagonalization with overlap
     c_bands:  1 eigenvalues not converged
     ethr =  1.00E-06,  avg # of iterations = 20.0

     negative rho (up, down):  1.561E-02 0.000E+00

     total cpu time spent up to now is        4.0 secs

     total energy              =     -31.43483950 Ry
     Harris-Foulkes estimate   =     -31.43608360 Ry
     estimated scf accuracy    <       0.05459218 Ry

     iteration #  2     ecut=    30.00 Ry     beta=0.70
     Davidson diagonalization with overlap
     ethr =  6.82E-04,  avg # of iterations =  2.0

     negative rho (up, down):  1.423E-02 0.000E+00

     total cpu time spent up to now is        4.0 secs

     total energy              =     -31.48938688 Ry
     Harris-Foulkes estimate   =     -32.00379045 Ry
     estimated scf accuracy    <       4.29181215 Ry

     iteration #  3     ecut=    30.00 Ry     beta=0.70
     Davidson diagonalization with overlap
     ethr =  6.82E-04,  avg # of iterations =  2.0

     negative rho (up, down):  1.388E-02 0.000E+00

     total cpu time spent up to now is        4.0 secs

     total energy              =     -31.48105599 Ry
     Harris-Foulkes estimate   =     -31.49657248 Ry
     estimated scf accuracy    <       1.66451193 Ry

     iteration #  4     ecut=    30.00 Ry     beta=0.70
     Davidson diagonalization with overlap
     ethr =  6.82E-04,  avg # of iterations =  1.0

     negative rho (up, down):  1.010E-02 0.000E+00

     total cpu time spent up to now is        4.1 secs

     total energy              =     -31.43508710 Ry
     Harris-Foulkes estimate   =     -31.48534977 Ry
     estimated scf accuracy    <       0.55105783 Ry

     iteration #  5     ecut=    30.00 Ry     beta=0.70
     Davidson diagonalization with overlap
     ethr =  6.82E-04,  avg # of iterations =  1.0

     negative rho (up, down):  3.286E-03 0.000E+00

     total cpu time spent up to now is        4.1 secs

     total energy              =     -31.46410908 Ry
     Harris-Foulkes estimate   =     -31.54851747 Ry
     estimated scf accuracy    <       2.48807550 Ry

     iteration #  6     ecut=    30.00 Ry     beta=0.70
     Davidson diagonalization with overlap
     ethr =  6.82E-04,  avg # of iterations =  1.0

     negative rho (up, down):  8.556E-04 0.000E+00

     total cpu time spent up to now is        4.1 secs

     total energy              =     -31.49334908 Ry
     Harris-Foulkes estimate   =     -31.49105508 Ry
     estimated scf accuracy    <       0.01991765 Ry

     iteration #  7     ecut=    30.00 Ry     beta=0.70
     Davidson diagonalization with overlap
     ethr =  2.49E-04,  avg # of iterations =  4.0

     negative rho (up, down):  4.247E-04 0.000E+00

     total cpu time spent up to now is        4.2 secs

     total energy              =     -31.49381188 Ry
     Harris-Foulkes estimate   =     -31.49340374 Ry
     estimated scf accuracy    <       0.02419908 Ry

     iteration #  8     ecut=    30.00 Ry     beta=0.70
     Davidson diagonalization with overlap
     ethr =  2.49E-04,  avg # of iterations =  1.0

     negative rho (up, down):  2.083E-06 0.000E+00

     total cpu time spent up to now is        4.2 secs

     total energy              =     -31.49285201 Ry
     Harris-Foulkes estimate   =     -31.49392453 Ry
     estimated scf accuracy    <       0.06602481 Ry

     iteration #  9     ecut=    30.00 Ry     beta=0.70
     Davidson diagonalization with overlap
     ethr =  2.49E-04,  avg # of iterations =  1.0

     negative rho (up, down):  5.167E-08 0.000E+00

     total cpu time spent up to now is        4.2 secs

     total energy              =     -31.49316944 Ry
     Harris-Foulkes estimate   =     -31.49328404 Ry
     estimated scf accuracy    <       0.00266556 Ry

     iteration # 10     ecut=    30.00 Ry     beta=0.70
     Davidson diagonalization with overlap
     ethr =  3.33E-05,  avg # of iterations = 14.0

     total cpu time spent up to now is        4.3 secs

     total energy              =     -31.49332273 Ry
     Harris-Foulkes estimate   =     -31.49329920 Ry
     estimated scf accuracy    <       0.00399369 Ry

     iteration # 11     ecut=    30.00 Ry     beta=0.70
     Davidson diagonalization with overlap
     ethr =  3.33E-05,  avg # of iterations =  1.0

     total cpu time spent up to now is        4.3 secs

     total energy              =     -31.49312458 Ry
     Harris-Foulkes estimate   =     -31.49332690 Ry
     estimated scf accuracy    <       0.00688532 Ry

     iteration # 12     ecut=    30.00 Ry     beta=0.70
     Davidson diagonalization with overlap
     ethr =  3.33E-05,  avg # of iterations =  1.0

     total cpu time spent up to now is        4.3 secs

     total energy              =     -31.49324430 Ry
     Harris-Foulkes estimate   =     -31.49327462 Ry
     estimated scf accuracy    <       0.00161581 Ry

     iteration # 13     ecut=    30.00 Ry     beta=0.70
     Davidson diagonalization with overlap
     ethr =  2.02E-05,  avg # of iterations =  1.0

     total cpu time spent up to now is        4.4 secs

     total energy              =     -31.49325855 Ry
     Harris-Foulkes estimate   =     -31.49325859 Ry
     estimated scf accuracy    <       0.00000532 Ry

     iteration # 14     ecut=    30.00 Ry     beta=0.70
     Davidson diagonalization with overlap
     ethr =  6.66E-08,  avg # of iterations =  7.0

     total cpu time spent up to now is        4.4 secs

     total energy              =     -31.49325836 Ry
     Harris-Foulkes estimate   =     -31.49325856 Ry
     estimated scf accuracy    <       0.00000726 Ry

     iteration # 15     ecut=    30.00 Ry     beta=0.70
     Davidson diagonalization with overlap
     ethr =  6.66E-08,  avg # of iterations =  1.0

     total cpu time spent up to now is        4.4 secs

     End of self-consistent calculation

          k = 0.0000 0.0000 0.0000 ( 22119 PWs)   bands (ev):

   -23.5734  -7.0340  -6.9966  -6.9914  -6.8816  -6.8419  -0.1944   0.6219

     the Fermi energy is    -6.8567 ev

!    total energy              =     -31.49325833 Ry
     Harris-Foulkes estimate   =     -31.49325843 Ry
     estimated scf accuracy    <          2.7E-09 Ry

     convergence has been achieved in  15 iterations

     Forces acting on atoms (Ry/au):

     atom    1 type  1   force =     0.00087431    0.00001978   -0.00181927
     atom    2 type  1   force =    -0.00122640   -0.00101568    0.00137256
     atom    3 type  2   force =     0.00035208    0.00099589    0.00044671

     Total force =     0.003132     Total SCF correction =     0.000459
     SCF correction compared to forces is large: reduce conv_thr to get better values

     Entering Dynamics:    iteration =     4
                           time      =   0.0194 pico-seconds


     Andersen thermostat:    3 collisions

ATOMIC_POSITIONS (bohr)
H        0.822726977  12.775212119   7.921246253
H        8.891361953  17.158223665  15.719811605
O        3.994982354  13.482632246   0.793657478


     kinetic energy (Ekin) =     0.02007815 Ry
     temperature           =  1056.69511448 K 
     Ekin + Etot (const)   =   -31.47318018 Ry
     Message from routine dynamics:
     Total linear momentum <> 0

     Linear momentum :    0.6585480540    0.4524520681   -0.2987964083

     Writing output data file pwscf.save

     second order wave-functions extrapolation
     Check: negative starting charge=   -0.342221
     second order charge density extrapolation
     Check: negative starting charge=   -0.341687

     negative rho (up, down):  6.456E-02 0.000E+00

     total cpu time spent up to now is        4.8 secs

     per-process dynamical memory:    20.4 Mb

     Self-consistent Calculation

     iteration #  1     ecut=    30.00 Ry     beta=0.70
     Davidson diagonalization with overlap
     c_bands:  1 eigenvalues not converged
     ethr =  1.00E-06,  avg # of iterations = 20.0

     negative rho (up, down):  1.522E-02 0.000E+00

     total cpu time spent up to now is        4.9 secs

     total energy              =     -31.45591755 Ry
     Harris-Foulkes estimate   =     -31.44128148 Ry
     estimated scf accuracy    <       0.03084621 Ry

     iteration #  2     ecut=    30.00 Ry     beta=0.70
     Davidson diagonalization with overlap
     ethr =  3.86E-04,  avg # of iterations =  2.0

     negative rho (up, down):  1.423E-02 0.000E+00

     total cpu time spent up to now is        4.9 secs

     total energy              =     -31.46201606 Ry
     Harris-Foulkes estimate   =     -31.82001922 Ry
     estimated scf accuracy    <       3.94940491 Ry

     iteration #  3     ecut=    30.00 Ry     beta=0.70
     Davidson diagonalization with overlap
     ethr =  3.86E-04,  avg # of iterations =  2.0

     negative rho (up, down):  1.371E-02 0.000E+00

     total cpu time spent up to now is        5.0 secs

     total energy              =     -31.46605742 Ry
     Harris-Foulkes estimate   =     -31.53147106 Ry
     estimated scf accuracy    <       1.24286378 Ry

     iteration #  4     ecut=    30.00 Ry     beta=0.70
     Davidson diagonalization with overlap
     ethr =  3.86E-04,  avg # of iterations =  1.0

     negative rho (up, down):  4.268E-03 0.000E+00

     total cpu time spent up to now is        5.0 secs

     total energy              =     -31.46373834 Ry
     Harris-Foulkes estimate   =     -31.48354309 Ry
     estimated scf accuracy    <       0.25315899 Ry

     iteration #  5     ecut=    30.00 Ry     beta=0.70
     Davidson diagonalization with overlap
     ethr =  3.86E-04,  avg # of iterations =  1.0

     negative rho (up, down):  2.178E-03 0.000E+00

     total cpu time spent up to now is        5.0 secs

     total energy              =     -31.47706565 Ry
     Harris-Foulkes estimate   =     -31.52992721 Ry
     estimated scf accuracy    <       1.73713859 Ry

     iteration #  6     ecut=    30.00 Ry     beta=0.70
     Davidson diagonalization with overlap
     ethr =  3.86E-04,  avg # of iterations =  1.0

     negative rho (up, down):  7.752E-04 0.000E+00

     total cpu time spent up to now is        5.1 secs

     total energy              =     -31.49313578 Ry
     Harris-Foulkes estimate   =     -31.49375855 Ry
     estimated scf accuracy    <       0.06787193 Ry

     iteration #  7     ecut=    30.00 Ry     beta=0.70
     Davidson diagonalization with overlap
     ethr =  3.86E-04,  avg # of iterations =  3.0

     negative rho (up, down):  2.549E-04 0.000E+00

     total cpu time spent up to now is        5.1 secs

     total energy              =     -31.49334040 Ry
     Harris-Foulkes estimate   =     -31.49410122 Ry
     estimated scf accuracy    <       0.03477292 Ry

     iteration #  8     ecut=    30.00 Ry     beta=0.70
     Davidson diagonalization with overlap
     ethr =  3.86E-04,  avg # of iterations =  1.0

     negative rho (up, down):  1.527E-05 0.000E+00

     total cpu time spent up to now is        5.1 secs

     total energy              =     -31.49336090 Ry
     Harris-Foulkes estimate   =     -31.49396430 Ry
     estimated scf accuracy    <       0.00929988 Ry

     iteration #  9     ecut=    30.00 Ry     beta=0.70
     Davidson diagonalization with overlap
     ethr =  1.16E-04,  avg # of iterations =  3.0

     negative rho (up, down):  2.858E-07 0.000E+00

     total cpu time spent up to now is        5.2 secs

     total energy              =     -31.49361224 Ry
     Harris-Foulkes estimate   =     -31.49416664 Ry
     estimated scf accuracy    <       0.02057067 Ry

     iteration # 10     ecut=    30.00 Ry     beta=0.70
     Davidson diagonalization with overlap
     ethr =  1.16E-04,  avg # of iterations =  7.0

     total cpu time spent up to now is        5.2 secs

     total energy              =     -31.49387949 Ry
     Harris-Foulkes estimate   =     -31.49396237 Ry
     estimated scf accuracy    <       0.00998391 Ry

     iteration # 11     ecut=    30.00 Ry     beta=0.70
     Davidson diagonalization with overlap
     ethr =  1.16E-04,  avg # of iterations =  1.0

     total cpu time spent up to now is        5.2 secs

     total energy              =     -31.49378541 Ry
     Harris-Foulkes estimate   =     -31.49389556 Ry
     estimated scf accuracy    <       0.00479234 Ry

     iteration # 12     ecut=    30.00 Ry     beta=0.70
     Davidson diagonalization with overlap
     ethr =  5.99E-05,  avg # of iterations =  1.0

     total cpu time spent up to now is        5.3 secs

     total energy              =     -31.49384248 Ry
     Harris-Foulkes estimate   =     -31.49384248 Ry
     estimated scf accuracy    <       0.00000908 Ry

     iteration # 13     ecut=    30.00 Ry     beta=0.70
     Davidson diagonalization with overlap
     c_bands:  1 eigenvalues not converged
     ethr =  1.14E-07,  avg # of iterations = 20.0

     total cpu time spent up to now is        5.3 secs

     total energy              =     -31.49384236 Ry
     Harris-Foulkes estimate   =     -31.49384250 Ry
     estimated scf accuracy    <       0.00000670 Ry

     iteration # 14     ecut=    30.00 Ry     beta=0.70
     Davidson diagonalization with overlap
     ethr =  8.37E-08,  avg # of iterations =  1.0

     total cpu time spent up to now is        5.4 secs

     total energy              =     -31.49384252 Ry
     Harris-Foulkes estimate   =     -31.49384246 Ry
     estimated scf accuracy    <       0.00000002 Ry

     iteration # 15     ecut=    30.00 Ry     beta=0.70
     Davidson diagonalization with overlap
     ethr =  2.76E-10,  avg # of iterations =  2.0

     total cpu time spent up to now is        5.4 secs

     End of self-consistent calculation

          k = 0.0000 0.0000 0.0000 ( 22119 PWs)   bands (ev):

   -23.5755  -7.0451  -6.9985  -6.9935  -6.8838  -6.8339  -0.1902   0.6253

     the Fermi energy is    -6.8587 ev

!    total energy              =     -31.49384254 Ry
     Harris-Foulkes estimate   =     -31.49384252 Ry
     estimated scf accuracy    <          5.1E-09 Ry

     convergence has been achieved in  15 iterations

     Forces acting on atoms (Ry/au):

     atom    1 type  1   force =     0.00092749    0.00036307   -0.00210411
     atom    2 type  1   force =    -0.00162154   -0.00093275    0.00169162
     atom    3 type  2   force =     0.00069405    0.00056968    0.00041248

     Total force =     0.003572     Total SCF correction =     0.000047

     Entering Dynamics:    iteration =     5
                           time      =   0.0242 pico-seconds


     Andersen thermostat:    3 collisions

ATOMIC_POSITIONS (bohr)
H        0.649491684  13.072551402   8.203311318
H        8.339093078  17.363576634  15.459603305
O        4.040779804  13.450899798   0.792277769


     kinetic energy (Ekin) =     0.03177879 Ry
     temperature           =  1672.48958460 K 
     Ekin + Etot (const)   =   -31.46206375 Ry
     Message from routine dynamics:
     Total linear momentum <> 0

     Linear momentum :    0.2555715914    0.0401351917   -0.1541686132

     Writing output data file pwscf.save

     second order wave-functions extrapolation
     Check: negative starting charge=   -0.341687
     second order charge density extrapolation
     Check: negative starting charge=   -0.342065

     negative rho (up, down):  6.664E-02 0.000E+00

     total cpu time spent up to now is        5.8 secs

     per-process dynamical memory:    20.4 Mb

     Self-consistent Calculation

     iteration #  1     ecut=    30.00 Ry     beta=0.70
     Davidson diagonalization with overlap
     c_bands:  1 eigenvalues not converged
     ethr =  1.00E-06,  avg # of iterations = 20.0

     negative rho (up, down):  1.532E-02 0.000E+00

     total cpu time spent up to now is        5.9 secs

     total energy              =     -31.46432672 Ry
     Harris-Foulkes estimate   =     -31.44318386 Ry
     estimated scf accuracy    <       0.01955189 Ry

     iteration #  2     ecut=    30.00 Ry     beta=0.70
     Davidson diagonalization with overlap
     ethr =  2.44E-04,  avg # of iterations =  2.0

     negative rho (up, down):  1.399E-02 0.000E+00

     total cpu time spent up to now is        5.9 secs

     total energy              =     -31.47277900 Ry
     Harris-Foulkes estimate   =     -31.60964389 Ry
     estimated scf accuracy    <       1.21819381 Ry

     iteration #  3     ecut=    30.00 Ry     beta=0.70
     Davidson diagonalization with overlap
     ethr =  2.44E-04,  avg # of iterations =  2.0

     negative rho (up, down):  1.375E-02 0.000E+00

     total cpu time spent up to now is        6.0 secs

     total energy              =     -31.46806203 Ry
     Harris-Foulkes estimate   =     -31.50628548 Ry
     estimated scf accuracy    <       1.46888250 Ry

     iteration #  4     ecut=    30.00 Ry     beta=0.70
     Davidson diagonalization with overlap
     ethr =  2.44E-04,  avg # of iterations =  1.0

     negative rho (up, down):  4.817E-03 0.000E+00

     total cpu time spent up to now is        6.0 secs

     total energy              =     -31.46624697 Ry
     Harris-Foulkes estimate   =     -31.48299966 Ry
     estimated scf accuracy    <       0.16484880 Ry

     iteration #  5     ecut=    30.00 Ry     beta=0.70
     Davidson diagonalization with overlap
     ethr =  2.44E-04,  avg # of iterations =  1.0

     negative rho (up, down):  2.133E-03 0.000E+00

     total cpu time spent up to now is        6.0 secs

     total energy              =     -31.48706708 Ry
     Harris-Foulkes estimate   =     -31.52236095 Ry
     estimated scf accuracy    <       1.14972756 Ry

     iteration #  6     ecut=    30.00 Ry     beta=0.70
     Davidson diagonalization with overlap
     ethr =  2.44E-04,  avg # of iterations =  3.0

     negative rho (up, down):  8.151E-04 0.000E+00

     total cpu time spent up to now is        6.1 secs

     total energy              =     -31.48750699 Ry
     Harris-Foulkes estimate   =     -31.49563963 Ry
     estimated scf accuracy    <       0.19261444 Ry

     iteration #  7     ecut=    30.00 Ry     beta=0.70
     Davidson diagonalization with overlap
     ethr =  2.44E-04,  avg # of iterations =  1.0

     negative rho (up, down):  1.673E-04 0.000E+00

     total cpu time spent up to now is        6.1 secs

     total energy              =     -31.49340956 Ry
     Harris-Foulkes estimate   =     -31.49369683 Ry
     estimated scf accuracy    <       0.02385814 Ry

     iteration #  8     ecut=    30.00 Ry     beta=0.70
     Davidson diagonalization with overlap
     ethr =  2.44E-04,  avg # of iterations =  1.0

     negative rho (up, down):  3.098E-06 0.000E+00

     total cpu time spent up to now is        6.1 secs

     total energy              =     -31.49329751 Ry
     Harris-Foulkes estimate   =     -31.49348884 Ry
     estimated scf accuracy    <       0.00835763 Ry

     iteration #  9     ecut=    30.00 Ry     beta=0.70
     Davidson diagonalization with overlap
     ethr =  1.04E-04,  avg # of iterations =  8.0

     total cpu time spent up to now is        6.2 secs

     total energy              =     -31.49330876 Ry
     Harris-Foulkes estimate   =     -31.49336832 Ry
     estimated scf accuracy    <       0.00085813 Ry

     iteration # 10     ecut=    30.00 Ry     beta=0.70
     Davidson diagonalization with overlap
     ethr =  1.07E-05,  avg # of iterations = 14.0

     total cpu time spent up to now is        6.2 secs

     total energy              =     -31.49339441 Ry
     Harris-Foulkes estimate   =     -31.49338459 Ry
     estimated scf accuracy    <       0.00151678 Ry

     iteration # 11     ecut=    30.00 Ry     beta=0.70
     Davidson diagonalization with overlap
     ethr =  1.07E-05,  avg # of iterations =  1.0

     total cpu time spent up to now is        6.3 secs

     total energy              =     -31.49332154 Ry
     Harris-Foulkes estimate   =     -31.49339530 Ry
     estimated scf accuracy    <       0.00210961 Ry

     iteration # 12     ecut=    30.00 Ry     beta=0.70
     Davidson diagonalization with overlap
     ethr =  1.07E-05,  avg # of iterations =  1.0

     total cpu time spent up to now is        6.3 secs

     total energy              =     -31.49335793 Ry
     Harris-Foulkes estimate   =     -31.49335776 Ry
     estimated scf accuracy    <       0.00000056 Ry

     iteration # 13     ecut=    30.00 Ry     beta=0.70
     Davidson diagonalization with overlap
     ethr =  6.95E-09,  avg # of iterations =  1.0

     total cpu time spent up to now is        6.3 secs

     total energy              =     -31.49335759 Ry
     Harris-Foulkes estimate   =     -31.49335827 Ry
     estimated scf accuracy    <       0.00002467 Ry

     iteration # 14     ecut=    30.00 Ry     beta=0.70
     Davidson diagonalization with overlap
     ethr =  6.95E-09,  avg # of iterations =  1.0

     total cpu time spent up to now is        6.4 secs

     total energy              =     -31.49335732 Ry
     Harris-Foulkes estimate   =     -31.49335766 Ry
     estimated scf accuracy    <       0.00000880 Ry

     iteration # 15     ecut=    30.00 Ry     beta=0.70
     Davidson diagonalization with overlap
     ethr =  6.95E-09,  avg # of iterations =  1.0

     total cpu time spent up to now is        6.4 secs

     total energy              =     -31.49335721 Ry
     Harris-Foulkes estimate   =     -31.49335748 Ry
     estimated scf accuracy    <       0.00000002 Ry

     iteration # 16     ecut=    30.00 Ry     beta=0.70
     Davidson diagonalization with overlap
     ethr =  1.96E-10,  avg # of iterations =  2.0

     total cpu time spent up to now is        6.4 secs

     End of self-consistent calculation

          k = 0.0000 0.0000 0.0000 ( 22119 PWs)   bands (ev):

   -23.5783  -7.0406  -7.0008  -6.9962  -6.8883  -6.8428  -0.1922   0.6303

     the Fermi energy is    -6.8614 ev

!    total energy              =     -31.49335723 Ry
     Harris-Foulkes estimate   =     -31.49335721 Ry
     estimated scf accuracy    <          2.6E-09 Ry

     convergence has been achieved in  16 iterations

     Forces acting on atoms (Ry/au):

     atom    1 type  1   force =     0.00075936    0.00004911   -0.00131520
     atom    2 type  1   force =    -0.00137373   -0.00130044    0.00188473
     atom    3 type  2   force =     0.00061437    0.00125133   -0.00056953

     Total force =     0.003422     Total SCF correction =     0.000147

     Entering Dynamics:    iteration =     6
                           time      =   0.0290 pico-seconds


     Andersen thermostat:    3 collisions

ATOMIC_POSITIONS (bohr)
H        0.632295423  12.485766196   8.070640831
H        7.957390537  17.132344433  15.830477297
O        4.065960291  13.502537147   0.777241173


     kinetic energy (Ekin) =     0.03450888 Ry
     temperature           =  1816.17143129 K 
     Ekin + Etot (const)   =   -31.45884836 Ry
     Message from routine dynamics:
     Total linear momentum <> 0

     Linear momentum :    0.0271839412   -0.0722010692   -0.2133873842

     Writing output data file pwscf.save

     second order wave-functions extrapolation
     Check: negative starting charge=   -0.342065
     second order charge density extrapolation
     Check: negative starting charge=   -0.340734

     negative rho (up, down):  8.265E-02 0.000E+00

     total cpu time spent up to now is        6.8 secs

     per-process dynamical memory:    20.4 Mb

     Self-consistent Calculation

     iteration #  1     ecut=    30.00 Ry     beta=0.70
     Davidson diagonalization with overlap
     ethr =  1.00E-06,  avg # of iterations = 11.0

     negative rho (up, down):  1.703E-02 0.000E+00

     total cpu time spent up to now is        6.9 secs

     total energy              =      -6.17527923 Ry
     Harris-Foulkes estimate   =     -58.35106835 Ry
     estimated scf accuracy    <       5.88230519 Ry

     iteration #  2     ecut=    30.00 Ry     beta=0.70
     Davidson diagonalization with overlap
     ethr =  1.00E-02,  avg # of iterations =  3.0

     negative rho (up, down):  1.129E-02 0.000E+00

     total cpu time spent up to now is        6.9 secs

     total energy              =     -31.46725122 Ry
     Harris-Foulkes estimate   =     -35.22250682 Ry
     estimated scf accuracy    <       7.78634512 Ry

     iteration #  3     ecut=    30.00 Ry     beta=0.70
     Davidson diagonalization with overlap
     ethr =  1.00E-02,  avg # of iterations =  2.0

     negative rho (up, down):  5.916E-03 0.000E+00

     total cpu time spent up to now is        7.0 secs

     total energy              =     -32.03060830 Ry
     Harris-Foulkes estimate   =     -33.25010246 Ry
     estimated scf accuracy    <       4.06227916 Ry

     iteration #  4     ecut=    30.00 Ry     beta=0.70
     Davidson diagonalization with overlap
     ethr =  1.00E-02,  avg # of iterations =  3.0

     negative rho (up, down):  5.520E-03 0.000E+00

     total cpu time spent up to now is        7.0 secs

     total energy              =     -32.52950855 Ry
     Harris-Foulkes estimate   =     -32.19868981 Ry
     estimated scf accuracy    <       2.01187471 Ry

     iteration #  5     ecut=    30.00 Ry     beta=0.70
     Davidson diagonalization with overlap
     ethr =  1.00E-02,  avg # of iterations =  1.0

     negative rho (up, down):  6.476E-03 0.000E+00

     total cpu time spent up to now is        7.0 secs

     total energy              =     -31.38354578 Ry
     Harris-Foulkes estimate   =     -32.53316471 Ry
     estimated scf accuracy    <       2.50464245 Ry

     iteration #  6     ecut=    30.00 Ry     beta=0.70
     Davidson diagonalization with overlap
     ethr =  1.00E-02,  avg # of iterations =  2.0

     negative rho (up, down):  3.234E-02 0.000E+00

     total cpu time spent up to now is        7.1 secs

     total energy              =     -31.99347312 Ry
     Harris-Foulkes estimate   =     -31.94749165 Ry
     estimated scf accuracy    <       2.76454732 Ry

     iteration #  7     ecut=    30.00 Ry     beta=0.70
     Davidson diagonalization with overlap
     ethr =  1.00E-02,  avg # of iterations =  2.0

     negative rho (up, down):  4.746E-03 0.000E+00

     total cpu time spent up to now is        7.1 secs

     total energy              =     -31.55155227 Ry
     Harris-Foulkes estimate   =     -32.84024789 Ry
     estimated scf accuracy    <       3.18333982 Ry

     iteration #  8     ecut=    30.00 Ry     beta=0.70
     Davidson diagonalization with overlap
     ethr =  1.00E-02,  avg # of iterations =  2.0

     negative rho (up, down):  5.225E-03 0.000E+00

     total cpu time spent up to now is        7.1 secs

     total energy              =     -31.88903255 Ry
     Harris-Foulkes estimate   =     -31.75685899 Ry
     estimated scf accuracy    <       2.69759602 Ry

     iteration #  9     ecut=    30.00 Ry     beta=0.70
     Davidson diagonalization with overlap
     ethr =  1.00E-02,  avg # of iterations =  1.0

     negative rho (up, down):  3.296E-03 0.000E+00

     total cpu time spent up to now is        7.2 secs

     total energy              =     -31.44614775 Ry
     Harris-Foulkes estimate   =     -31.89085836 Ry
     estimated scf accuracy    <       2.98761529 Ry

     iteration # 10     ecut=    30.00 Ry     beta=0.70
     Davidson diagonalization with overlap
     ethr =  1.00E-02,  avg # of iterations =  1.0

     negative rho (up, down):  4.992E-04 0.000E+00

     total cpu time spent up to now is        7.2 secs

     total energy              =     -32.14937592 Ry
     Harris-Foulkes estimate   =     -31.58661334 Ry
     estimated scf accuracy    <       1.82059881 Ry

     iteration # 11     ecut=    30.00 Ry     beta=0.70
     Davidson diagonalization with overlap
     ethr =  1.00E-02,  avg # of iterations =  2.0

     negative rho (up, down):  1.875E-02 0.000E+00

     total cpu time spent up to now is        7.2 secs

     total energy              =     -32.72238084 Ry
     Harris-Foulkes estimate   =     -32.45714183 Ry
     estimated scf accuracy    <       4.96055666 Ry

     iteration # 12     ecut=    30.00 Ry     beta=0.70
     Davidson diagonalization with overlap
     ethr =  1.00E-02,  avg # of iterations =  1.0

     negative rho (up, down):  6.251E-04 0.000E+00

     total cpu time spent up to now is        7.3 secs

     total energy              =     -32.52048662 Ry
     Harris-Foulkes estimate   =     -32.73487480 Ry
     estimated scf accuracy    <       5.47398134 Ry

     iteration # 13     ecut=    30.00 Ry     beta=0.70
     Davidson diagonalization with overlap
     ethr =  1.00E-02,  avg # of iterations =  1.0

     negative rho (up, down):  2.126E-03 0.000E+00

     total cpu time spent up to now is        7.3 secs

     total energy              =     -32.38695233 Ry
     Harris-Foulkes estimate   =     -32.52594501 Ry
     estimated scf accuracy    <       5.17335804 Ry

     iteration # 14     ecut=    30.00 Ry     beta=0.70
     Davidson diagonalization with overlap
     ethr =  1.00E-02,  avg # of iterations =  1.0

     negative rho (up, down):  2.326E-03 0.000E+00

     total cpu time spent up to now is        7.3 secs

     total energy              =     -32.42650643 Ry
     Harris-Foulkes estimate   =     -32.38936856 Ry
     estimated scf accuracy    <       4.91473223 Ry

     iteration # 15     ecut=    30.00 Ry     beta=0.70
     Davidson diagonalization with overlap
     ethr =  1.00E-02,  avg # of iterations =  1.0

     negative rho (up, down):  2.420E-03 0.000E+00

     total cpu time spent up to now is        7.4 secs

     total energy              =     -32.54585566 Ry
     Harris-Foulkes estimate   =     -32.42712731 Ry
     estimated scf accuracy    <       4.96964965 Ry

     iteration # 16     ecut=    30.00 Ry     beta=0.70
     Davidson diagonalization with overlap
     ethr =  1.00E-02,  avg # of iterations =  1.0

     negative rho (up, down):  3.232E-03 0.000E+00

     total cpu time spent up to now is        7.4 secs

     total energy              =     -32.64156175 Ry
     Harris-Foulkes estimate   =     -32.54622295 Ry
     estimated scf accuracy    <       5.17257292 Ry

     iteration # 17     ecut=    30.00 Ry     beta=0.70
     Davidson diagonalization with overlap
     ethr =  1.00E-02,  avg # of iterations =  1.0

     negative rho (up, down):  2.350E-02 0.000E+00

     total cpu time spent up to now is        7.4 secs

     total energy              =     -30.75588734 Ry
     Harris-Foulkes estimate   =     -32.64199395 Ry
     estimated scf accuracy    <       5.36209917 Ry

     iteration # 18     ecut=    30.00 Ry     beta=0.70
     Davidson diagonalization with overlap
     ethr =  1.00E-02,  avg # of iterations =  2.0

     negative rho (up, down):  7.147E-03 0.000E+00

     total cpu time spent up to now is        7.5 secs

     total energy              =     -32.07218080 Ry
     Harris-Foulkes estimate   =     -32.19361754 Ry
     estimated scf accuracy    <       3.52720268 Ry

     iteration # 19     ecut=    30.00 Ry     beta=0.70
     Davidson diagonalization with overlap
     ethr =  1.00E-02,  avg # of iterations =  1.0

     negative rho (up, down):  3.381E-04 0.000E+00

     total cpu time spent up to now is        7.5 secs

     total energy              =     -31.68481016 Ry
     Harris-Foulkes estimate   =     -32.07323543 Ry
     estimated scf accuracy    <       3.38393837 Ry

     iteration # 20     ecut=    30.00 Ry     beta=0.70
     Davidson diagonalization with overlap
     ethr =  1.00E-02,  avg # of iterations =  1.0

     negative rho (up, down):  9.779E-05 0.000E+00

     total cpu time spent up to now is        7.5 secs

     total energy              =     -31.44418183 Ry
     Harris-Foulkes estimate   =     -31.69113275 Ry
     estimated scf accuracy    <       2.70381641 Ry

     iteration # 21     ecut=    30.00 Ry     beta=0.70
     Davidson diagonalization with overlap
     ethr =  1.00E-02,  avg # of iterations =  1.0

     negative rho (up, down):  8.693E-05 0.000E+00

     total cpu time spent up to now is        7.6 secs

     total energy              =     -31.46382708 Ry
     Harris-Foulkes estimate   =     -31.50663232 Ry
     estimated scf accuracy    <       0.63220177 Ry

     iteration # 22     ecut=    30.00 Ry     beta=0.70
     Davidson diagonalization with overlap
     ethr =  7.90E-03,  avg # of iterations =  1.0

     negative rho (up, down):  1.196E-04 0.000E+00

     total cpu time spent up to now is        7.6 secs

     total energy              =     -31.32710723 Ry
     Harris-Foulkes estimate   =     -31.51556138 Ry
     estimated scf accuracy    <       1.18914226 Ry

     iteration # 23     ecut=    30.00 Ry     beta=0.70
     Davidson diagonalization with overlap
     ethr =  7.90E-03,  avg # of iterations =  1.0

     negative rho (up, down):  7.624E-06 0.000E+00

     total cpu time spent up to now is        7.6 secs

     total energy              =     -31.55879658 Ry
     Harris-Foulkes estimate   =     -31.73829421 Ry
     estimated scf accuracy    <       3.74373972 Ry

     iteration # 24     ecut=    30.00 Ry     beta=0.70
     Davidson diagonalization with overlap
     ethr =  7.90E-03,  avg # of iterations =  1.0

     negative rho (up, down):  4.373E-05 0.000E+00

     total cpu time spent up to now is        7.7 secs

     total energy              =     -31.70973574 Ry
     Harris-Foulkes estimate   =     -31.65822297 Ry
     estimated scf accuracy    <       1.24313921 Ry

     iteration # 25     ecut=    30.00 Ry     beta=0.70
     Davidson diagonalization with overlap
     ethr =  7.90E-03,  avg # of iterations =  1.0

     negative rho (up, down):  5.580E-04 0.000E+00

     total cpu time spent up to now is        7.7 secs

     total energy              =     -31.72932341 Ry
     Harris-Foulkes estimate   =     -31.71026808 Ry
     estimated scf accuracy    <       1.32398833 Ry

     iteration # 26     ecut=    30.00 Ry     beta=0.70
     Davidson diagonalization with overlap
     ethr =  7.90E-03,  avg # of iterations =  1.0

     negative rho (up, down):  4.999E-04 0.000E+00

     total cpu time spent up to now is        7.7 secs

     total energy              =     -31.73040758 Ry
     Harris-Foulkes estimate   =     -31.73048883 Ry
     estimated scf accuracy    <       1.43481592 Ry

     iteration # 27     ecut=    30.00 Ry     beta=0.70
     Davidson diagonalization with overlap
     ethr =  7.90E-03,  avg # of iterations =  1.0

     negative rho (up, down):  6.778E-04 0.000E+00

     total cpu time spent up to now is        7.8 secs

     total energy              =     -31.72927822 Ry
     Harris-Foulkes estimate   =     -31.73002367 Ry
     estimated scf accuracy    <       1.34972931 Ry

     iteration # 28     ecut=    30.00 Ry     beta=0.70
     Davidson diagonalization with overlap
     ethr =  7.90E-03,  avg # of iterations =  1.0

     negative rho (up, down):  6.396E-04 0.000E+00

     total cpu time spent up to now is        7.8 secs

     total energy              =     -31.71812751 Ry
     Harris-Foulkes estimate   =     -31.72820144 Ry
     estimated scf accuracy    <       1.47682310 Ry

     iteration # 29     ecut=    30.00 Ry     beta=0.70
     Davidson diagonalization with overlap
     ethr =  7.90E-03,  avg # of iterations =  1.0

     negative rho (up, down):  1.144E-03 0.000E+00

     total cpu time spent up to now is        7.8 secs

     total energy              =     -31.70483248 Ry
     Harris-Foulkes estimate   =     -31.71695316 Ry
     estimated scf accuracy    <       1.32358923 Ry

     iteration # 30     ecut=    30.00 Ry     beta=0.70
     Davidson diagonalization with overlap
     ethr =  7.90E-03,  avg # of iterations =  1.0

     negative rho (up, down):  3.008E-04 0.000E+00

     total cpu time spent up to now is        7.9 secs

     total energy              =     -31.61217351 Ry
     Harris-Foulkes estimate   =     -31.70598533 Ry
     estimated scf accuracy    <       1.31061653 Ry

     iteration # 31     ecut=    30.00 Ry     beta=0.70
     Davidson diagonalization with overlap
     ethr =  7.90E-03,  avg # of iterations =  1.0

     negative rho (up, down):  4.371E-03 0.000E+00

     total cpu time spent up to now is        7.9 secs

     total energy              =     -31.81993783 Ry
     Harris-Foulkes estimate   =     -31.75394458 Ry
     estimated scf accuracy    <       3.81554322 Ry

     iteration # 32     ecut=    30.00 Ry     beta=0.70
     Davidson diagonalization with overlap
     ethr =  7.90E-03,  avg # of iterations =  1.0

     negative rho (up, down):  1.469E-02 0.000E+00

     total cpu time spent up to now is        7.9 secs

     total energy              =     -32.25141080 Ry
     Harris-Foulkes estimate   =     -31.82013567 Ry
     estimated scf accuracy    <       3.89929435 Ry

     iteration # 33     ecut=    30.00 Ry     beta=0.70
     Davidson diagonalization with overlap
     ethr =  7.90E-03,  avg # of iterations =  1.0

     negative rho (up, down):  7.694E-03 0.000E+00

     total cpu time spent up to now is        8.0 secs

     total energy              =     -31.59282611 Ry
     Harris-Foulkes estimate   =     -32.25750200 Ry
     estimated scf accuracy    <       4.65212352 Ry

     iteration # 34     ecut=    30.00 Ry     beta=0.70
     Davidson diagonalization with overlap
     ethr =  7.90E-03,  avg # of iterations =  1.0

     negative rho (up, down):  1.133E-02 0.000E+00

     total cpu time spent up to now is        8.0 secs

     total energy              =     -31.99357764 Ry
     Harris-Foulkes estimate   =     -31.61592558 Ry
     estimated scf accuracy    <       1.37457157 Ry

     iteration # 35     ecut=    30.00 Ry     beta=0.70
     Davidson diagonalization with overlap
     ethr =  7.90E-03,  avg # of iterations =  1.0

     negative rho (up, down):  1.901E-02 0.000E+00

     total cpu time spent up to now is        8.0 secs

     total energy              =     -32.57130659 Ry
     Harris-Foulkes estimate   =     -32.36171595 Ry
     estimated scf accuracy    <       4.76610447 Ry

     iteration # 36     ecut=    30.00 Ry     beta=0.70
     Davidson diagonalization with overlap
     ethr =  7.90E-03,  avg # of iterations =  1.0

     negative rho (up, down):  2.825E-03 0.000E+00

     total cpu time spent up to now is        8.1 secs

     total energy              =     -32.40359296 Ry
     Harris-Foulkes estimate   =     -32.57633375 Ry
     estimated scf accuracy    <       5.20554752 Ry

     iteration # 37     ecut=    30.00 Ry     beta=0.70
     Davidson diagonalization with overlap
     ethr =  7.90E-03,  avg # of iterations =  1.0

     negative rho (up, down):  2.641E-02 0.000E+00

     total cpu time spent up to now is        8.1 secs

     total energy              =     -29.52699803 Ry
     Harris-Foulkes estimate   =     -32.41357790 Ry
     estimated scf accuracy    <       4.94953077 Ry

     iteration # 38     ecut=    30.00 Ry     beta=0.70
     Davidson diagonalization with overlap
     ethr =  7.90E-03,  avg # of iterations =  3.0

     negative rho (up, down):  3.243E-04 0.000E+00

     total cpu time spent up to now is        8.1 secs

     total energy              =     -32.98349695 Ry
     Harris-Foulkes estimate   =     -34.26338661 Ry
     estimated scf accuracy    <       6.91333217 Ry

     iteration # 39     ecut=    30.00 Ry     beta=0.70
     Davidson diagonalization with overlap
     ethr =  7.90E-03,  avg # of iterations =  2.0

     total cpu time spent up to now is        8.2 secs

     total energy              =     -31.72630493 Ry
     Harris-Foulkes estimate   =     -33.02302875 Ry
     estimated scf accuracy    <       4.95197943 Ry

     iteration # 40     ecut=    30.00 Ry     beta=0.70
     Davidson diagonalization with overlap
     ethr =  7.90E-03,  avg # of iterations =  1.0

     total cpu time spent up to now is        8.2 secs

     total energy              =     -31.69621024 Ry
     Harris-Foulkes estimate   =     -31.76827967 Ry
     estimated scf accuracy    <       2.80086836 Ry

     iteration # 41     ecut=    30.00 Ry     beta=0.70
[...]

     total energy              =      94.31217015 Ry
     Harris-Foulkes estimate   =    -423.72693149 Ry
     estimated scf accuracy    <      27.20935457 Ry

     iteration # 59     ecut=    30.00 Ry     beta=0.70
     Davidson diagonalization with overlap
     ethr =  1.00E-02,  avg # of iterations = 12.0

     negative rho (up, down):  7.573E-03 0.000E+00

     total cpu time spent up to now is       17.1 secs

     total energy              =      66.16250483 Ry
     Harris-Foulkes estimate   =    -153.79546431 Ry
     estimated scf accuracy    <      14.90281410 Ry

     iteration # 60     ecut=    30.00 Ry     beta=0.70
     Davidson diagonalization with overlap
     ethr =  1.00E-02,  avg # of iterations =  6.0

     negative rho (up, down):  8.703E-02 0.000E+00

     total cpu time spent up to now is       17.2 secs

     total energy              =     -53.20740283 Ry
     Harris-Foulkes estimate   =     -58.60784691 Ry
     estimated scf accuracy    <      37.53239675 Ry

     iteration # 61     ecut=    30.00 Ry     beta=0.70
     Davidson diagonalization with overlap
     ethr =  1.00E-02,  avg # of iterations =  6.0

     negative rho (up, down):  1.058E-01 0.000E+00

     total cpu time spent up to now is       17.2 secs

     total energy              =     -28.66310203 Ry
     Harris-Foulkes estimate   =     -82.12486012 Ry
     estimated scf accuracy    <      19.04174966 Ry

     iteration # 62     ecut=    30.00 Ry     beta=0.70
     Davidson diagonalization with overlap
     ethr =  1.00E-02,  avg # of iterations =  4.0

     negative rho (up, down):  8.153E-03 0.000E+00

     total cpu time spent up to now is       17.3 secs

     total energy              =      35.01544873 Ry
     Harris-Foulkes estimate   =    -410.56778701 Ry
     estimated scf accuracy    <      17.28068240 Ry

     iteration # 63     ecut=    30.00 Ry     beta=0.70
     Davidson diagonalization with overlap
     ethr =  1.00E-02,  avg # of iterations =  4.0

     negative rho (up, down):  5.271E-02 0.000E+00

     total cpu time spent up to now is       17.3 secs

     total energy              =      -7.04733973 Ry
     Harris-Foulkes estimate   =   -1673.11505832 Ry
     estimated scf accuracy    <      14.31178191 Ry

     iteration # 64     ecut=    30.00 Ry     beta=0.70
     Davidson diagonalization with overlap
     ethr =  1.00E-02,  avg # of iterations =  4.0

     negative rho (up, down):  7.852E-02 0.000E+00

     total cpu time spent up to now is       17.3 secs

     total energy              =     -22.67255671 Ry
     Harris-Foulkes estimate   =     -73.46698985 Ry
     estimated scf accuracy    <      12.54603021 Ry

     iteration # 65     ecut=    30.00 Ry     beta=0.70
     Davidson diagonalization with overlap
     ethr =  1.00E-02,  avg # of iterations =  8.0

     negative rho (up, down):  4.780E-02 0.000E+00

     total cpu time spent up to now is       17.4 secs

     total energy              =      95.70756869 Ry
     Harris-Foulkes estimate   =    -258.21513196 Ry
     estimated scf accuracy    <      43.49334487 Ry

     iteration # 66     ecut=    30.00 Ry     beta=0.70
     Davidson diagonalization with overlap
     ethr =  1.00E-02,  avg # of iterations =  9.0

     negative rho (up, down):  1.592E-05 0.000E+00

     total cpu time spent up to now is       17.4 secs

     total energy              =      33.09848309 Ry
     Harris-Foulkes estimate   =    -203.09684876 Ry
     estimated scf accuracy    <      12.75940585 Ry

     iteration # 67     ecut=    30.00 Ry     beta=0.70
     Davidson diagonalization with overlap
     ethr =  1.00E-02,  avg # of iterations =  4.0

     negative rho (up, down):  1.719E-02 0.000E+00

     total cpu time spent up to now is       17.5 secs

     total energy              =     -46.49908565 Ry
     Harris-Foulkes estimate   =     -50.22364078 Ry
     estimated scf accuracy    <      27.12163196 Ry

     iteration # 68     ecut=    30.00 Ry     beta=0.70
     Davidson diagonalization with overlap
     ethr =  1.00E-02,  avg # of iterations =  6.0

     negative rho (up, down):  1.219E-04 0.000E+00

     total cpu time spent up to now is       17.5 secs

     total energy              =      64.69501374 Ry
     Harris-Foulkes estimate   =    -317.70679355 Ry
     estimated scf accuracy    <      23.73333569 Ry

     iteration # 69     ecut=    30.00 Ry     beta=0.70
     Davidson diagonalization with overlap
     ethr =  1.00E-02,  avg # of iterations =  5.0

     negative rho (up, down):  1.070E-01 0.000E+00

     total cpu time spent up to now is       17.6 secs

     total energy              =     -46.60904744 Ry
     Harris-Foulkes estimate   =     -48.18896124 Ry
     estimated scf accuracy    <      24.49526206 Ry

     iteration # 70     ecut=    30.00 Ry     beta=0.70
     Davidson diagonalization with overlap
     ethr =  1.00E-02,  avg # of iterations =  6.0

     negative rho (up, down):  1.206E-01 0.000E+00

     total cpu time spent up to now is       17.6 secs

     total energy              =    -250.19151182 Ry
     Harris-Foulkes estimate   =   -1531.00761048 Ry
     estimated scf accuracy    <      34.69187719 Ry

     iteration # 71     ecut=    30.00 Ry     beta=0.70
     Davidson diagonalization with overlap
     ethr =  1.00E-02,  avg # of iterations =  7.0

     negative rho (up, down):  4.448E-03 0.000E+00

     total cpu time spent up to now is       17.7 secs

     total energy              =      62.65198600 Ry
     Harris-Foulkes estimate   =    -663.73618240 Ry
     estimated scf accuracy    <      15.35121038 Ry

     iteration # 72     ecut=    30.00 Ry     beta=0.70
     Davidson diagonalization with overlap
     ethr =  1.00E-02,  avg # of iterations =  9.0

     negative rho (up, down):  1.264E-01 0.000E+00

     total cpu time spent up to now is       17.7 secs

     total energy              =     -45.79691685 Ry
     Harris-Foulkes estimate   =     -46.80130056 Ry
     estimated scf accuracy    <      22.68262060 Ry

     iteration # 73     ecut=    30.00 Ry     beta=0.70
     Davidson diagonalization with overlap
     ethr =  1.00E-02,  avg # of iterations =  5.0

     negative rho (up, down):  1.254E-01 0.000E+00

     total cpu time spent up to now is       17.8 secs

     total energy              =    -181.48245152 Ry
     Harris-Foulkes estimate   =    -224.56581690 Ry
     estimated scf accuracy    <      14.78959677 Ry

     iteration # 74     ecut=    30.00 Ry     beta=0.70
     Davidson diagonalization with overlap
     ethr =  1.00E-02,  avg # of iterations =  9.0

     negative rho (up, down):  2.461E-01 0.000E+00

     total cpu time spent up to now is       17.8 secs

     total energy              =      75.33009614 Ry
     Harris-Foulkes estimate   =    -394.63439409 Ry
     estimated scf accuracy    <      43.80342091 Ry

     iteration # 75     ecut=    30.00 Ry     beta=0.70
     Davidson diagonalization with overlap
     ethr =  1.00E-02,  avg # of iterations =  8.0

     negative rho (up, down):  2.104E-01 0.000E+00

     total cpu time spent up to now is       17.9 secs

     total energy              =      32.78352252 Ry
     Harris-Foulkes estimate   =    -124.52648478 Ry
     estimated scf accuracy    <      36.23701747 Ry

     iteration # 76     ecut=    30.00 Ry     beta=0.70
     Davidson diagonalization with overlap
     ethr =  1.00E-02,  avg # of iterations =  7.0

     negative rho (up, down):  2.177E-01 0.000E+00

     total cpu time spent up to now is       17.9 secs

     total energy              =     -51.53313508 Ry
     Harris-Foulkes estimate   =    -484.30047882 Ry
     estimated scf accuracy    <      37.75997029 Ry

     iteration # 77     ecut=    30.00 Ry     beta=0.70
     Davidson diagonalization with overlap
     ethr =  1.00E-02,  avg # of iterations =  5.0

     negative rho (up, down):  1.584E-01 0.000E+00

     total cpu time spent up to now is       18.0 secs

     total energy              =      95.64950347 Ry
     Harris-Foulkes estimate   =    -710.23701694 Ry
     estimated scf accuracy    <      42.67605807 Ry

     iteration # 78     ecut=    30.00 Ry     beta=0.70
     Davidson diagonalization with overlap
     ethr =  1.00E-02,  avg # of iterations = 12.0

     negative rho (up, down):  2.638E-01 0.000E+00

     total cpu time spent up to now is       18.0 secs

     total energy              =    -699.21981685 Ry
     Harris-Foulkes estimate   =    -456.63673266 Ry
     estimated scf accuracy    <      30.31870713 Ry

     iteration # 79     ecut=    30.00 Ry     beta=0.70
     Davidson diagonalization with overlap
     ethr =  1.00E-02,  avg # of iterations =  6.0

     negative rho (up, down):  3.070E-01 0.000E+00

     total cpu time spent up to now is       18.1 secs

     total energy              =   -1343.88155800 Ry
     Harris-Foulkes estimate   =   -4090.92404530 Ry
     estimated scf accuracy    <      46.44256785 Ry

     iteration # 80     ecut=    30.00 Ry     beta=0.70
     Davidson diagonalization with overlap
     ethr =  1.00E-02,  avg # of iterations =  9.0

     negative rho (up, down):  3.340E-01 0.000E+00

     total cpu time spent up to now is       18.1 secs

     total energy              =     -34.74758655 Ry
     Harris-Foulkes estimate   =   -6942.63316934 Ry
     estimated scf accuracy    <      48.65483885 Ry

     iteration # 81     ecut=    30.00 Ry     beta=0.70
     Davidson diagonalization with overlap
     ethr =  1.00E-02,  avg # of iterations =  6.0

     negative rho (up, down):  1.066E+00 0.000E+00

     total cpu time spent up to now is       18.2 secs

     total energy              =    1074.85304632 Ry
     Harris-Foulkes estimate   =   -7300.72659735 Ry
     estimated scf accuracy    <      37.61955729 Ry

     iteration # 82     ecut=    30.00 Ry     beta=0.70
     Davidson diagonalization with overlap
     ethr =  1.00E-02,  avg # of iterations =  7.0

     negative rho (up, down):  1.117E+00 0.000E+00

     total cpu time spent up to now is       18.2 secs

     total energy              =    -431.01430534 Ry
     Harris-Foulkes estimate   =   -6978.09121150 Ry
     estimated scf accuracy    <      33.93961212 Ry

     iteration # 83     ecut=    30.00 Ry     beta=0.70
     Davidson diagonalization with overlap
     ethr =  1.00E-02,  avg # of iterations =  7.0

     negative rho (up, down):  1.380E+00 0.000E+00

     total cpu time spent up to now is       18.3 secs

     total energy              =    -326.73515487 Ry
     Harris-Foulkes estimate   =   -2941.82233777 Ry
     estimated scf accuracy    <      41.73911032 Ry

     iteration # 84     ecut=    30.00 Ry     beta=0.70
     Davidson diagonalization with overlap
     ethr =  1.00E-02,  avg # of iterations =  8.0

     negative rho (up, down):  2.006E+00 0.000E+00

     total cpu time spent up to now is       18.3 secs

     total energy              =      54.09594925 Ry
     Harris-Foulkes estimate   =   -7407.41895009 Ry
     estimated scf accuracy    <      32.54464442 Ry

     iteration # 85     ecut=    30.00 Ry     beta=0.70
     Davidson diagonalization with overlap
     ethr =  1.00E-02,  avg # of iterations =  8.0

     negative rho (up, down):  1.610E+00 0.000E+00

     total cpu time spent up to now is       18.4 secs

     total energy              =      90.35367748 Ry
     Harris-Foulkes estimate   =   -1322.49567090 Ry
     estimated scf accuracy    <      25.37528984 Ry

     iteration # 86     ecut=    30.00 Ry     beta=0.70
     Davidson diagonalization with overlap
     ethr =  1.00E-02,  avg # of iterations =  7.0

     negative rho (up, down):  1.563E+00 0.000E+00

     total cpu time spent up to now is       18.5 secs

     total energy              =    -332.88831384 Ry
     Harris-Foulkes estimate   =  -26433.18829726 Ry
     estimated scf accuracy    <      21.87017321 Ry

     iteration # 87     ecut=    30.00 Ry     beta=0.70
     Davidson diagonalization with overlap
     ethr =  1.00E-02,  avg # of iterations =  8.0

     negative rho (up, down):  9.855E-01 0.000E+00

     total cpu time spent up to now is       18.5 secs

     total energy              =     136.41785336 Ry
     Harris-Foulkes estimate   =  -15429.83837412 Ry
     estimated scf accuracy    <      32.28826685 Ry

     iteration # 88     ecut=    30.00 Ry     beta=0.70
     Davidson diagonalization with overlap
     ethr =  1.00E-02,  avg # of iterations = 12.0

     negative rho (up, down):  5.795E-01 0.000E+00

     total cpu time spent up to now is       18.6 secs

     total energy              =      30.17030871 Ry
     Harris-Foulkes estimate   =    -946.94534783 Ry
     estimated scf accuracy    <      26.41721237 Ry

     iteration # 89     ecut=    30.00 Ry     beta=0.70
     Davidson diagonalization with overlap
     ethr =  1.00E-02,  avg # of iterations =  6.0

     negative rho (up, down):  1.348E-01 0.000E+00

     total cpu time spent up to now is       18.6 secs

     total energy              =     -57.36850920 Ry
     Harris-Foulkes estimate   =     -69.10187795 Ry
     estimated scf accuracy    <      50.06942857 Ry

     iteration # 90     ecut=    30.00 Ry     beta=0.70
     Davidson diagonalization with overlap
     ethr =  1.00E-02,  avg # of iterations =  5.0

     negative rho (up, down):  1.558E-01 0.000E+00

     total cpu time spent up to now is       18.7 secs

     total energy              =     -17.19636731 Ry
     Harris-Foulkes estimate   =    -482.64485300 Ry
     estimated scf accuracy    <      13.59293382 Ry

     iteration # 91     ecut=    30.00 Ry     beta=0.70
     Davidson diagonalization with overlap
     ethr =  1.00E-02,  avg # of iterations =  5.0

     negative rho (up, down):  1.558E-01 0.000E+00

     total cpu time spent up to now is       18.7 secs

     total energy              =      11.67883331 Ry
     Harris-Foulkes estimate   =   -1589.01622278 Ry
     estimated scf accuracy    <      14.14056431 Ry

     iteration # 92     ecut=    30.00 Ry     beta=0.70
     Davidson diagonalization with overlap
     ethr =  1.00E-02,  avg # of iterations = 13.0

     negative rho (up, down):  2.281E-01 0.000E+00

     total cpu time spent up to now is       18.8 secs

     total energy              =    4669.29857713 Ry
     Harris-Foulkes estimate   =   -1563.29528279 Ry
     estimated scf accuracy    <      29.20146718 Ry

     iteration # 93     ecut=    30.00 Ry     beta=0.70
     Davidson diagonalization with overlap
     ethr =  1.00E-02,  avg # of iterations =  9.0

     negative rho (up, down):  2.074E-01 0.000E+00

     total cpu time spent up to now is       18.8 secs

     total energy              =    -744.42185180 Ry
     Harris-Foulkes estimate   =   -7633.76784413 Ry
     estimated scf accuracy    <      26.20875261 Ry

     iteration # 94     ecut=    30.00 Ry     beta=0.70
     Davidson diagonalization with overlap
     ethr =  1.00E-02,  avg # of iterations = 10.0

     negative rho (up, down):  2.408E-01 0.000E+00

     total cpu time spent up to now is       18.9 secs

     total energy              =      93.64291275 Ry
     Harris-Foulkes estimate   =   -7203.31461288 Ry
     estimated scf accuracy    <      25.14464490 Ry

     iteration # 95     ecut=    30.00 Ry     beta=0.70
     Davidson diagonalization with overlap
     ethr =  1.00E-02,  avg # of iterations = 10.0

     negative rho (up, down):  2.487E-01 0.000E+00

     total cpu time spent up to now is       18.9 secs

     total energy              =      45.34959920 Ry
     Harris-Foulkes estimate   =    -494.58876028 Ry
     estimated scf accuracy    <      20.62366342 Ry

     iteration # 96     ecut=    30.00 Ry     beta=0.70
     Davidson diagonalization with overlap
     ethr =  1.00E-02,  avg # of iterations = 10.0

     negative rho (up, down):  7.572E-03 0.000E+00

     total cpu time spent up to now is       19.0 secs

     total energy              =     120.40386154 Ry
     Harris-Foulkes estimate   =    -751.97981232 Ry
     estimated scf accuracy    <      36.05884320 Ry

     iteration # 97     ecut=    30.00 Ry     beta=0.70
     Davidson diagonalization with overlap
     ethr =  1.00E-02,  avg # of iterations =  9.0

     negative rho (up, down):  1.808E-02 0.000E+00

     total cpu time spent up to now is       19.0 secs

     total energy              =     -52.40317972 Ry
     Harris-Foulkes estimate   =     -58.58681316 Ry
     estimated scf accuracy    <      37.40850547 Ry

     iteration # 98     ecut=    30.00 Ry     beta=0.70
     Davidson diagonalization with overlap
     ethr =  1.00E-02,  avg # of iterations =  6.0

     total cpu time spent up to now is       19.1 secs

     total energy              =      36.80561972 Ry
     Harris-Foulkes estimate   =    -244.67608061 Ry
     estimated scf accuracy    <      12.19243376 Ry

     iteration # 99     ecut=    30.00 Ry     beta=0.70
     Davidson diagonalization with overlap
     ethr =  1.00E-02,  avg # of iterations =  5.0

     negative rho (up, down):  4.247E-03 0.000E+00

     total cpu time spent up to now is       19.1 secs

     total energy              =      -5.20900438 Ry
     Harris-Foulkes estimate   =    -134.70355868 Ry
     estimated scf accuracy    <      14.40090354 Ry

     iteration #100     ecut=    30.00 Ry     beta=0.70
     Davidson diagonalization with overlap
     ethr =  1.00E-02,  avg # of iterations =  7.0

     negative rho (up, down):  6.219E-02 0.000E+00

     total cpu time spent up to now is       19.2 secs

     total energy              =     -23.11846634 Ry
     Harris-Foulkes estimate   =     -65.32823835 Ry
     estimated scf accuracy    <      18.66164987 Ry

     End of self-consistent calculation

     convergence NOT achieved after 100 iterations: stopping

     Writing output data file pwscf.save
 
     init_run     :      0.09s CPU      0.11s WALL (       1 calls)
     electrons    :     11.81s CPU     15.92s WALL (      12 calls)
     update_pot   :      1.37s CPU      2.07s WALL (      11 calls)
     forces       :      0.29s CPU      0.30s WALL (      11 calls)

     Called by init_run:
     wfcinit      :      0.01s CPU      0.02s WALL (       1 calls)
     potinit      :      0.03s CPU      0.03s WALL (       1 calls)

     Called by electrons:
     c_bands      :      5.31s CPU      5.95s WALL (     369 calls)
     sum_band     :      1.08s CPU      1.16s WALL (     369 calls)
     v_of_rho     :      2.67s CPU      3.02s WALL (     381 calls)
     mix_rho      :      2.29s CPU      4.24s WALL (     369 calls)

     Called by c_bands:
     init_us_2    :      0.03s CPU      0.04s WALL (     739 calls)
     cegterg      :      5.22s CPU      5.74s WALL (     369 calls)

     Called by sum_band:

     Called by *egterg:
     h_psi        :      4.39s CPU      4.81s WALL (    1623 calls)
     g_psi        :      0.04s CPU      0.04s WALL (    1253 calls)
     cdiaghg      :      0.30s CPU      0.34s WALL (    1611 calls)

     Called by h_psi:
     h_psi:pot    :      4.37s CPU      4.78s WALL (    1623 calls)
     h_psi:calbec :      0.09s CPU      0.31s WALL (    1623 calls)
     vloc_psi     :      4.25s CPU      4.45s WALL (    1623 calls)
     add_vuspsi   :      0.01s CPU      0.01s WALL (    1623 calls)

     General routines
     calbec       :      0.16s CPU      0.42s WALL (    1677 calls)
     fft          :      1.71s CPU      1.94s WALL (    4213 calls)
     fftw         :      4.52s CPU      4.75s WALL (   20108 calls)
     davcio       :      0.36s CPU      1.62s WALL (    6325 calls)
 
     Parallel routines
     fft_scatter  :      2.37s CPU      2.68s WALL (   24321 calls)
 
     PWSCF        :    13.90s CPU        19.27s WALL

 
   This run was terminated on:   0:12:16  11Feb2018            

=------------------------------------------------------------------------------=
   JOB DONE.
=------------------------------------------------------------------------------=
