
     Program PWSCF v.6.0 (svn rev. 13079) starts on 11Feb2018 at  0:21:25 

     This program is part of the open-source Quantum ESPRESSO suite
     for quantum simulation of materials; please cite
         "P. Giannozzi et al., J. Phys.:Condens. Matter 21 395502 (2009);
          URL http://www.quantum-espresso.org", 
     in publications or presentations arising from this work. More details at
     http://www.quantum-espresso.org/quote

     Parallel version (MPI), running on    28 processors
     R & G space division:  proc/nbgrp/npool/nimage =      28
     Reading input from inputs/water-1-md/173.in

     Current dimensions of program PWSCF are:
     Max number of different atomic species (ntypx) = 10
     Max number of k-points (npk) =  40000
     Max angular momentum in pseudopotentials (lmaxx) =  3

     Subspace diagonalization in iterative solution of the eigenvalue problem:
     a serial algorithm will be used

 
     Parallelization info
     --------------------
     sticks:   dense  smooth     PW     G-vecs:    dense   smooth      PW
     Min         136     136     33                 6338     6338     787
     Max         137     137     34                 6341     6341     792
     Sum        3809    3809    949               177509   177509   22119
 


     bravais-lattice index     =            1
     lattice parameter (alat)  =      20.0000  a.u.
     unit-cell volume          =    8000.0000 (a.u.)^3
     number of atoms/cell      =            3
     number of atomic types    =            2
     number of electrons       =         8.00
     number of Kohn-Sham states=            8
     kinetic-energy cutoff     =      30.0000  Ry
     charge density cutoff     =     120.0000  Ry
     convergence threshold     =      1.0E-08
     mixing beta               =       0.7000
     number of iterations used =            8  plain     mixing
     Exchange-correlation      = BLYP ( 1  3  1  3 0 0)
     nstep                     =         5000


     celldm(1)=  20.000000  celldm(2)=   0.000000  celldm(3)=   0.000000
     celldm(4)=   0.000000  celldm(5)=   0.000000  celldm(6)=   0.000000

     crystal axes: (cart. coord. in units of alat)
               a(1) = (   1.000000   0.000000   0.000000 )  
               a(2) = (   0.000000   1.000000   0.000000 )  
               a(3) = (   0.000000   0.000000   1.000000 )  

     reciprocal axes: (cart. coord. in units 2 pi/alat)
               b(1) = (  1.000000  0.000000  0.000000 )  
               b(2) = (  0.000000  1.000000  0.000000 )  
               b(3) = (  0.000000  0.000000  1.000000 )  


     PseudoPot. # 1 for  H read from file:
     ./H.blyp-hgh.UPF
     MD5 check sum: c576e69559cde411e611be972c763230
     Pseudo is Norm-conserving, Zval =  1.0
     Generated in analytical, separable form
     Using radial grid of  929 points,  0 beta functions with: 

     PseudoPot. # 2 for  O read from file:
     ./O.blyp-hgh.UPF
     MD5 check sum: d0b7156309aa9befef28faac7bc56342
     Pseudo is Norm-conserving, Zval =  6.0
     Generated in analytical, separable form
     Using radial grid of 1095 points,  1 beta functions with: 
                l(1) =   0

     atomic species   valence    mass     pseudopotential
        H              1.00     1.01000      H( 1.00)
        O              6.00    16.00000      O( 1.00)

     No symmetry found



   Cartesian axes

     site n.     atom                  positions (alat units)
         1           H   tau(   1) = (   0.3834567   0.8233194   0.4534519  )
         2           H   tau(   2) = (   0.8343592   0.5241943   0.5415950  )
         3           O   tau(   3) = (   0.3490115   0.0335334   0.0579579  )

     number of k points=     1  Marzari-Vanderbilt smearing, width (Ry)=  0.0250
                       cart. coord. in units 2pi/alat
        k(    1) = (   0.0000000   0.0000000   0.0000000), wk =   2.0000000

     Dense  grid:   177509 G-vectors     FFT dimensions: (  72,  72,  72)

     Estimated max dynamical RAM per process >       6.09Mb

     Estimated total allocated dynamical RAM >     170.64Mb

     Initial potential from superposition of free atoms
     Check: negative starting charge=   -0.349784

     starting charge    7.99998, renormalised to    8.00000

     negative rho (up, down):  3.498E-01 0.000E+00
     Starting wfc are    6 randomized atomic wfcs +    2 random wfc

     total cpu time spent up to now is        0.2 secs

     per-process dynamical memory:    18.8 Mb

     Self-consistent Calculation

     iteration #  1     ecut=    30.00 Ry     beta=0.70
     Davidson diagonalization with overlap
     ethr =  1.00E-02,  avg # of iterations =  8.0

     negative rho (up, down):  8.408E-02 0.000E+00

     total cpu time spent up to now is        0.3 secs

     total energy              =     -28.04960079 Ry
     Harris-Foulkes estimate   =     -32.08224072 Ry
     estimated scf accuracy    <       4.62593689 Ry

     iteration #  2     ecut=    30.00 Ry     beta=0.70
     Davidson diagonalization with overlap
     ethr =  1.00E-02,  avg # of iterations =  4.0

     negative rho (up, down):  6.159E-02 0.000E+00

     total cpu time spent up to now is        0.3 secs

     total energy              =     -32.66613801 Ry
     Harris-Foulkes estimate   =     -37.99911972 Ry
     estimated scf accuracy    <      12.98642205 Ry

     iteration #  3     ecut=    30.00 Ry     beta=0.70
     Davidson diagonalization with overlap
     ethr =  1.00E-02,  avg # of iterations =  4.0

     negative rho (up, down):  6.353E-02 0.000E+00

     total cpu time spent up to now is        0.3 secs

     total energy              =     -33.21656732 Ry
     Harris-Foulkes estimate   =     -33.00585139 Ry
     estimated scf accuracy    <       5.03502245 Ry

     iteration #  4     ecut=    30.00 Ry     beta=0.70
     Davidson diagonalization with overlap
     ethr =  1.00E-02,  avg # of iterations =  1.0

     negative rho (up, down):  2.529E-02 0.000E+00

     total cpu time spent up to now is        0.4 secs

     total energy              =     -30.17980156 Ry
     Harris-Foulkes estimate   =     -33.21713009 Ry
     estimated scf accuracy    <       5.34406650 Ry

     iteration #  5     ecut=    30.00 Ry     beta=0.70
     Davidson diagonalization with overlap
     ethr =  1.00E-02,  avg # of iterations =  7.0

     negative rho (up, down):  2.218E-02 0.000E+00

     total cpu time spent up to now is        0.4 secs

     total energy              =     -33.29202300 Ry
     Harris-Foulkes estimate   =     -33.35472958 Ry
     estimated scf accuracy    <      13.98303341 Ry

     iteration #  6     ecut=    30.00 Ry     beta=0.70
     Davidson diagonalization with overlap
     ethr =  1.00E-02,  avg # of iterations =  1.0

     negative rho (up, down):  3.183E-02 0.000E+00

     total cpu time spent up to now is        0.4 secs

     total energy              =     -33.04271321 Ry
     Harris-Foulkes estimate   =     -33.29342204 Ry
     estimated scf accuracy    <      13.85604858 Ry

     iteration #  7     ecut=    30.00 Ry     beta=0.70
     Davidson diagonalization with overlap
     ethr =  1.00E-02,  avg # of iterations =  1.0

     negative rho (up, down):  2.137E-02 0.000E+00

     total cpu time spent up to now is        0.5 secs

     total energy              =     -32.44027830 Ry
     Harris-Foulkes estimate   =     -33.06012838 Ry
     estimated scf accuracy    <       9.86568914 Ry

     iteration #  8     ecut=    30.00 Ry     beta=0.70
     Davidson diagonalization with overlap
     ethr =  1.00E-02,  avg # of iterations =  3.0

     negative rho (up, down):  6.301E-03 0.000E+00

     total cpu time spent up to now is        0.5 secs

     total energy              =     -32.32397273 Ry
     Harris-Foulkes estimate   =     -32.58911017 Ry
     estimated scf accuracy    <       5.39715379 Ry

     iteration #  9     ecut=    30.00 Ry     beta=0.70
     Davidson diagonalization with overlap
     ethr =  1.00E-02,  avg # of iterations =  1.0

     negative rho (up, down):  2.896E-03 0.000E+00

     total cpu time spent up to now is        0.5 secs

     total energy              =     -31.66574676 Ry
     Harris-Foulkes estimate   =     -32.32766450 Ry
     estimated scf accuracy    <       4.95450816 Ry

     iteration # 10     ecut=    30.00 Ry     beta=0.70
     Davidson diagonalization with overlap
     ethr =  1.00E-02,  avg # of iterations =  1.0

     negative rho (up, down):  6.595E-03 0.000E+00

     total cpu time spent up to now is        0.6 secs

     total energy              =     -31.68802974 Ry
     Harris-Foulkes estimate   =     -31.67800008 Ry
     estimated scf accuracy    <       3.90390660 Ry

     iteration # 11     ecut=    30.00 Ry     beta=0.70
     Davidson diagonalization with overlap
     ethr =  1.00E-02,  avg # of iterations =  1.0

     negative rho (up, down):  1.323E-03 0.000E+00

     total cpu time spent up to now is        0.6 secs

     total energy              =     -31.75077658 Ry
     Harris-Foulkes estimate   =     -31.68868495 Ry
     estimated scf accuracy    <       3.91328494 Ry

     iteration # 12     ecut=    30.00 Ry     beta=0.70
     Davidson diagonalization with overlap
     ethr =  1.00E-02,  avg # of iterations =  1.0

     negative rho (up, down):  3.276E-03 0.000E+00

     total cpu time spent up to now is        0.6 secs

     total energy              =     -31.47265890 Ry
     Harris-Foulkes estimate   =     -31.75095083 Ry
     estimated scf accuracy    <       4.00468198 Ry

     iteration # 13     ecut=    30.00 Ry     beta=0.70
     Davidson diagonalization with overlap
     ethr =  1.00E-02,  avg # of iterations =  1.0

     negative rho (up, down):  2.016E-01 0.000E+00

     total cpu time spent up to now is        0.7 secs

     total energy              =     -31.34349546 Ry
     Harris-Foulkes estimate   =     -31.48720955 Ry
     estimated scf accuracy    <       0.18681241 Ry

     iteration # 14     ecut=    30.00 Ry     beta=0.70
     Davidson diagonalization with overlap
     ethr =  2.34E-03,  avg # of iterations =  3.0

     negative rho (up, down):  1.122E-02 0.000E+00

     total cpu time spent up to now is        0.7 secs

     total energy              =     -31.69208654 Ry
     Harris-Foulkes estimate   =     -32.31629709 Ry
     estimated scf accuracy    <       4.01812795 Ry

     iteration # 15     ecut=    30.00 Ry     beta=0.70
     Davidson diagonalization with overlap
     ethr =  2.34E-03,  avg # of iterations =  1.0

     negative rho (up, down):  5.776E-04 0.000E+00

     total cpu time spent up to now is        0.8 secs

     total energy              =     -31.47526963 Ry
     Harris-Foulkes estimate   =     -31.69132607 Ry
     estimated scf accuracy    <       2.98826149 Ry

     iteration # 16     ecut=    30.00 Ry     beta=0.70
     Davidson diagonalization with overlap
     ethr =  2.34E-03,  avg # of iterations =  1.0

     negative rho (up, down):  1.545E-03 0.000E+00

     total cpu time spent up to now is        0.8 secs

     total energy              =     -31.49725896 Ry
     Harris-Foulkes estimate   =     -31.49558541 Ry
     estimated scf accuracy    <       0.35670294 Ry

     iteration # 17     ecut=    30.00 Ry     beta=0.70
     Davidson diagonalization with overlap
     ethr =  2.34E-03,  avg # of iterations =  1.0

     negative rho (up, down):  1.550E-03 0.000E+00

     total cpu time spent up to now is        0.8 secs

     total energy              =     -31.57210156 Ry
     Harris-Foulkes estimate   =     -31.49754209 Ry
     estimated scf accuracy    <       0.50968806 Ry

     iteration # 18     ecut=    30.00 Ry     beta=0.70
     Davidson diagonalization with overlap
     ethr =  2.34E-03,  avg # of iterations =  1.0

     negative rho (up, down):  3.793E-04 0.000E+00

     total cpu time spent up to now is        0.8 secs

     total energy              =     -31.50895043 Ry
     Harris-Foulkes estimate   =     -31.66216588 Ry
     estimated scf accuracy    <       2.94960450 Ry

     iteration # 19     ecut=    30.00 Ry     beta=0.70
     Davidson diagonalization with overlap
     ethr =  2.34E-03,  avg # of iterations =  1.0

     negative rho (up, down):  1.412E-04 0.000E+00

     total cpu time spent up to now is        0.9 secs

     total energy              =     -31.47285470 Ry
     Harris-Foulkes estimate   =     -31.51383697 Ry
     estimated scf accuracy    <       1.65576269 Ry

     iteration # 20     ecut=    30.00 Ry     beta=0.70
     Davidson diagonalization with overlap
     ethr =  2.34E-03,  avg # of iterations =  1.0

     negative rho (up, down):  1.982E-04 0.000E+00

     total cpu time spent up to now is        0.9 secs

     total energy              =     -31.50341412 Ry
     Harris-Foulkes estimate   =     -31.49124573 Ry
     estimated scf accuracy    <       0.04168849 Ry

     iteration # 21     ecut=    30.00 Ry     beta=0.70
     Davidson diagonalization with overlap
     ethr =  5.21E-04,  avg # of iterations =  1.0

     negative rho (up, down):  3.955E-04 0.000E+00

     total cpu time spent up to now is        0.9 secs

     total energy              =     -31.43897959 Ry
     Harris-Foulkes estimate   =     -31.73955420 Ry
     estimated scf accuracy    <       3.96059466 Ry

     iteration # 22     ecut=    30.00 Ry     beta=0.70
     Davidson diagonalization with overlap
     ethr =  5.21E-04,  avg # of iterations =  1.0

     negative rho (up, down):  4.433E-04 0.000E+00

     total cpu time spent up to now is        1.0 secs

     total energy              =     -31.49359501 Ry
     Harris-Foulkes estimate   =     -31.49689004 Ry
     estimated scf accuracy    <       0.41264319 Ry

     iteration # 23     ecut=    30.00 Ry     beta=0.70
     Davidson diagonalization with overlap
     ethr =  5.21E-04,  avg # of iterations =  1.0

     negative rho (up, down):  2.740E-04 0.000E+00

     total cpu time spent up to now is        1.0 secs

     total energy              =     -31.49310315 Ry
     Harris-Foulkes estimate   =     -31.49490501 Ry
     estimated scf accuracy    <       0.20789311 Ry

     iteration # 24     ecut=    30.00 Ry     beta=0.70
     Davidson diagonalization with overlap
     ethr =  5.21E-04,  avg # of iterations =  1.0

     negative rho (up, down):  1.412E-04 0.000E+00

     total cpu time spent up to now is        1.0 secs

     total energy              =     -31.53097656 Ry
     Harris-Foulkes estimate   =     -31.50063697 Ry
     estimated scf accuracy    <       0.68264221 Ry

     iteration # 25     ecut=    30.00 Ry     beta=0.70
     Davidson diagonalization with overlap
     ethr =  5.21E-04,  avg # of iterations =  1.0

     negative rho (up, down):  1.829E-03 0.000E+00

     total cpu time spent up to now is        1.1 secs

     total energy              =     -31.59672708 Ry
     Harris-Foulkes estimate   =     -31.56360910 Ry
     estimated scf accuracy    <       3.79468536 Ry

     iteration # 26     ecut=    30.00 Ry     beta=0.70
     Davidson diagonalization with overlap
     ethr =  5.21E-04,  avg # of iterations =  1.0

     negative rho (up, down):  4.177E-04 0.000E+00

     total cpu time spent up to now is        1.1 secs

     total energy              =     -31.46010960 Ry
     Harris-Foulkes estimate   =     -31.59666599 Ry
     estimated scf accuracy    <       4.15428306 Ry

     iteration # 27     ecut=    30.00 Ry     beta=0.70
     Davidson diagonalization with overlap
     ethr =  5.21E-04,  avg # of iterations =  1.0

     negative rho (up, down):  9.867E-05 0.000E+00

     total cpu time spent up to now is        1.1 secs

     total energy              =     -31.48287095 Ry
     Harris-Foulkes estimate   =     -31.50033980 Ry
     estimated scf accuracy    <       0.48432075 Ry

     iteration # 28     ecut=    30.00 Ry     beta=0.70
     Davidson diagonalization with overlap
     ethr =  5.21E-04,  avg # of iterations =  1.0

     negative rho (up, down):  1.679E-05 0.000E+00

     total cpu time spent up to now is        1.2 secs

     total energy              =     -31.45570800 Ry
     Harris-Foulkes estimate   =     -31.53248993 Ry
     estimated scf accuracy    <       2.27565414 Ry

     iteration # 29     ecut=    30.00 Ry     beta=0.70
     Davidson diagonalization with overlap
     ethr =  5.21E-04,  avg # of iterations =  1.0

     negative rho (up, down):  4.792E-07 0.000E+00

     total cpu time spent up to now is        1.2 secs

     total energy              =     -31.49829254 Ry
     Harris-Foulkes estimate   =     -31.49550398 Ry
     estimated scf accuracy    <       0.36329209 Ry

     iteration # 30     ecut=    30.00 Ry     beta=0.70
     Davidson diagonalization with overlap
     ethr =  5.21E-04,  avg # of iterations =  1.0

     negative rho (up, down):  3.349E-08 0.000E+00

     total cpu time spent up to now is        1.2 secs

     total energy              =     -31.47958933 Ry
     Harris-Foulkes estimate   =     -31.50079304 Ry
     estimated scf accuracy    <       0.96962122 Ry

     iteration # 31     ecut=    30.00 Ry     beta=0.70
     Davidson diagonalization with overlap
     ethr =  5.21E-04,  avg # of iterations =  1.0

     negative rho (up, down):  1.725E-07 0.000E+00

     total cpu time spent up to now is        1.3 secs

     total energy              =     -31.49055198 Ry
     Harris-Foulkes estimate   =     -31.49319242 Ry
     estimated scf accuracy    <       0.15748665 Ry

     iteration # 32     ecut=    30.00 Ry     beta=0.70
     Davidson diagonalization with overlap
     ethr =  5.21E-04,  avg # of iterations =  1.0

     negative rho (up, down):  7.199E-07 0.000E+00

     total cpu time spent up to now is        1.3 secs

     total energy              =     -31.49168458 Ry
     Harris-Foulkes estimate   =     -31.49203110 Ry
     estimated scf accuracy    <       0.08759978 Ry

     iteration # 33     ecut=    30.00 Ry     beta=0.70
     Davidson diagonalization with overlap
     ethr =  5.21E-04,  avg # of iterations =  1.0

     negative rho (up, down):  1.702E-07 0.000E+00

     total cpu time spent up to now is        1.3 secs

     total energy              =     -31.49145156 Ry
     Harris-Foulkes estimate   =     -31.49177991 Ry
     estimated scf accuracy    <       0.08690857 Ry

     iteration # 34     ecut=    30.00 Ry     beta=0.70
     Davidson diagonalization with overlap
     ethr =  5.21E-04,  avg # of iterations =  1.0

     total cpu time spent up to now is        1.4 secs

     total energy              =     -31.49139536 Ry
     Harris-Foulkes estimate   =     -31.49155417 Ry
     estimated scf accuracy    <       0.05811370 Ry

     iteration # 35     ecut=    30.00 Ry     beta=0.70
     Davidson diagonalization with overlap
     ethr =  5.21E-04,  avg # of iterations =  1.0

     negative rho (up, down):  4.994E-06 0.000E+00

     total cpu time spent up to now is        1.4 secs

     total energy              =     -31.49127325 Ry
     Harris-Foulkes estimate   =     -31.49143564 Ry
     estimated scf accuracy    <       0.04691177 Ry

     iteration # 36     ecut=    30.00 Ry     beta=0.70
     Davidson diagonalization with overlap
     ethr =  5.21E-04,  avg # of iterations =  1.0

     negative rho (up, down):  3.687E-07 0.000E+00

     total cpu time spent up to now is        1.4 secs

     total energy              =     -31.49559296 Ry
     Harris-Foulkes estimate   =     -31.49667173 Ry
     estimated scf accuracy    <       0.51713823 Ry

     iteration # 37     ecut=    30.00 Ry     beta=0.70
     Davidson diagonalization with overlap
     ethr =  5.21E-04,  avg # of iterations =  1.0

     negative rho (up, down):  3.559E-06 0.000E+00

     total cpu time spent up to now is        1.5 secs

     total energy              =     -31.48916654 Ry
     Harris-Foulkes estimate   =     -31.49565850 Ry
     estimated scf accuracy    <       0.42386254 Ry

     iteration # 38     ecut=    30.00 Ry     beta=0.70
     Davidson diagonalization with overlap
     ethr =  5.21E-04,  avg # of iterations =  1.0

     negative rho (up, down):  4.501E-06 0.000E+00

     total cpu time spent up to now is        1.5 secs

     total energy              =     -31.48982287 Ry
     Harris-Foulkes estimate   =     -31.49138485 Ry
     estimated scf accuracy    <       0.05267318 Ry

     iteration # 39     ecut=    30.00 Ry     beta=0.70
     Davidson diagonalization with overlap
     ethr =  5.21E-04,  avg # of iterations =  1.0

     negative rho (up, down):  1.797E-07 0.000E+00

     total cpu time spent up to now is        1.5 secs

     total energy              =     -31.49056887 Ry
     Harris-Foulkes estimate   =     -31.49058016 Ry
     estimated scf accuracy    <       0.00183265 Ry

     iteration # 40     ecut=    30.00 Ry     beta=0.70
     Davidson diagonalization with overlap
     ethr =  2.29E-05,  avg # of iterations =  1.0

     total cpu time spent up to now is        1.6 secs

     total energy              =     -31.49056319 Ry
     Harris-Foulkes estimate   =     -31.49057436 Ry
     estimated scf accuracy    <       0.00122286 Ry

     iteration # 41     ecut=    30.00 Ry     beta=0.70
     Davidson diagonalization with overlap
     ethr =  1.53E-05,  avg # of iterations =  1.0

     total cpu time spent up to now is        1.6 secs

     total energy              =     -31.49056689 Ry
     Harris-Foulkes estimate   =     -31.49056898 Ry
     estimated scf accuracy    <       0.00023482 Ry

     iteration # 42     ecut=    30.00 Ry     beta=0.70
     Davidson diagonalization with overlap
     ethr =  2.94E-06,  avg # of iterations = 12.0

     total cpu time spent up to now is        1.6 secs

     total energy              =     -31.49056665 Ry
     Harris-Foulkes estimate   =     -31.49056771 Ry
     estimated scf accuracy    <       0.00005629 Ry

     iteration # 43     ecut=    30.00 Ry     beta=0.70
     Davidson diagonalization with overlap
     ethr =  7.04E-07,  avg # of iterations =  1.0

     total cpu time spent up to now is        1.7 secs

     total energy              =     -31.49056724 Ry
     Harris-Foulkes estimate   =     -31.49056732 Ry
     estimated scf accuracy    <       0.00000034 Ry

     iteration # 44     ecut=    30.00 Ry     beta=0.70
     Davidson diagonalization with overlap
     ethr =  4.29E-09,  avg # of iterations =  1.0

     total cpu time spent up to now is        1.7 secs

     total energy              =     -31.49056732 Ry
     Harris-Foulkes estimate   =     -31.49056725 Ry
     estimated scf accuracy    <       0.00000005 Ry

     iteration # 45     ecut=    30.00 Ry     beta=0.70
     Davidson diagonalization with overlap
     ethr =  5.72E-10,  avg # of iterations =  1.0

     total cpu time spent up to now is        1.7 secs

     total energy              =     -31.49056731 Ry
     Harris-Foulkes estimate   =     -31.49056733 Ry
     estimated scf accuracy    <       0.00000002 Ry

     iteration # 46     ecut=    30.00 Ry     beta=0.70
     Davidson diagonalization with overlap
     ethr =  1.99E-10,  avg # of iterations =  1.0

     total cpu time spent up to now is        1.8 secs

     End of self-consistent calculation

          k = 0.0000 0.0000 0.0000 ( 22119 PWs)   bands (ev):

   -23.6173  -7.0357  -7.0272  -7.0263  -6.9274  -6.9092  -0.2302   0.6057

     the Fermi energy is    -6.8926 ev

!    total energy              =     -31.49056735 Ry
     Harris-Foulkes estimate   =     -31.49056731 Ry
     estimated scf accuracy    <          3.9E-09 Ry

     convergence has been achieved in  46 iterations

     Forces acting on atoms (Ry/au):

     atom    1 type  1   force =    -0.00030031    0.00005691   -0.00086445
     atom    2 type  1   force =    -0.00023529   -0.00032560   -0.00029944
     atom    3 type  2   force =     0.00053560    0.00026869    0.00116389

     Total force =     0.001675     Total SCF correction =     0.000050

     Molecular Dynamics Calculation

     Starting temperature  =  1000.00 K

     temperature is controlled by Andersen thermostat
     Collision frequency = 1.0000/timestep
     mass H                =     1.01
     mass O                =    16.00
     Time step             =   100.00 a.u.,  4.8378 femto-seconds

     Entering Dynamics:    iteration =     1
                           time      =   0.0048 pico-seconds


     Andersen thermostat:    3 collisions

ATOMIC_POSITIONS (bohr)
H        7.926670080  16.027134103   9.013689442
H       16.462033178  10.986667580  10.974696445
O        6.978185681   0.666657815   1.153637852


     kinetic energy (Ekin) =     0.02712873 Ry
     temperature           =  1427.76089186 K 
     Ekin + Etot (const)   =   -31.46343862 Ry

     Linear momentum :    0.0000000000    0.0000000000    0.0000000000

     Writing output data file pwscf.save
     Check: negative starting charge=   -0.349784
     NEW-OLD atomic charge density approx. for the potential
     Check: negative starting charge=   -0.350253

     negative rho (up, down):  2.416E-02 0.000E+00

     total cpu time spent up to now is        2.0 secs

     per-process dynamical memory:    20.4 Mb

     Self-consistent Calculation

     iteration #  1     ecut=    30.00 Ry     beta=0.70
     Davidson diagonalization with overlap
     ethr =  1.00E-06,  avg # of iterations = 20.0

     negative rho (up, down):  4.988E-03 0.000E+00

     total cpu time spent up to now is        2.1 secs

     total energy              =     -31.42183942 Ry
     Harris-Foulkes estimate   =     -31.46426629 Ry
     estimated scf accuracy    <       0.07858354 Ry

     iteration #  2     ecut=    30.00 Ry     beta=0.70
     Davidson diagonalization with overlap
     ethr =  9.82E-04,  avg # of iterations =  2.0

     negative rho (up, down):  4.431E-03 0.000E+00

     total cpu time spent up to now is        2.1 secs

     total energy              =     -31.51787667 Ry
     Harris-Foulkes estimate   =     -32.16372156 Ry
     estimated scf accuracy    <       4.70775589 Ry

     iteration #  3     ecut=    30.00 Ry     beta=0.70
     Davidson diagonalization with overlap
     ethr =  9.82E-04,  avg # of iterations =  2.0

     negative rho (up, down):  4.381E-03 0.000E+00

     total cpu time spent up to now is        2.2 secs

     total energy              =     -31.49233512 Ry
     Harris-Foulkes estimate   =     -31.52347104 Ry
     estimated scf accuracy    <       3.42763101 Ry

     iteration #  4     ecut=    30.00 Ry     beta=0.70
     Davidson diagonalization with overlap
     ethr =  9.82E-04,  avg # of iterations =  1.0

     negative rho (up, down):  4.004E-03 0.000E+00

     total cpu time spent up to now is        2.2 secs

     total energy              =     -31.46229030 Ry
     Harris-Foulkes estimate   =     -31.49808588 Ry
     estimated scf accuracy    <       1.30410477 Ry

     iteration #  5     ecut=    30.00 Ry     beta=0.70
     Davidson diagonalization with overlap
     ethr =  9.82E-04,  avg # of iterations =  1.0

     negative rho (up, down):  1.370E-04 0.000E+00

     total cpu time spent up to now is        2.2 secs

     total energy              =     -31.48528410 Ry
     Harris-Foulkes estimate   =     -31.49010413 Ry
     estimated scf accuracy    <       0.33756996 Ry

     iteration #  6     ecut=    30.00 Ry     beta=0.70
     Davidson diagonalization with overlap
     ethr =  9.82E-04,  avg # of iterations =  1.0

     negative rho (up, down):  1.402E-06 0.000E+00

     total cpu time spent up to now is        2.3 secs

     total energy              =     -31.49022523 Ry
     Harris-Foulkes estimate   =     -31.49067189 Ry
     estimated scf accuracy    <       0.03224717 Ry

     iteration #  7     ecut=    30.00 Ry     beta=0.70
     Davidson diagonalization with overlap
     ethr =  4.03E-04,  avg # of iterations =  1.0

     total cpu time spent up to now is        2.3 secs

     total energy              =     -31.49032576 Ry
     Harris-Foulkes estimate   =     -31.49039645 Ry
     estimated scf accuracy    <       0.00197559 Ry

     iteration #  8     ecut=    30.00 Ry     beta=0.70
     Davidson diagonalization with overlap
     ethr =  2.47E-05,  avg # of iterations =  8.0

     total cpu time spent up to now is        2.3 secs

     total energy              =     -31.49037430 Ry
     Harris-Foulkes estimate   =     -31.49040666 Ry
     estimated scf accuracy    <       0.00246957 Ry

     iteration #  9     ecut=    30.00 Ry     beta=0.70
     Davidson diagonalization with overlap
     ethr =  2.47E-05,  avg # of iterations =  1.0

     total cpu time spent up to now is        2.4 secs

     total energy              =     -31.49037740 Ry
     Harris-Foulkes estimate   =     -31.49038541 Ry
     estimated scf accuracy    <       0.00030317 Ry

     iteration # 10     ecut=    30.00 Ry     beta=0.70
     Davidson diagonalization with overlap
     ethr =  3.79E-06,  avg # of iterations =  1.0

     total cpu time spent up to now is        2.4 secs

     total energy              =     -31.49038559 Ry
     Harris-Foulkes estimate   =     -31.49038293 Ry
     estimated scf accuracy    <       0.00005495 Ry

     iteration # 11     ecut=    30.00 Ry     beta=0.70
     Davidson diagonalization with overlap
     ethr =  6.87E-07,  avg # of iterations =  1.0

     total cpu time spent up to now is        2.4 secs

     total energy              =     -31.49037670 Ry
     Harris-Foulkes estimate   =     -31.49038914 Ry
     estimated scf accuracy    <       0.00073313 Ry

     iteration # 12     ecut=    30.00 Ry     beta=0.70
     Davidson diagonalization with overlap
     ethr =  6.87E-07,  avg # of iterations =  1.0

     total cpu time spent up to now is        2.5 secs

     total energy              =     -31.49038235 Ry
     Harris-Foulkes estimate   =     -31.49038249 Ry
     estimated scf accuracy    <       0.00000438 Ry

     iteration # 13     ecut=    30.00 Ry     beta=0.70
     Davidson diagonalization with overlap
     ethr =  5.48E-08,  avg # of iterations =  1.0

     total cpu time spent up to now is        2.5 secs

     total energy              =     -31.49038240 Ry
     Harris-Foulkes estimate   =     -31.49038241 Ry
     estimated scf accuracy    <       0.00000002 Ry

     iteration # 14     ecut=    30.00 Ry     beta=0.70
     Davidson diagonalization with overlap
     ethr =  1.97E-10,  avg # of iterations =  1.0

     total cpu time spent up to now is        2.5 secs

     End of self-consistent calculation

          k = 0.0000 0.0000 0.0000 ( 22119 PWs)   bands (ev):

   -23.6250  -7.0397  -7.0340  -7.0331  -6.9394  -6.9138  -0.2298   0.5971

     the Fermi energy is    -6.8994 ev

!    total energy              =     -31.49038232 Ry
     Harris-Foulkes estimate   =     -31.49038240 Ry
     estimated scf accuracy    <          1.3E-09 Ry

     convergence has been achieved in  14 iterations

     Forces acting on atoms (Ry/au):

     atom    1 type  1   force =    -0.00035463    0.00000247   -0.00076646
     atom    2 type  1   force =    -0.00025727   -0.00035143   -0.00029115
     atom    3 type  2   force =     0.00061190    0.00034896    0.00105761

     Total force =     0.001613     Total SCF correction =     0.000035

     Entering Dynamics:    iteration =     2
                           time      =   0.0097 pico-seconds


     Andersen thermostat:    3 collisions

ATOMIC_POSITIONS (bohr)
H        8.025945584  15.896469684   9.054881128
H       16.195546116  10.911798640  11.417522060
O        6.988740910   0.679632108   1.123084260


     kinetic energy (Ekin) =     0.01843700 Ry
     temperature           =   970.32273745 K 
     Ekin + Etot (const)   =   -31.47194532 Ry
     Message from routine dynamics:
     Total linear momentum <> 0

     Linear momentum :    0.3933734397   -0.3684967794   -0.0818933451

     Writing output data file pwscf.save

     first order wave-functions extrapolation
     Check: negative starting charge=   -0.350253
     first order charge density extrapolation
     Check: negative starting charge=   -0.350622

     negative rho (up, down):  7.008E-02 0.000E+00

     total cpu time spent up to now is        2.8 secs

     per-process dynamical memory:    20.4 Mb

     Self-consistent Calculation

     iteration #  1     ecut=    30.00 Ry     beta=0.70
     Davidson diagonalization with overlap
     c_bands:  1 eigenvalues not converged
     ethr =  1.00E-06,  avg # of iterations = 20.0

     negative rho (up, down):  1.699E-02 0.000E+00

     total cpu time spent up to now is        2.9 secs

     total energy              =     -29.99405152 Ry
     Harris-Foulkes estimate   =     -32.03009479 Ry
     estimated scf accuracy    <       1.40680203 Ry

     iteration #  2     ecut=    30.00 Ry     beta=0.70
     Davidson diagonalization with overlap
     ethr =  1.00E-02,  avg # of iterations =  3.0

     negative rho (up, down):  1.318E-02 0.000E+00

     total cpu time spent up to now is        2.9 secs

     total energy              =     -31.59858646 Ry
     Harris-Foulkes estimate   =     -33.79145340 Ry
     estimated scf accuracy    <       6.34465922 Ry

     iteration #  3     ecut=    30.00 Ry     beta=0.70
     Davidson diagonalization with overlap
     ethr =  1.00E-02,  avg # of iterations =  2.0

     negative rho (up, down):  1.090E-02 0.000E+00

     total cpu time spent up to now is        3.0 secs

     total energy              =     -31.80852134 Ry
     Harris-Foulkes estimate   =     -32.35038083 Ry
     estimated scf accuracy    <       2.24511530 Ry

     iteration #  4     ecut=    30.00 Ry     beta=0.70
     Davidson diagonalization with overlap
     ethr =  1.00E-02,  avg # of iterations =  1.0

     negative rho (up, down):  8.802E-03 0.000E+00

     total cpu time spent up to now is        3.0 secs

     total energy              =     -31.57307158 Ry
     Harris-Foulkes estimate   =     -31.83506572 Ry
     estimated scf accuracy    <       1.43402488 Ry

     iteration #  5     ecut=    30.00 Ry     beta=0.70
     Davidson diagonalization with overlap
     ethr =  1.00E-02,  avg # of iterations =  3.0

     negative rho (up, down):  5.660E-03 0.000E+00

     total cpu time spent up to now is        3.0 secs

     total energy              =     -31.25317822 Ry
     Harris-Foulkes estimate   =     -31.62497542 Ry
     estimated scf accuracy    <       1.29081634 Ry

     iteration #  6     ecut=    30.00 Ry     beta=0.70
     Davidson diagonalization with overlap
     ethr =  1.00E-02,  avg # of iterations =  2.0

     negative rho (up, down):  4.990E-03 0.000E+00

     total cpu time spent up to now is        3.1 secs

     total energy              =     -31.43342670 Ry
     Harris-Foulkes estimate   =     -31.71176780 Ry
     estimated scf accuracy    <       1.30620165 Ry

     iteration #  7     ecut=    30.00 Ry     beta=0.70
     Davidson diagonalization with overlap
     ethr =  1.00E-02,  avg # of iterations =  1.0

     negative rho (up, down):  3.839E-03 0.000E+00

     total cpu time spent up to now is        3.1 secs

     total energy              =     -31.41462618 Ry
     Harris-Foulkes estimate   =     -31.52988442 Ry
     estimated scf accuracy    <       1.98925576 Ry

     iteration #  8     ecut=    30.00 Ry     beta=0.70
     Davidson diagonalization with overlap
     ethr =  1.00E-02,  avg # of iterations =  1.0

     negative rho (up, down):  2.769E-03 0.000E+00

     total cpu time spent up to now is        3.1 secs

     total energy              =     -31.60365684 Ry
     Harris-Foulkes estimate   =     -31.55882758 Ry
     estimated scf accuracy    <       0.97318903 Ry

     iteration #  9     ecut=    30.00 Ry     beta=0.70
     Davidson diagonalization with overlap
     ethr =  1.00E-02,  avg # of iterations =  1.0

     negative rho (up, down):  4.794E-04 0.000E+00

     total cpu time spent up to now is        3.2 secs

     total energy              =     -31.68644647 Ry
     Harris-Foulkes estimate   =     -31.62035622 Ry
     estimated scf accuracy    <       2.29142673 Ry

     iteration # 10     ecut=    30.00 Ry     beta=0.70
     Davidson diagonalization with overlap
     ethr =  1.00E-02,  avg # of iterations =  1.0

     negative rho (up, down):  5.146E-07 0.000E+00

     total cpu time spent up to now is        3.2 secs

     total energy              =     -31.77789819 Ry
     Harris-Foulkes estimate   =     -31.70538260 Ry
     estimated scf accuracy    <       4.37966663 Ry

     iteration # 11     ecut=    30.00 Ry     beta=0.70
     Davidson diagonalization with overlap
     ethr =  1.00E-02,  avg # of iterations =  1.0

     negative rho (up, down):  1.526E-06 0.000E+00

     total cpu time spent up to now is        3.3 secs

     total energy              =     -31.71008640 Ry
     Harris-Foulkes estimate   =     -31.77911871 Ry
     estimated scf accuracy    <       4.27750501 Ry

     iteration # 12     ecut=    30.00 Ry     beta=0.70
     Davidson diagonalization with overlap
     ethr =  1.00E-02,  avg # of iterations =  1.0

     negative rho (up, down):  1.028E-05 0.000E+00

     total cpu time spent up to now is        3.3 secs

     total energy              =     -31.49323678 Ry
     Harris-Foulkes estimate   =     -31.71181789 Ry
     estimated scf accuracy    <       4.47696591 Ry

     iteration # 13     ecut=    30.00 Ry     beta=0.70
     Davidson diagonalization with overlap
     ethr =  1.00E-02,  avg # of iterations =  1.0

     negative rho (up, down):  4.882E-07 0.000E+00

     total cpu time spent up to now is        3.4 secs

     total energy              =     -31.44005383 Ry
     Harris-Foulkes estimate   =     -31.51740281 Ry
     estimated scf accuracy    <       1.35625907 Ry

     iteration # 14     ecut=    30.00 Ry     beta=0.70
     Davidson diagonalization with overlap
     ethr =  1.00E-02,  avg # of iterations =  1.0

     negative rho (up, down):  8.709E-08 0.000E+00

     total cpu time spent up to now is        3.4 secs

     total energy              =     -31.49125515 Ry
     Harris-Foulkes estimate   =     -31.50662529 Ry
     estimated scf accuracy    <       0.57673857 Ry

     iteration # 15     ecut=    30.00 Ry     beta=0.70
     Davidson diagonalization with overlap
     ethr =  7.21E-03,  avg # of iterations =  1.0

     total cpu time spent up to now is        3.4 secs

     total energy              =     -31.48590257 Ry
     Harris-Foulkes estimate   =     -31.49441303 Ry
     estimated scf accuracy    <       0.23418183 Ry

     iteration # 16     ecut=    30.00 Ry     beta=0.70
     Davidson diagonalization with overlap
     ethr =  2.93E-03,  avg # of iterations =  1.0

     negative rho (up, down):  5.615E-07 0.000E+00

     total cpu time spent up to now is        3.5 secs

     total energy              =     -31.48780264 Ry
     Harris-Foulkes estimate   =     -31.49161970 Ry
     estimated scf accuracy    <       0.09844810 Ry

     iteration # 17     ecut=    30.00 Ry     beta=0.70
     Davidson diagonalization with overlap
     ethr =  1.23E-03,  avg # of iterations =  1.0

     negative rho (up, down):  4.277E-07 0.000E+00

     total cpu time spent up to now is        3.5 secs

     total energy              =     -31.47298598 Ry
     Harris-Foulkes estimate   =     -31.49820899 Ry
     estimated scf accuracy    <       0.37379629 Ry

     iteration # 18     ecut=    30.00 Ry     beta=0.70
     Davidson diagonalization with overlap
     ethr =  1.23E-03,  avg # of iterations =  1.0

     total cpu time spent up to now is        3.6 secs

     total energy              =     -31.48658295 Ry
     Harris-Foulkes estimate   =     -31.49686166 Ry
     estimated scf accuracy    <       0.53668446 Ry

     iteration # 19     ecut=    30.00 Ry     beta=0.70
     Davidson diagonalization with overlap
     ethr =  1.23E-03,  avg # of iterations =  1.0

     total cpu time spent up to now is        3.6 secs

     total energy              =     -31.49061122 Ry
     Harris-Foulkes estimate   =     -31.49060353 Ry
     estimated scf accuracy    <       0.01935378 Ry

     iteration # 20     ecut=    30.00 Ry     beta=0.70
     Davidson diagonalization with overlap
     ethr =  2.42E-04,  avg # of iterations =  1.0

     total cpu time spent up to now is        3.6 secs

     total energy              =     -31.48985085 Ry
     Harris-Foulkes estimate   =     -31.49061232 Ry
     estimated scf accuracy    <       0.01974201 Ry

     iteration # 21     ecut=    30.00 Ry     beta=0.70
     Davidson diagonalization with overlap
     ethr =  2.42E-04,  avg # of iterations =  1.0

     total cpu time spent up to now is        3.7 secs

     total energy              =     -31.49030015 Ry
     Harris-Foulkes estimate   =     -31.49033690 Ry
     estimated scf accuracy    <       0.00208525 Ry

     iteration # 22     ecut=    30.00 Ry     beta=0.70
     Davidson diagonalization with overlap
     ethr =  2.61E-05,  avg # of iterations =  1.0

     total cpu time spent up to now is        3.7 secs

     total energy              =     -31.49030751 Ry
     Harris-Foulkes estimate   =     -31.49031390 Ry
     estimated scf accuracy    <       0.00013909 Ry

     iteration # 23     ecut=    30.00 Ry     beta=0.70
     Davidson diagonalization with overlap
     ethr =  1.74E-06,  avg # of iterations = 13.0

     total cpu time spent up to now is        3.7 secs

     total energy              =     -31.49031229 Ry
     Harris-Foulkes estimate   =     -31.49031335 Ry
     estimated scf accuracy    <       0.00009215 Ry

     iteration # 24     ecut=    30.00 Ry     beta=0.70
     Davidson diagonalization with overlap
     ethr =  1.15E-06,  avg # of iterations =  1.0

     total cpu time spent up to now is        3.8 secs

     total energy              =     -31.49031262 Ry
     Harris-Foulkes estimate   =     -31.49031283 Ry
     estimated scf accuracy    <       0.00001086 Ry

     iteration # 25     ecut=    30.00 Ry     beta=0.70
     Davidson diagonalization with overlap
     ethr =  1.36E-07,  avg # of iterations =  1.0

     total cpu time spent up to now is        3.8 secs

     total energy              =     -31.49031278 Ry
     Harris-Foulkes estimate   =     -31.49031272 Ry
     estimated scf accuracy    <       0.00000021 Ry

     iteration # 26     ecut=    30.00 Ry     beta=0.70
     Davidson diagonalization with overlap
     ethr =  2.68E-09,  avg # of iterations =  1.0

     total cpu time spent up to now is        3.8 secs

     End of self-consistent calculation

          k = 0.0000 0.0000 0.0000 ( 22119 PWs)   bands (ev):

   -23.6263  -7.0393  -7.0352  -7.0343  -6.9436  -6.9136  -0.2305   0.6095

     the Fermi energy is    -6.9006 ev

!    total energy              =     -31.49031276 Ry
     Harris-Foulkes estimate   =     -31.49031278 Ry
     estimated scf accuracy    <          4.9E-09 Ry

     convergence has been achieved in  26 iterations

     Forces acting on atoms (Ry/au):

     atom    1 type  1   force =    -0.00035483    0.00007130   -0.00045052
     atom    2 type  1   force =    -0.00031745   -0.00021908   -0.00007708
     atom    3 type  2   force =     0.00067227    0.00014778    0.00052759

     Total force =     0.001114     Total SCF correction =     0.000042

     Entering Dynamics:    iteration =     3
                           time      =   0.0145 pico-seconds


     Andersen thermostat:    3 collisions

ATOMIC_POSITIONS (bohr)
H        7.916083148  15.799373749   9.123034062
H       16.043432567  10.879179900  11.456799376
O        7.005278144   0.687820347   1.116302725


     kinetic energy (Ekin) =     0.00399920 Ry
     temperature           =   210.47412486 K 
     Ekin + Etot (const)   =   -31.48631356 Ry
     Message from routine dynamics:
     Total linear momentum <> 0

     Linear momentum :    0.2314485132    0.1790343838    0.1613443272

     Writing output data file pwscf.save

     second order wave-functions extrapolation
     Check: negative starting charge=   -0.350622
     second order charge density extrapolation
     Check: negative starting charge=   -0.351052

     negative rho (up, down):  2.950E-02 0.000E+00

     total cpu time spent up to now is        4.1 secs

     per-process dynamical memory:    20.4 Mb

     Self-consistent Calculation

     iteration #  1     ecut=    30.00 Ry     beta=0.70
     Davidson diagonalization with overlap
     ethr =  1.00E-06,  avg # of iterations = 19.0

     negative rho (up, down):  6.317E-03 0.000E+00

     total cpu time spent up to now is        4.2 secs

     total energy              =     -31.48213252 Ry
     Harris-Foulkes estimate   =     -31.46172818 Ry
     estimated scf accuracy    <       0.00299910 Ry

     iteration #  2     ecut=    30.00 Ry     beta=0.70
     Davidson diagonalization with overlap
     ethr =  3.75E-05,  avg # of iterations =  4.0

     negative rho (up, down):  6.179E-03 0.000E+00

     total cpu time spent up to now is        4.3 secs

     total energy              =     -31.44521523 Ry
     Harris-Foulkes estimate   =     -31.58027540 Ry
     estimated scf accuracy    <       4.63650444 Ry

     iteration #  3     ecut=    30.00 Ry     beta=0.70
     Davidson diagonalization with overlap
     ethr =  3.75E-05,  avg # of iterations =  2.0

     negative rho (up, down):  5.952E-03 0.000E+00

     total cpu time spent up to now is        4.3 secs

     total energy              =     -31.48414378 Ry
     Harris-Foulkes estimate   =     -31.48526488 Ry
     estimated scf accuracy    <       0.03301647 Ry

     iteration #  4     ecut=    30.00 Ry     beta=0.70
     Davidson diagonalization with overlap
     ethr =  3.75E-05,  avg # of iterations =  1.0

     negative rho (up, down):  1.232E-03 0.000E+00

     total cpu time spent up to now is        4.4 secs

     total energy              =     -31.48975424 Ry
     Harris-Foulkes estimate   =     -31.48500103 Ry
     estimated scf accuracy    <       0.00608035 Ry

     iteration #  5     ecut=    30.00 Ry     beta=0.70
     Davidson diagonalization with overlap
     ethr =  3.75E-05,  avg # of iterations =  7.0

     negative rho (up, down):  4.515E-04 0.000E+00

     total cpu time spent up to now is        4.4 secs

     total energy              =     -31.49027084 Ry
     Harris-Foulkes estimate   =     -31.48989494 Ry
     estimated scf accuracy    <       0.00070670 Ry

     iteration #  6     ecut=    30.00 Ry     beta=0.70
     Davidson diagonalization with overlap
     ethr =  8.83E-06,  avg # of iterations = 10.0

     negative rho (up, down):  6.540E-07 0.000E+00

     total cpu time spent up to now is        4.4 secs

     total energy              =     -31.49028518 Ry
     Harris-Foulkes estimate   =     -31.49028161 Ry
     estimated scf accuracy    <       0.00018967 Ry

     iteration #  7     ecut=    30.00 Ry     beta=0.70
     Davidson diagonalization with overlap
     ethr =  2.37E-06,  avg # of iterations =  8.0

     negative rho (up, down):  1.766E-08 0.000E+00

     total cpu time spent up to now is        4.5 secs

     total energy              =     -31.49029017 Ry
     Harris-Foulkes estimate   =     -31.49029312 Ry
     estimated scf accuracy    <       0.00010911 Ry

     iteration #  8     ecut=    30.00 Ry     beta=0.70
     Davidson diagonalization with overlap
     ethr =  1.36E-06,  avg # of iterations =  1.0

     total cpu time spent up to now is        4.5 secs

     total energy              =     -31.49029299 Ry
     Harris-Foulkes estimate   =     -31.49029326 Ry
     estimated scf accuracy    <       0.00005547 Ry

     iteration #  9     ecut=    30.00 Ry     beta=0.70
     Davidson diagonalization with overlap
     ethr =  6.93E-07,  avg # of iterations =  1.0

     total cpu time spent up to now is        4.5 secs

     total energy              =     -31.49029266 Ry
     Harris-Foulkes estimate   =     -31.49029320 Ry
     estimated scf accuracy    <       0.00000871 Ry

     iteration # 10     ecut=    30.00 Ry     beta=0.70
     Davidson diagonalization with overlap
     ethr =  1.09E-07,  avg # of iterations =  1.0

     total cpu time spent up to now is        4.6 secs

     total energy              =     -31.49029280 Ry
     Harris-Foulkes estimate   =     -31.49029290 Ry
     estimated scf accuracy    <       0.00000429 Ry

     iteration # 11     ecut=    30.00 Ry     beta=0.70
     Davidson diagonalization with overlap
     ethr =  5.36E-08,  avg # of iterations =  1.0

     total cpu time spent up to now is        4.6 secs

     total energy              =     -31.49029278 Ry
     Harris-Foulkes estimate   =     -31.49029282 Ry
     estimated scf accuracy    <       0.00000020 Ry

     iteration # 12     ecut=    30.00 Ry     beta=0.70
     Davidson diagonalization with overlap
     ethr =  2.51E-09,  avg # of iterations =  1.0

     total cpu time spent up to now is        4.6 secs

     End of self-consistent calculation

          k = 0.0000 0.0000 0.0000 ( 22119 PWs)   bands (ev):

   -23.6272  -7.0393  -7.0360  -7.0352  -6.9454  -6.9142  -0.2311   0.6098

     the Fermi energy is    -6.9015 ev

!    total energy              =     -31.49029276 Ry
     Harris-Foulkes estimate   =     -31.49029278 Ry
     estimated scf accuracy    <          2.1E-10 Ry

     convergence has been achieved in  12 iterations

     Forces acting on atoms (Ry/au):

     atom    1 type  1   force =    -0.00038509    0.00014303   -0.00033149
     atom    2 type  1   force =    -0.00037793   -0.00009367   -0.00002792
     atom    3 type  2   force =     0.00076302   -0.00004937    0.00035942

     Total force =     0.001070     Total SCF correction =     0.000017

     Entering Dynamics:    iteration =     4
                           time      =   0.0194 pico-seconds


     Andersen thermostat:    3 collisions

ATOMIC_POSITIONS (bohr)
H        8.073387127  15.747127025   8.953018756
H       15.962606757  11.188117423  10.800166359
O        7.000450460   0.671616740   1.168484901


     kinetic energy (Ekin) =     0.02978876 Ry
     temperature           =  1567.75575948 K 
     Ekin + Etot (const)   =   -31.46050400 Ry
     Message from routine dynamics:
     Total linear momentum <> 0

     Linear momentum :    0.0309432101   -0.0583372402   -0.1854291163

     Writing output data file pwscf.save

     second order wave-functions extrapolation
     Check: negative starting charge=   -0.351052
     second order charge density extrapolation
     Check: negative starting charge=   -0.351035

     negative rho (up, down):  5.199E-02 0.000E+00

     total cpu time spent up to now is        4.9 secs

     per-process dynamical memory:    20.4 Mb

     Self-consistent Calculation

     iteration #  1     ecut=    30.00 Ry     beta=0.70
     Davidson diagonalization with overlap
     c_bands:  1 eigenvalues not converged
     ethr =  1.00E-06,  avg # of iterations = 20.0

     negative rho (up, down):  1.136E-02 0.000E+00

     total cpu time spent up to now is        5.0 secs

     total energy              =     -31.42627557 Ry
     Harris-Foulkes estimate   =     -31.44150678 Ry
     estimated scf accuracy    <       0.06542370 Ry

     iteration #  2     ecut=    30.00 Ry     beta=0.70
     Davidson diagonalization with overlap
     ethr =  8.18E-04,  avg # of iterations =  2.0

     negative rho (up, down):  1.025E-02 0.000E+00

     total cpu time spent up to now is        5.1 secs

     total energy              =     -31.49679473 Ry
     Harris-Foulkes estimate   =     -32.07381639 Ry
     estimated scf accuracy    <       4.57436961 Ry

     iteration #  3     ecut=    30.00 Ry     beta=0.70
     Davidson diagonalization with overlap
     ethr =  8.18E-04,  avg # of iterations =  2.0

     negative rho (up, down):  9.898E-03 0.000E+00

     total cpu time spent up to now is        5.1 secs

     total energy              =     -31.48747147 Ry
     Harris-Foulkes estimate   =     -31.52837139 Ry
     estimated scf accuracy    <       1.12272883 Ry

     iteration #  4     ecut=    30.00 Ry     beta=0.70
     Davidson diagonalization with overlap
     ethr =  8.18E-04,  avg # of iterations =  1.0

     negative rho (up, down):  9.252E-03 0.000E+00

     total cpu time spent up to now is        5.1 secs

     total energy              =     -31.44730945 Ry
     Harris-Foulkes estimate   =     -31.49673781 Ry
     estimated scf accuracy    <       1.70823162 Ry

     iteration #  5     ecut=    30.00 Ry     beta=0.70
     Davidson diagonalization with overlap
     ethr =  8.18E-04,  avg # of iterations =  1.0

     negative rho (up, down):  1.837E-03 0.000E+00

     total cpu time spent up to now is        5.2 secs

     total energy              =     -31.48056164 Ry
     Harris-Foulkes estimate   =     -31.48649988 Ry
     estimated scf accuracy    <       0.50409081 Ry

     iteration #  6     ecut=    30.00 Ry     beta=0.70
     Davidson diagonalization with overlap
     ethr =  8.18E-04,  avg # of iterations =  1.0

     negative rho (up, down):  5.324E-04 0.000E+00

     total cpu time spent up to now is        5.2 secs

     total energy              =     -31.49027394 Ry
     Harris-Foulkes estimate   =     -31.49006222 Ry
     estimated scf accuracy    <       0.08904219 Ry

     iteration #  7     ecut=    30.00 Ry     beta=0.70
     Davidson diagonalization with overlap
     ethr =  8.18E-04,  avg # of iterations =  1.0

     negative rho (up, down):  1.000E-05 0.000E+00

     total cpu time spent up to now is        5.2 secs

     total energy              =     -31.48974921 Ry
     Harris-Foulkes estimate   =     -31.49051328 Ry
     estimated scf accuracy    <       0.02094591 Ry

     iteration #  8     ecut=    30.00 Ry     beta=0.70
     Davidson diagonalization with overlap
     ethr =  2.62E-04,  avg # of iterations =  3.0

     negative rho (up, down):  2.397E-08 0.000E+00

     total cpu time spent up to now is        5.3 secs

     total energy              =     -31.49046628 Ry
     Harris-Foulkes estimate   =     -31.49058410 Ry
     estimated scf accuracy    <       0.02428356 Ry

     iteration #  9     ecut=    30.00 Ry     beta=0.70
     Davidson diagonalization with overlap
     ethr =  2.62E-04,  avg # of iterations =  1.0

     total cpu time spent up to now is        5.3 secs

     total energy              =     -31.49029337 Ry
     Harris-Foulkes estimate   =     -31.49048570 Ry
     estimated scf accuracy    <       0.01265799 Ry

     iteration # 10     ecut=    30.00 Ry     beta=0.70
     Davidson diagonalization with overlap
     ethr =  1.58E-04,  avg # of iterations =  1.0

     total cpu time spent up to now is        5.3 secs

     total energy              =     -31.49035218 Ry
     Harris-Foulkes estimate   =     -31.49037261 Ry
     estimated scf accuracy    <       0.00039346 Ry

     iteration # 11     ecut=    30.00 Ry     beta=0.70
     Davidson diagonalization with overlap
     ethr =  4.92E-06,  avg # of iterations = 13.0

     total cpu time spent up to now is        5.4 secs

     total energy              =     -31.49035466 Ry
     Harris-Foulkes estimate   =     -31.49038424 Ry
     estimated scf accuracy    <       0.00157584 Ry

     iteration # 12     ecut=    30.00 Ry     beta=0.70
     Davidson diagonalization with overlap
     ethr =  4.92E-06,  avg # of iterations =  1.0

     total cpu time spent up to now is        5.4 secs

     total energy              =     -31.49036973 Ry
     Harris-Foulkes estimate   =     -31.49036996 Ry
     estimated scf accuracy    <       0.00000164 Ry

     iteration # 13     ecut=    30.00 Ry     beta=0.70
     Davidson diagonalization with overlap
     ethr =  2.05E-08,  avg # of iterations =  1.0

     total cpu time spent up to now is        5.4 secs

     total energy              =     -31.49036922 Ry
     Harris-Foulkes estimate   =     -31.49036976 Ry
     estimated scf accuracy    <       0.00000003 Ry

     iteration # 14     ecut=    30.00 Ry     beta=0.70
     Davidson diagonalization with overlap
     ethr =  4.30E-10,  avg # of iterations =  1.0

     total cpu time spent up to now is        5.5 secs

     End of self-consistent calculation

          k = 0.0000 0.0000 0.0000 ( 22119 PWs)   bands (ev):

   -23.6332  -7.0462  -7.0416  -7.0408  -6.9570  -6.9127  -0.2286   0.6095

     the Fermi energy is    -6.9072 ev

!    total energy              =     -31.49036917 Ry
     Harris-Foulkes estimate   =     -31.49036922 Ry
     estimated scf accuracy    <          8.8E-09 Ry

     convergence has been achieved in  14 iterations

     Forces acting on atoms (Ry/au):

     atom    1 type  1   force =    -0.00029268    0.00002995   -0.00065990
     atom    2 type  1   force =    -0.00042113   -0.00018864   -0.00034244
     atom    3 type  2   force =     0.00071381    0.00015869    0.00100234

     Total force =     0.001546     Total SCF correction =     0.000040

     Entering Dynamics:    iteration =     5
                           time      =   0.0242 pico-seconds


     Andersen thermostat:    3 collisions

ATOMIC_POSITIONS (bohr)
H        8.235321043  16.082309977   9.331431133
H       15.938300495  11.256524440  11.094685832
O        6.991762714   0.646140124   1.126006078


     kinetic energy (Ekin) =     0.02256389 Ry
     temperature           =  1187.51747911 K 
     Ekin + Etot (const)   =   -31.46780527 Ry
     Message from routine dynamics:
     Total linear momentum <> 0

     Linear momentum :   -0.2416384879    0.4577190214   -0.0499894289

     Writing output data file pwscf.save

     second order wave-functions extrapolation
     Check: negative starting charge=   -0.351035
     second order charge density extrapolation
     Check: negative starting charge=   -0.350580

     negative rho (up, down):  6.781E-02 0.000E+00

     total cpu time spent up to now is        5.8 secs

     per-process dynamical memory:    20.4 Mb

     Self-consistent Calculation

     iteration #  1     ecut=    30.00 Ry     beta=0.70
     Davidson diagonalization with overlap
     ethr =  1.00E-06,  avg # of iterations = 14.0

     negative rho (up, down):  1.544E-02 0.000E+00

     total cpu time spent up to now is        5.9 secs

     total energy              =     -31.44185384 Ry
     Harris-Foulkes estimate   =     -31.43445031 Ry
     estimated scf accuracy    <       0.04248352 Ry

     iteration #  2     ecut=    30.00 Ry     beta=0.70
     Davidson diagonalization with overlap
     ethr =  5.31E-04,  avg # of iterations =  2.0

     negative rho (up, down):  1.423E-02 0.000E+00

     total cpu time spent up to now is        5.9 secs

     total energy              =     -31.47629989 Ry
     Harris-Foulkes estimate   =     -31.93668311 Ry
     estimated scf accuracy    <       4.35747707 Ry

     iteration #  3     ecut=    30.00 Ry     beta=0.70
     Davidson diagonalization with overlap
     ethr =  5.31E-04,  avg # of iterations =  2.0

     negative rho (up, down):  1.386E-02 0.000E+00

     total cpu time spent up to now is        6.0 secs

     total energy              =     -31.47051227 Ry
     Harris-Foulkes estimate   =     -31.50739463 Ry
     estimated scf accuracy    <       1.15898469 Ry

     iteration #  4     ecut=    30.00 Ry     beta=0.70
     Davidson diagonalization with overlap
     ethr =  5.31E-04,  avg # of iterations =  1.0

     negative rho (up, down):  8.111E-03 0.000E+00

     total cpu time spent up to now is        6.0 secs

     total energy              =     -31.41908046 Ry
     Harris-Foulkes estimate   =     -31.48368703 Ry
     estimated scf accuracy    <       0.75370833 Ry

     iteration #  5     ecut=    30.00 Ry     beta=0.70
     Davidson diagonalization with overlap
     ethr =  5.31E-04,  avg # of iterations =  1.0

     negative rho (up, down):  2.622E-03 0.000E+00

     total cpu time spent up to now is        6.0 secs

     total energy              =     -31.45703807 Ry
     Harris-Foulkes estimate   =     -31.56119436 Ry
     estimated scf accuracy    <       2.81922330 Ry

     iteration #  6     ecut=    30.00 Ry     beta=0.70
     Davidson diagonalization with overlap
     ethr =  5.31E-04,  avg # of iterations =  1.0

     negative rho (up, down):  5.846E-04 0.000E+00

     total cpu time spent up to now is        6.1 secs

     total energy              =     -31.49024833 Ry
     Harris-Foulkes estimate   =     -31.48852860 Ry
     estimated scf accuracy    <       0.00673554 Ry

     iteration #  7     ecut=    30.00 Ry     beta=0.70
     Davidson diagonalization with overlap
     ethr =  8.42E-05,  avg # of iterations =  5.0

     negative rho (up, down):  3.444E-04 0.000E+00

     total cpu time spent up to now is        6.1 secs

     total energy              =     -31.49063902 Ry
     Harris-Foulkes estimate   =     -31.49074638 Ry
     estimated scf accuracy    <       0.05743599 Ry

     iteration #  8     ecut=    30.00 Ry     beta=0.70
     Davidson diagonalization with overlap
     ethr =  8.42E-05,  avg # of iterations =  1.0

     negative rho (up, down):  3.318E-06 0.000E+00

     total cpu time spent up to now is        6.1 secs

     total energy              =     -31.48946685 Ry
     Harris-Foulkes estimate   =     -31.49065041 Ry
     estimated scf accuracy    <       0.04531257 Ry

     iteration #  9     ecut=    30.00 Ry     beta=0.70
     Davidson diagonalization with overlap
     ethr =  8.42E-05,  avg # of iterations =  1.0

     negative rho (up, down):  2.823E-08 0.000E+00

     total cpu time spent up to now is        6.2 secs

     total energy              =     -31.49034521 Ry
     Harris-Foulkes estimate   =     -31.49031818 Ry
     estimated scf accuracy    <       0.00809528 Ry

     iteration # 10     ecut=    30.00 Ry     beta=0.70
     Davidson diagonalization with overlap
     ethr =  8.42E-05,  avg # of iterations =  1.0

     total cpu time spent up to now is        6.2 secs

     total energy              =     -31.48990827 Ry
     Harris-Foulkes estimate   =     -31.49034868 Ry
     estimated scf accuracy    <       0.01102623 Ry

     iteration # 11     ecut=    30.00 Ry     beta=0.70
     Davidson diagonalization with overlap
     ethr =  8.42E-05,  avg # of iterations =  1.0

     total cpu time spent up to now is        6.2 secs

     total energy              =     -31.49005843 Ry
     Harris-Foulkes estimate   =     -31.49038367 Ry
     estimated scf accuracy    <       0.01413116 Ry

     iteration # 12     ecut=    30.00 Ry     beta=0.70
     Davidson diagonalization with overlap
     ethr =  8.42E-05,  avg # of iterations =  1.0

     total cpu time spent up to now is        6.3 secs

     total energy              =     -31.49024137 Ry
     Harris-Foulkes estimate   =     -31.49025161 Ry
     estimated scf accuracy    <       0.00054733 Ry

     iteration # 13     ecut=    30.00 Ry     beta=0.70
     Davidson diagonalization with overlap
     ethr =  6.84E-06,  avg # of iterations =  6.0

     total cpu time spent up to now is        6.3 secs

     total energy              =     -31.49024636 Ry
     Harris-Foulkes estimate   =     -31.49024629 Ry
     estimated scf accuracy    <       0.00000083 Ry

     iteration # 14     ecut=    30.00 Ry     beta=0.70
     Davidson diagonalization with overlap
     ethr =  1.04E-08,  avg # of iterations =  3.0

     total cpu time spent up to now is        6.3 secs

     total energy              =     -31.49024640 Ry
     Harris-Foulkes estimate   =     -31.49024642 Ry
     estimated scf accuracy    <       0.00000215 Ry

     iteration # 15     ecut=    30.00 Ry     beta=0.70
     Davidson diagonalization with overlap
     ethr =  1.04E-08,  avg # of iterations =  1.0

     total cpu time spent up to now is        6.4 secs

     End of self-consistent calculation

          k = 0.0000 0.0000 0.0000 ( 22119 PWs)   bands (ev):

   -23.6331  -7.0439  -7.0411  -7.0404  -6.9578  -6.9126  -0.2295   0.6217

     the Fermi energy is    -6.9067 ev

!    total energy              =     -31.49024646 Ry
     Harris-Foulkes estimate   =     -31.49024643 Ry
     estimated scf accuracy    <          7.7E-09 Ry

     convergence has been achieved in  15 iterations

     Forces acting on atoms (Ry/au):

     atom    1 type  1   force =    -0.00036308   -0.00050986   -0.00041945
     atom    2 type  1   force =    -0.00051426   -0.00055659   -0.00017560
     atom    3 type  2   force =     0.00087733    0.00106645    0.00059505

     Total force =     0.001853     Total SCF correction =     0.000139

     Entering Dynamics:    iteration =     6
                           time      =   0.0290 pico-seconds


     Andersen thermostat:    3 collisions

ATOMIC_POSITIONS (bohr)
H        8.279414106  15.929703985   9.038461462
H       15.561077980  11.038378877  11.200132676
O        7.012791511   0.669543816   1.137843456


     kinetic energy (Ekin) =     0.01911496 Ry
     temperature           =  1006.00336894 K 
     Ekin + Etot (const)   =   -31.47113150 Ry
     Message from routine dynamics:
     Total linear momentum <> 0

     Linear momentum :   -0.3862572985   -0.0902313533   -0.4322779914

     Writing output data file pwscf.save

     second order wave-functions extrapolation
     Check: negative starting charge=   -0.350580
     second order charge density extrapolation
     Check: negative starting charge=   -0.351073

     negative rho (up, down):  3.443E-02 0.000E+00

     total cpu time spent up to now is        6.7 secs

     per-process dynamical memory:    20.4 Mb

     Self-consistent Calculation

     iteration #  1     ecut=    30.00 Ry     beta=0.70
     Davidson diagonalization with overlap
     c_bands:  1 eigenvalues not converged
     ethr =  1.00E-06,  avg # of iterations = 20.0

     negative rho (up, down):  7.509E-03 0.000E+00

     total cpu time spent up to now is        6.8 secs

     total energy              =     -31.45891017 Ry
     Harris-Foulkes estimate   =     -31.45717758 Ry
     estimated scf accuracy    <       0.03034132 Ry

     iteration #  2     ecut=    30.00 Ry     beta=0.70
     Davidson diagonalization with overlap
     ethr =  3.79E-04,  avg # of iterations =  2.0

     negative rho (up, down):  6.979E-03 0.000E+00

     total cpu time spent up to now is        6.8 secs

     total energy              =     -31.47839865 Ry
     Harris-Foulkes estimate   =     -31.87417521 Ry
     estimated scf accuracy    <       4.23651185 Ry

     iteration #  3     ecut=    30.00 Ry     beta=0.70
     Davidson diagonalization with overlap
     ethr =  3.79E-04,  avg # of iterations =  2.0

     negative rho (up, down):  6.822E-03 0.000E+00

     total cpu time spent up to now is        6.8 secs

     total energy              =     -31.47807959 Ry
     Harris-Foulkes estimate   =     -31.50324161 Ry
     estimated scf accuracy    <       1.03967660 Ry

     iteration #  4     ecut=    30.00 Ry     beta=0.70
     Davidson diagonalization with overlap
     ethr =  3.79E-04,  avg # of iterations =  1.0

     negative rho (up, down):  3.491E-03 0.000E+00

     total cpu time spent up to now is        6.9 secs

     total energy              =     -31.45851398 Ry
     Harris-Foulkes estimate   =     -31.48773692 Ry
     estimated scf accuracy    <       0.41600511 Ry

     iteration #  5     ecut=    30.00 Ry     beta=0.70
     Davidson diagonalization with overlap
     ethr =  3.79E-04,  avg # of iterations =  1.0

     negative rho (up, down):  8.275E-04 0.000E+00

     total cpu time spent up to now is        6.9 secs

     total energy              =     -31.46655707 Ry
     Harris-Foulkes estimate   =     -31.52287424 Ry
     estimated scf accuracy    <       2.17626242 Ry

     iteration #  6     ecut=    30.00 Ry     beta=0.70
     Davidson diagonalization with overlap
     ethr =  3.79E-04,  avg # of iterations =  3.0

     negative rho (up, down):  1.102E-04 0.000E+00

     total cpu time spent up to now is        6.9 secs

     total energy              =     -31.49032429 Ry
     Harris-Foulkes estimate   =     -31.49030244 Ry
     estimated scf accuracy    <       0.00252259 Ry

     iteration #  7     ecut=    30.00 Ry     beta=0.70
     Davidson diagonalization with overlap
     ethr =  3.15E-05,  avg # of iterations = 10.0

     negative rho (up, down):  2.809E-05 0.000E+00

     total cpu time spent up to now is        7.0 secs

     total energy              =     -31.49044338 Ry
     Harris-Foulkes estimate   =     -31.49045109 Ry
     estimated scf accuracy    <       0.00931143 Ry

     iteration #  8     ecut=    30.00 Ry     beta=0.70
     Davidson diagonalization with overlap
     ethr =  3.15E-05,  avg # of iterations =  1.0

     negative rho (up, down):  2.068E-08 0.000E+00

     total cpu time spent up to now is        7.0 secs

     total energy              =     -31.49041511 Ry
     Harris-Foulkes estimate   =     -31.49044669 Ry
     estimated scf accuracy    <       0.00809478 Ry

     iteration #  9     ecut=    30.00 Ry     beta=0.70
     Davidson diagonalization with overlap
     ethr =  3.15E-05,  avg # of iterations =  1.0

     total cpu time spent up to now is        7.0 secs

     total energy              =     -31.49030878 Ry
     Harris-Foulkes estimate   =     -31.49042491 Ry
     estimated scf accuracy    <       0.00375350 Ry

     iteration # 10     ecut=    30.00 Ry     beta=0.70
     Davidson diagonalization with overlap
     ethr =  3.15E-05,  avg # of iterations =  1.0

     total cpu time spent up to now is        7.1 secs

     total energy              =     -31.49040323 Ry
     Harris-Foulkes estimate   =     -31.49040931 Ry
     estimated scf accuracy    <       0.00192306 Ry

     iteration # 11     ecut=    30.00 Ry     beta=0.70
     Davidson diagonalization with overlap
     ethr =  2.40E-05,  avg # of iterations =  1.0

     total cpu time spent up to now is        7.1 secs

     total energy              =     -31.49038076 Ry
     Harris-Foulkes estimate   =     -31.49040376 Ry
     estimated scf accuracy    <       0.00135517 Ry

     iteration # 12     ecut=    30.00 Ry     beta=0.70
     Davidson diagonalization with overlap
     ethr =  1.69E-05,  avg # of iterations =  1.0

     total cpu time spent up to now is        7.1 secs

     total energy              =     -31.49039166 Ry
     Harris-Foulkes estimate   =     -31.49039111 Ry
     estimated scf accuracy    <       0.00001261 Ry

     iteration # 13     ecut=    30.00 Ry     beta=0.70
     Davidson diagonalization with overlap
     ethr =  1.58E-07,  avg # of iterations =  1.0

     total cpu time spent up to now is        7.2 secs

     total energy              =     -31.49039061 Ry
     Harris-Foulkes estimate   =     -31.49039182 Ry
     estimated scf accuracy    <       0.00005567 Ry

     iteration # 14     ecut=    30.00 Ry     beta=0.70
     Davidson diagonalization with overlap
     ethr =  1.58E-07,  avg # of iterations =  1.0

     total cpu time spent up to now is        7.2 secs

     total energy              =     -31.49039124 Ry
     Harris-Foulkes estimate   =     -31.49039119 Ry
     estimated scf accuracy    <       0.00000011 Ry

     iteration # 15     ecut=    30.00 Ry     beta=0.70
     Davidson diagonalization with overlap
     ethr =  1.32E-09,  avg # of iterations =  1.0

     total cpu time spent up to now is        7.2 secs

     End of self-consistent calculation

          k = 0.0000 0.0000 0.0000 ( 22119 PWs)   bands (ev):

   -23.6348  -7.0474  -7.0430  -7.0424  -6.9623  -6.9102  -0.2282   0.6523

     the Fermi energy is    -6.9086 ev

!    total energy              =     -31.49039128 Ry
     Harris-Foulkes estimate   =     -31.49039125 Ry
     estimated scf accuracy    <          1.3E-10 Ry

     convergence has been achieved in  15 iterations

     Forces acting on atoms (Ry/au):

     atom    1 type  1   force =    -0.00028583   -0.00012161   -0.00046894
     atom    2 type  1   force =    -0.00053416   -0.00017508   -0.00022296
     atom    3 type  2   force =     0.00081999    0.00029669    0.00069190

     Total force =     0.001386     Total SCF correction =     0.000021

     Entering Dynamics:    iteration =     7
                           time      =   0.0339 pico-seconds


     Andersen thermostat:    3 collisions

ATOMIC_POSITIONS (bohr)
H        8.021967624  15.631623954   9.094464276
H       16.060855496  11.225878765  10.749130977
O        6.997494364   0.676524187   1.162777761


     kinetic energy (Ekin) =     0.03310374 Ry
     temperature           =  1742.22010187 K 
     Ekin + Etot (const)   =   -31.45728754 Ry
     Message from routine dynamics:
     Total linear momentum <> 0

     Linear momentum :   -0.3069950243    0.3266894388   -0.1214852424

     Writing output data file pwscf.save

     second order wave-functions extrapolation
     Check: negative starting charge=   -0.351073
     second order charge density extrapolation
     Check: negative starting charge=   -0.351390

     negative rho (up, down):  2.253E-02 0.000E+00

     total cpu time spent up to now is        7.5 secs

     per-process dynamical memory:    20.4 Mb

     Self-consistent Calculation

     iteration #  1     ecut=    30.00 Ry     beta=0.70
     Davidson diagonalization with overlap
     c_bands:  1 eigenvalues not converged
     ethr =  1.00E-06,  avg # of iterations = 20.0

     negative rho (up, down):  4.638E-03 0.000E+00

     total cpu time spent up to now is        7.6 secs

     total energy              =     -31.48469464 Ry
     Harris-Foulkes estimate   =     -31.46783953 Ry
     estimated scf accuracy    <       0.00191704 Ry

     iteration #  2     ecut=    30.00 Ry     beta=0.70
     Davidson diagonalization with overlap
     ethr =  2.40E-05,  avg # of iterations =  5.0

     negative rho (up, down):  4.533E-03 0.000E+00

     total cpu time spent up to now is        7.7 secs

     total energy              =     -31.46294856 Ry
     Harris-Foulkes estimate   =     -31.52588685 Ry
     estimated scf accuracy    <       2.16260060 Ry

     iteration #  3     ecut=    30.00 Ry     beta=0.70
     Davidson diagonalization with overlap
     ethr =  2.40E-05,  avg # of iterations =  2.0

     negative rho (up, down):  4.371E-03 0.000E+00

     total cpu time spent up to now is        7.7 secs

     total energy              =     -31.48056986 Ry
     Harris-Foulkes estimate   =     -31.49335016 Ry
     estimated scf accuracy    <       0.34124395 Ry

     iteration #  4     ecut=    30.00 Ry     beta=0.70
     Davidson diagonalization with overlap
     ethr =  2.40E-05,  avg # of iterations =  1.0

     negative rho (up, down):  1.336E-03 0.000E+00

     total cpu time spent up to now is        7.7 secs

     total energy              =     -31.48970803 Ry
     Harris-Foulkes estimate   =     -31.48648207 Ry
     estimated scf accuracy    <       0.00246555 Ry

     iteration #  5     ecut=    30.00 Ry     beta=0.70
     Davidson diagonalization with overlap
     ethr =  2.40E-05,  avg # of iterations = 11.0

     negative rho (up, down):  2.784E-04 0.000E+00

     total cpu time spent up to now is        7.8 secs

     total energy              =     -31.49027433 Ry
     Harris-Foulkes estimate   =     -31.48975829 Ry
     estimated scf accuracy    <       0.00018045 Ry

     iteration #  6     ecut=    30.00 Ry     beta=0.70
     Davidson diagonalization with overlap
     ethr =  2.26E-06,  avg # of iterations = 19.0

     negative rho (up, down):  2.308E-07 0.000E+00

     total cpu time spent up to now is        7.8 secs

     total energy              =     -31.49028840 Ry
     Harris-Foulkes estimate   =     -31.49028884 Ry
     estimated scf accuracy    <       0.00006910 Ry

     iteration #  7     ecut=    30.00 Ry     beta=0.70
     Davidson diagonalization with overlap
     ethr =  8.64E-07,  avg # of iterations =  6.0

     total cpu time spent up to now is        7.9 secs

     total energy              =     -31.49029060 Ry
     Harris-Foulkes estimate   =     -31.49029146 Ry
     estimated scf accuracy    <       0.00001012 Ry

     iteration #  8     ecut=    30.00 Ry     beta=0.70
     Davidson diagonalization with overlap
     ethr =  1.26E-07,  avg # of iterations =  1.0

     total cpu time spent up to now is        7.9 secs

     total energy              =     -31.49029077 Ry
     Harris-Foulkes estimate   =     -31.49029109 Ry
     estimated scf accuracy    <       0.00000284 Ry

     iteration #  9     ecut=    30.00 Ry     beta=0.70
     Davidson diagonalization with overlap
     ethr =  3.55E-08,  avg # of iterations =  1.0

     total cpu time spent up to now is        7.9 secs

     total energy              =     -31.49029054 Ry
     Harris-Foulkes estimate   =     -31.49029079 Ry
     estimated scf accuracy    <       0.00000070 Ry

     iteration # 10     ecut=    30.00 Ry     beta=0.70
     Davidson diagonalization with overlap
     ethr =  8.79E-09,  avg # of iterations =  1.0

     total cpu time spent up to now is        8.0 secs

     total energy              =     -31.49029036 Ry
     Harris-Foulkes estimate   =     -31.49029057 Ry
     estimated scf accuracy    <       0.00000024 Ry

     iteration # 11     ecut=    30.00 Ry     beta=0.70
     Davidson diagonalization with overlap
     ethr =  3.01E-09,  avg # of iterations =  1.0

     total cpu time spent up to now is        8.0 secs

     End of self-consistent calculation

          k = 0.0000 0.0000 0.0000 ( 22119 PWs)   bands (ev):

   -23.6341  -7.0455  -7.0423  -7.0415  -6.9581  -6.9144  -0.2299   0.5981

     the Fermi energy is    -6.9079 ev

!    total energy              =     -31.49029036 Ry
     Harris-Foulkes estimate   =     -31.49029036 Ry
     estimated scf accuracy    <          3.9E-09 Ry

     convergence has been achieved in  11 iterations

     Forces acting on atoms (Ry/au):

     atom    1 type  1   force =    -0.00026745   -0.00002695   -0.00050129
     atom    2 type  1   force =    -0.00040459   -0.00018217   -0.00029443
     atom    3 type  2   force =     0.00067204    0.00020912    0.00079572

     Total force =     0.001317     Total SCF correction =     0.000074

     Entering Dynamics:    iteration =     8
                           time      =   0.0387 pico-seconds


     Andersen thermostat:    3 collisions

ATOMIC_POSITIONS (bohr)
H        7.854768370  15.712668410   8.876388733
H       16.031018988  11.393766008  10.879766120
O        7.009932247   0.660810374   1.168297436


     kinetic energy (Ekin) =     0.00923301 Ry
     temperature           =   485.92509779 K 
     Ekin + Etot (const)   =   -31.48105735 Ry
     Message from routine dynamics:
     Total linear momentum <> 0

     Linear momentum :    0.1281145736    0.0309884823    0.4842754880

     Writing output data file pwscf.save

     second order wave-functions extrapolation
     Check: negative starting charge=   -0.351390
     second order charge density extrapolation
     Check: negative starting charge=   -0.350882

     negative rho (up, down):  3.973E-02 0.000E+00

     total cpu time spent up to now is        8.5 secs

     per-process dynamical memory:    20.4 Mb

     Self-consistent Calculation

     iteration #  1     ecut=    30.00 Ry     beta=0.70
     Davidson diagonalization with overlap
     ethr =  1.00E-06,  avg # of iterations = 20.0

     negative rho (up, down):  8.726E-03 0.000E+00

     total cpu time spent up to now is        8.6 secs

     total energy              =     -31.46765426 Ry
     Harris-Foulkes estimate   =     -31.45292865 Ry
     estimated scf accuracy    <       0.01810003 Ry

     iteration #  2     ecut=    30.00 Ry     beta=0.70
     Davidson diagonalization with overlap
     ethr =  2.26E-04,  avg # of iterations =  2.0

     negative rho (up, down):  8.242E-03 0.000E+00

     total cpu time spent up to now is        8.6 secs

[...]
     Harris-Foulkes estimate   =    -119.42511414 Ry
     estimated scf accuracy    <      24.35864686 Ry

     iteration # 59     ecut=    30.00 Ry     beta=0.70
     Davidson diagonalization with overlap
     ethr =  1.00E-02,  avg # of iterations =  6.0

     negative rho (up, down):  2.822E-01 0.000E+00

     total cpu time spent up to now is       12.3 secs

     total energy              =      26.29308902 Ry
     Harris-Foulkes estimate   =    -150.05076014 Ry
     estimated scf accuracy    <      31.74306829 Ry

     iteration # 60     ecut=    30.00 Ry     beta=0.70
     Davidson diagonalization with overlap
     ethr =  1.00E-02,  avg # of iterations =  3.0

     negative rho (up, down):  4.940E-01 0.000E+00

     total cpu time spent up to now is       12.4 secs

     total energy              =      10.13684403 Ry
     Harris-Foulkes estimate   =   -2722.56788888 Ry
     estimated scf accuracy    <      29.86401907 Ry

     iteration # 61     ecut=    30.00 Ry     beta=0.70
     Davidson diagonalization with overlap
     ethr =  1.00E-02,  avg # of iterations = 11.0

     negative rho (up, down):  4.708E-01 0.000E+00

     total cpu time spent up to now is       12.4 secs

     total energy              =      85.65213936 Ry
     Harris-Foulkes estimate   =    -965.25966481 Ry
     estimated scf accuracy    <      19.08919753 Ry

     iteration # 62     ecut=    30.00 Ry     beta=0.70
     Davidson diagonalization with overlap
     ethr =  1.00E-02,  avg # of iterations =  9.0

     negative rho (up, down):  5.629E-01 0.000E+00

     total cpu time spent up to now is       12.5 secs

     total energy              =   -1351.82847969 Ry
     Harris-Foulkes estimate   =    -220.20051898 Ry
     estimated scf accuracy    <      26.58224775 Ry

     iteration # 63     ecut=    30.00 Ry     beta=0.70
     Davidson diagonalization with overlap
     ethr =  1.00E-02,  avg # of iterations =  5.0

     negative rho (up, down):  8.106E-01 0.000E+00

     total cpu time spent up to now is       12.5 secs

     total energy              =    1142.92362061 Ry
     Harris-Foulkes estimate   =   -9320.67228410 Ry
     estimated scf accuracy    <      32.74542532 Ry

     iteration # 64     ecut=    30.00 Ry     beta=0.70
     Davidson diagonalization with overlap
     ethr =  1.00E-02,  avg # of iterations =  6.0

     negative rho (up, down):  9.816E-01 0.000E+00

     total cpu time spent up to now is       12.6 secs

     total energy              =    -123.69933474 Ry
     Harris-Foulkes estimate   =    -274.61165276 Ry
     estimated scf accuracy    <      41.15444663 Ry

     iteration # 65     ecut=    30.00 Ry     beta=0.70
     Davidson diagonalization with overlap
     ethr =  1.00E-02,  avg # of iterations =  7.0

     negative rho (up, down):  5.917E-01 0.000E+00

     total cpu time spent up to now is       12.6 secs

     total energy              =     119.54764112 Ry
     Harris-Foulkes estimate   =   -5783.00360998 Ry
     estimated scf accuracy    <      20.95497676 Ry

     iteration # 66     ecut=    30.00 Ry     beta=0.70
     Davidson diagonalization with overlap
     ethr =  1.00E-02,  avg # of iterations = 14.0

     negative rho (up, down):  3.413E-01 0.000E+00

     total cpu time spent up to now is       12.7 secs

     total energy              =       5.22793905 Ry
     Harris-Foulkes estimate   =    -407.48925672 Ry
     estimated scf accuracy    <      19.61289099 Ry

     iteration # 67     ecut=    30.00 Ry     beta=0.70
     Davidson diagonalization with overlap
     ethr =  1.00E-02,  avg # of iterations =  8.0

     negative rho (up, down):  1.995E-01 0.000E+00

     total cpu time spent up to now is       12.8 secs

     total energy              =      23.67933181 Ry
     Harris-Foulkes estimate   =   -3100.07656644 Ry
     estimated scf accuracy    <      22.45321024 Ry

     iteration # 68     ecut=    30.00 Ry     beta=0.70
     Davidson diagonalization with overlap
     ethr =  1.00E-02,  avg # of iterations =  8.0

     negative rho (up, down):  3.069E-01 0.000E+00

     total cpu time spent up to now is       12.8 secs

     total energy              =      -2.85963831 Ry
     Harris-Foulkes estimate   =   -1099.54488556 Ry
     estimated scf accuracy    <      25.94164108 Ry

     iteration # 69     ecut=    30.00 Ry     beta=0.70
     Davidson diagonalization with overlap
     ethr =  1.00E-02,  avg # of iterations =  5.0

     negative rho (up, down):  4.212E-01 0.000E+00

     total cpu time spent up to now is       12.9 secs

     total energy              =      66.60325038 Ry
     Harris-Foulkes estimate   =   -1184.07074718 Ry
     estimated scf accuracy    <      27.74810920 Ry

     iteration # 70     ecut=    30.00 Ry     beta=0.70
     Davidson diagonalization with overlap
     ethr =  1.00E-02,  avg # of iterations =  7.0

     negative rho (up, down):  5.656E-01 0.000E+00

     total cpu time spent up to now is       12.9 secs

     total energy              =    -482.14146070 Ry
     Harris-Foulkes estimate   =   -4556.23081340 Ry
     estimated scf accuracy    <      28.79973968 Ry

     iteration # 71     ecut=    30.00 Ry     beta=0.70
     Davidson diagonalization with overlap
     ethr =  1.00E-02,  avg # of iterations = 10.0

     negative rho (up, down):  6.978E-01 0.000E+00

     total cpu time spent up to now is       13.0 secs

     total energy              =     -78.64161295 Ry
     Harris-Foulkes estimate   =   -1789.84640802 Ry
     estimated scf accuracy    <      45.56421462 Ry

     iteration # 72     ecut=    30.00 Ry     beta=0.70
     Davidson diagonalization with overlap
     ethr =  1.00E-02,  avg # of iterations =  9.0

     negative rho (up, down):  4.780E-02 0.000E+00

     total cpu time spent up to now is       13.0 secs

     total energy              =      89.90087976 Ry
     Harris-Foulkes estimate   =  -16375.72424391 Ry
     estimated scf accuracy    <      23.19563681 Ry

     iteration # 73     ecut=    30.00 Ry     beta=0.70
     Davidson diagonalization with overlap
     ethr =  1.00E-02,  avg # of iterations =  9.0

     negative rho (up, down):  7.375E-03 0.000E+00

     total cpu time spent up to now is       13.1 secs

     total energy              =     -19.26518403 Ry
     Harris-Foulkes estimate   =    -722.07713730 Ry
     estimated scf accuracy    <      57.37037404 Ry

     iteration # 74     ecut=    30.00 Ry     beta=0.70
     Davidson diagonalization with overlap
     ethr =  1.00E-02,  avg # of iterations =  5.0

     negative rho (up, down):  1.049E-02 0.000E+00

     total cpu time spent up to now is       13.2 secs

     total energy              =    -185.26448913 Ry
     Harris-Foulkes estimate   =     -64.22355713 Ry
     estimated scf accuracy    <      44.51434355 Ry

     iteration # 75     ecut=    30.00 Ry     beta=0.70
     Davidson diagonalization with overlap
     ethr =  1.00E-02,  avg # of iterations =  5.0

     negative rho (up, down):  3.333E-01 0.000E+00

     total cpu time spent up to now is       13.3 secs

     total energy              =     779.11798764 Ry
     Harris-Foulkes estimate   =    -629.68712167 Ry
     estimated scf accuracy    <      46.54103555 Ry

     iteration # 76     ecut=    30.00 Ry     beta=0.70
     Davidson diagonalization with overlap
     ethr =  1.00E-02,  avg # of iterations =  7.0

     negative rho (up, down):  7.333E-01 0.000E+00

     total cpu time spent up to now is       13.3 secs

     total energy              =      12.75222085 Ry
     Harris-Foulkes estimate   =    -474.77653671 Ry
     estimated scf accuracy    <      53.23632812 Ry

     iteration # 77     ecut=    30.00 Ry     beta=0.70
     Davidson diagonalization with overlap
     ethr =  1.00E-02,  avg # of iterations = 10.0

     negative rho (up, down):  9.156E-01 0.000E+00

     total cpu time spent up to now is       13.4 secs

     total energy              =     -49.48548202 Ry
     Harris-Foulkes estimate   =    -326.75185604 Ry
     estimated scf accuracy    <      50.63313382 Ry

     iteration # 78     ecut=    30.00 Ry     beta=0.70
     Davidson diagonalization with overlap
     ethr =  1.00E-02,  avg # of iterations =  8.0

     negative rho (up, down):  1.074E+00 0.000E+00

     total cpu time spent up to now is       13.4 secs

     total energy              =    -244.46525973 Ry
     Harris-Foulkes estimate   =   -1767.56731960 Ry
     estimated scf accuracy    <      25.33764565 Ry

     iteration # 79     ecut=    30.00 Ry     beta=0.70
     Davidson diagonalization with overlap
     ethr =  1.00E-02,  avg # of iterations =  8.0

     negative rho (up, down):  1.365E+00 0.000E+00

     total cpu time spent up to now is       13.5 secs

     total energy              =    -648.66634844 Ry
     Harris-Foulkes estimate   =  -10607.99479138 Ry
     estimated scf accuracy    <      47.49525043 Ry

     iteration # 80     ecut=    30.00 Ry     beta=0.70
     Davidson diagonalization with overlap
     ethr =  1.00E-02,  avg # of iterations =  6.0

     negative rho (up, down):  1.838E+00 0.000E+00

     total cpu time spent up to now is       13.6 secs

     total energy              =      23.82275090 Ry
     Harris-Foulkes estimate   =  -22373.12150215 Ry
     estimated scf accuracy    <      36.24453849 Ry

     iteration # 81     ecut=    30.00 Ry     beta=0.70
     Davidson diagonalization with overlap
     ethr =  1.00E-02,  avg # of iterations =  8.0

     negative rho (up, down):  1.706E+00 0.000E+00

     total cpu time spent up to now is       13.7 secs

     total energy              =    -166.38883899 Ry
     Harris-Foulkes estimate   =   -1059.27236191 Ry
     estimated scf accuracy    <      34.15073999 Ry

     iteration # 82     ecut=    30.00 Ry     beta=0.70
     Davidson diagonalization with overlap
     ethr =  1.00E-02,  avg # of iterations =  6.0

     negative rho (up, down):  1.121E+00 0.000E+00

     total cpu time spent up to now is       13.7 secs

     total energy              =     -61.77036467 Ry
     Harris-Foulkes estimate   =   -9576.98161467 Ry
     estimated scf accuracy    <      23.61593441 Ry

     iteration # 83     ecut=    30.00 Ry     beta=0.70
     Davidson diagonalization with overlap
     ethr =  1.00E-02,  avg # of iterations =  7.0

     negative rho (up, down):  1.224E+00 0.000E+00

     total cpu time spent up to now is       13.8 secs

     total energy              =    2020.47379312 Ry
     Harris-Foulkes estimate   =    -864.22182491 Ry
     estimated scf accuracy    <      28.65558313 Ry

     iteration # 84     ecut=    30.00 Ry     beta=0.70
     Davidson diagonalization with overlap
     ethr =  1.00E-02,  avg # of iterations = 10.0

     negative rho (up, down):  4.534E-01 0.000E+00

     total cpu time spent up to now is       13.8 secs

     total energy              =      -6.21437596 Ry
     Harris-Foulkes estimate   =   -3012.03388054 Ry
     estimated scf accuracy    <      20.62551355 Ry

     iteration # 85     ecut=    30.00 Ry     beta=0.70
     Davidson diagonalization with overlap
     ethr =  1.00E-02,  avg # of iterations = 11.0

     negative rho (up, down):  6.505E-01 0.000E+00

     total cpu time spent up to now is       13.9 secs

     total energy              =      75.37890669 Ry
     Harris-Foulkes estimate   =   -1213.50645942 Ry
     estimated scf accuracy    <      34.39759490 Ry

     iteration # 86     ecut=    30.00 Ry     beta=0.70
     Davidson diagonalization with overlap
     ethr =  1.00E-02,  avg # of iterations =  7.0

     negative rho (up, down):  6.960E-01 0.000E+00

     total cpu time spent up to now is       13.9 secs

     total energy              =      76.14295901 Ry
     Harris-Foulkes estimate   =   -1034.39130541 Ry
     estimated scf accuracy    <      37.80064786 Ry

     iteration # 87     ecut=    30.00 Ry     beta=0.70
     Davidson diagonalization with overlap
     ethr =  1.00E-02,  avg # of iterations =  8.0

     negative rho (up, down):  4.826E-01 0.000E+00

     total cpu time spent up to now is       14.0 secs

     total energy              =    -641.73005874 Ry
     Harris-Foulkes estimate   =    -488.83035678 Ry
     estimated scf accuracy    <      23.20394175 Ry

     iteration # 88     ecut=    30.00 Ry     beta=0.70
     Davidson diagonalization with overlap
     ethr =  1.00E-02,  avg # of iterations =  7.0

     negative rho (up, down):  1.099E-01 0.000E+00

     total cpu time spent up to now is       14.1 secs

     total energy              =    9042.38826258 Ry
     Harris-Foulkes estimate   =   -1687.81200140 Ry
     estimated scf accuracy    <      26.30029695 Ry

     iteration # 89     ecut=    30.00 Ry     beta=0.70
     Davidson diagonalization with overlap
     ethr =  1.00E-02,  avg # of iterations =  9.0

     negative rho (up, down):  9.267E-02 0.000E+00

     total cpu time spent up to now is       14.1 secs

     total energy              =      67.03919988 Ry
     Harris-Foulkes estimate   =   -1110.09663172 Ry
     estimated scf accuracy    <      23.60878740 Ry

     iteration # 90     ecut=    30.00 Ry     beta=0.70
     Davidson diagonalization with overlap
     ethr =  1.00E-02,  avg # of iterations =  9.0

     negative rho (up, down):  1.404E-01 0.000E+00

     total cpu time spent up to now is       14.2 secs

     total energy              =       3.99915605 Ry
     Harris-Foulkes estimate   =    -244.29035285 Ry
     estimated scf accuracy    <      23.20673511 Ry

     iteration # 91     ecut=    30.00 Ry     beta=0.70
     Davidson diagonalization with overlap
     ethr =  1.00E-02,  avg # of iterations =  6.0

     negative rho (up, down):  1.924E-01 0.000E+00

     total cpu time spent up to now is       14.2 secs

     total energy              =      51.61427004 Ry
     Harris-Foulkes estimate   =    -506.70561800 Ry
     estimated scf accuracy    <      16.95307066 Ry

     iteration # 92     ecut=    30.00 Ry     beta=0.70
     Davidson diagonalization with overlap
     ethr =  1.00E-02,  avg # of iterations =  8.0

     negative rho (up, down):  1.791E-01 0.000E+00

     total cpu time spent up to now is       14.3 secs

     total energy              =    -493.55790766 Ry
     Harris-Foulkes estimate   =   -1440.74984016 Ry
     estimated scf accuracy    <      22.90954959 Ry

     iteration # 93     ecut=    30.00 Ry     beta=0.70
     Davidson diagonalization with overlap
     ethr =  1.00E-02,  avg # of iterations = 11.0

     negative rho (up, down):  2.225E-01 0.000E+00

     total cpu time spent up to now is       14.3 secs

     total energy              =    -525.43736392 Ry
     Harris-Foulkes estimate   =   -3126.53000401 Ry
     estimated scf accuracy    <      38.14471233 Ry

     iteration # 94     ecut=    30.00 Ry     beta=0.70
     Davidson diagonalization with overlap
     ethr =  1.00E-02,  avg # of iterations =  6.0

     negative rho (up, down):  2.439E-01 0.000E+00

     total cpu time spent up to now is       14.4 secs

     total energy              =  126887.37609267 Ry
     Harris-Foulkes estimate   =   -3448.65510675 Ry
     estimated scf accuracy    <      31.86731399 Ry

     iteration # 95     ecut=    30.00 Ry     beta=0.70
     Davidson diagonalization with overlap
     ethr =  1.00E-02,  avg # of iterations =  7.0

     negative rho (up, down):  5.559E-03 0.000E+00

     total cpu time spent up to now is       14.4 secs

     total energy              =      70.82989040 Ry
     Harris-Foulkes estimate   =   -5508.71340849 Ry
     estimated scf accuracy    <      19.28043152 Ry

     iteration # 96     ecut=    30.00 Ry     beta=0.70
     Davidson diagonalization with overlap
     ethr =  1.00E-02,  avg # of iterations =  6.0

     negative rho (up, down):  1.134E-03 0.000E+00

     total cpu time spent up to now is       14.5 secs

     total energy              =     -32.61881571 Ry
     Harris-Foulkes estimate   =     -36.37186457 Ry
     estimated scf accuracy    <      19.91916119 Ry

     iteration # 97     ecut=    30.00 Ry     beta=0.70
     Davidson diagonalization with overlap
     ethr =  1.00E-02,  avg # of iterations =  4.0

     negative rho (up, down):  1.762E-01 0.000E+00

     total cpu time spent up to now is       14.5 secs

     total energy              =     -32.43846382 Ry
     Harris-Foulkes estimate   =     -33.92736856 Ry
     estimated scf accuracy    <       8.98276140 Ry

     iteration # 98     ecut=    30.00 Ry     beta=0.70
     Davidson diagonalization with overlap
     ethr =  1.00E-02,  avg # of iterations =  1.0

     negative rho (up, down):  1.313E-01 0.000E+00

     total cpu time spent up to now is       14.6 secs

     total energy              =     -31.90101702 Ry
     Harris-Foulkes estimate   =     -32.70630910 Ry
     estimated scf accuracy    <       3.96372282 Ry

     iteration # 99     ecut=    30.00 Ry     beta=0.70
     Davidson diagonalization with overlap
     ethr =  1.00E-02,  avg # of iterations =  1.0

     negative rho (up, down):  1.384E-04 0.000E+00

     total cpu time spent up to now is       14.6 secs

     total energy              =     -32.50524837 Ry
     Harris-Foulkes estimate   =     -33.03541856 Ry
     estimated scf accuracy    <       4.07808081 Ry

     iteration #100     ecut=    30.00 Ry     beta=0.70
     Davidson diagonalization with overlap
     ethr =  1.00E-02,  avg # of iterations =  2.0

     negative rho (up, down):  2.068E-01 0.000E+00

     total cpu time spent up to now is       14.6 secs

     total energy              =     -32.72878047 Ry
     Harris-Foulkes estimate   =     -33.48851451 Ry
     estimated scf accuracy    <       6.94244917 Ry

     End of self-consistent calculation

     convergence NOT achieved after 100 iterations: stopping

     Writing output data file pwscf.save
 
     init_run     :      0.09s CPU      0.11s WALL (       1 calls)
     electrons    :      9.31s CPU     12.00s WALL (      10 calls)
     update_pot   :      1.16s CPU      1.75s WALL (       9 calls)
     forces       :      0.22s CPU      0.23s WALL (       9 calls)

     Called by init_run:
     wfcinit      :      0.01s CPU      0.02s WALL (       1 calls)
     potinit      :      0.03s CPU      0.03s WALL (       1 calls)

     Called by electrons:
     c_bands      :      4.63s CPU      4.94s WALL (     268 calls)
     sum_band     :      0.77s CPU      0.83s WALL (     268 calls)
     v_of_rho     :      2.00s CPU      2.11s WALL (     278 calls)
     mix_rho      :      1.62s CPU      2.94s WALL (     268 calls)

     Called by c_bands:
     init_us_2    :      0.02s CPU      0.03s WALL (     537 calls)
     cegterg      :      4.57s CPU      4.78s WALL (     268 calls)

     Called by sum_band:

     Called by *egterg:
     h_psi        :      3.81s CPU      3.95s WALL (    1432 calls)
     g_psi        :      0.04s CPU      0.04s WALL (    1163 calls)
     cdiaghg      :      0.28s CPU      0.33s WALL (    1422 calls)

     Called by h_psi:
     h_psi:pot    :      3.78s CPU      3.93s WALL (    1432 calls)
     h_psi:calbec :      0.05s CPU      0.10s WALL (    1432 calls)
     vloc_psi     :      3.72s CPU      3.81s WALL (    1432 calls)
     add_vuspsi   :      0.01s CPU      0.01s WALL (    1432 calls)

     General routines
     calbec       :      0.12s CPU      0.20s WALL (    1476 calls)
     fft          :      1.32s CPU      1.41s WALL (    3076 calls)
     fftw         :      3.85s CPU      3.98s WALL (   17194 calls)
     davcio       :      0.26s CPU      1.10s WALL (    4483 calls)
 
     Parallel routines
     fft_scatter  :      1.95s CPU      2.07s WALL (   20270 calls)
 
     PWSCF        :    11.10s CPU        14.73s WALL

 
   This run was terminated on:   0:21:40  11Feb2018            

=------------------------------------------------------------------------------=
   JOB DONE.
=------------------------------------------------------------------------------=
