
     Program PWSCF v.6.0 (svn rev. 13079) starts on 11Feb2018 at  0:29: 6 

     This program is part of the open-source Quantum ESPRESSO suite
     for quantum simulation of materials; please cite
         "P. Giannozzi et al., J. Phys.:Condens. Matter 21 395502 (2009);
          URL http://www.quantum-espresso.org", 
     in publications or presentations arising from this work. More details at
     http://www.quantum-espresso.org/quote

     Parallel version (MPI), running on    28 processors
     R & G space division:  proc/nbgrp/npool/nimage =      28
     Reading input from inputs/water-1-md/190.in

     Current dimensions of program PWSCF are:
     Max number of different atomic species (ntypx) = 10
     Max number of k-points (npk) =  40000
     Max angular momentum in pseudopotentials (lmaxx) =  3

     Subspace diagonalization in iterative solution of the eigenvalue problem:
     a serial algorithm will be used

 
     Parallelization info
     --------------------
     sticks:   dense  smooth     PW     G-vecs:    dense   smooth      PW
     Min         136     136     33                 6338     6338     787
     Max         137     137     34                 6341     6341     792
     Sum        3809    3809    949               177509   177509   22119
 


     bravais-lattice index     =            1
     lattice parameter (alat)  =      20.0000  a.u.
     unit-cell volume          =    8000.0000 (a.u.)^3
     number of atoms/cell      =            3
     number of atomic types    =            2
     number of electrons       =         8.00
     number of Kohn-Sham states=            8
     kinetic-energy cutoff     =      30.0000  Ry
     charge density cutoff     =     120.0000  Ry
     convergence threshold     =      1.0E-08
     mixing beta               =       0.7000
     number of iterations used =            8  plain     mixing
     Exchange-correlation      = BLYP ( 1  3  1  3 0 0)
     nstep                     =         5000


     celldm(1)=  20.000000  celldm(2)=   0.000000  celldm(3)=   0.000000
     celldm(4)=   0.000000  celldm(5)=   0.000000  celldm(6)=   0.000000

     crystal axes: (cart. coord. in units of alat)
               a(1) = (   1.000000   0.000000   0.000000 )  
               a(2) = (   0.000000   1.000000   0.000000 )  
               a(3) = (   0.000000   0.000000   1.000000 )  

     reciprocal axes: (cart. coord. in units 2 pi/alat)
               b(1) = (  1.000000  0.000000  0.000000 )  
               b(2) = (  0.000000  1.000000  0.000000 )  
               b(3) = (  0.000000  0.000000  1.000000 )  


     PseudoPot. # 1 for  H read from file:
     ./H.blyp-hgh.UPF
     MD5 check sum: c576e69559cde411e611be972c763230
     Pseudo is Norm-conserving, Zval =  1.0
     Generated in analytical, separable form
     Using radial grid of  929 points,  0 beta functions with: 

     PseudoPot. # 2 for  O read from file:
     ./O.blyp-hgh.UPF
     MD5 check sum: d0b7156309aa9befef28faac7bc56342
     Pseudo is Norm-conserving, Zval =  6.0
     Generated in analytical, separable form
     Using radial grid of 1095 points,  1 beta functions with: 
                l(1) =   0

     atomic species   valence    mass     pseudopotential
        H              1.00     1.01000      H( 1.00)
        O              6.00    16.00000      O( 1.00)

     No symmetry found



   Cartesian axes

     site n.     atom                  positions (alat units)
         1           H   tau(   1) = (   0.8534332   0.6168197   0.6310775  )
         2           H   tau(   2) = (   0.7247883   0.0973943   0.8922225  )
         3           O   tau(   3) = (   0.2283549   0.1084038   0.5354298  )

     number of k points=     1  Marzari-Vanderbilt smearing, width (Ry)=  0.0250
                       cart. coord. in units 2pi/alat
        k(    1) = (   0.0000000   0.0000000   0.0000000), wk =   2.0000000

     Dense  grid:   177509 G-vectors     FFT dimensions: (  72,  72,  72)

     Estimated max dynamical RAM per process >       6.09Mb

     Estimated total allocated dynamical RAM >     170.64Mb

     Initial potential from superposition of free atoms
     Check: negative starting charge=   -0.352888

     starting charge    7.99998, renormalised to    8.00000

     negative rho (up, down):  3.529E-01 0.000E+00
     Starting wfc are    6 randomized atomic wfcs +    2 random wfc

     total cpu time spent up to now is        0.3 secs

     per-process dynamical memory:    18.8 Mb

     Self-consistent Calculation

     iteration #  1     ecut=    30.00 Ry     beta=0.70
     Davidson diagonalization with overlap
     ethr =  1.00E-02,  avg # of iterations =  7.0

     negative rho (up, down):  8.491E-02 0.000E+00

     total cpu time spent up to now is        0.3 secs

     total energy              =     -28.04589514 Ry
     Harris-Foulkes estimate   =     -32.08516566 Ry
     estimated scf accuracy    <       4.62888273 Ry

     iteration #  2     ecut=    30.00 Ry     beta=0.70
     Davidson diagonalization with overlap
     ethr =  1.00E-02,  avg # of iterations =  4.0

     negative rho (up, down):  6.218E-02 0.000E+00

     total cpu time spent up to now is        0.4 secs

     total energy              =     -32.67087136 Ry
     Harris-Foulkes estimate   =     -38.01275869 Ry
     estimated scf accuracy    <      13.00744327 Ry

     iteration #  3     ecut=    30.00 Ry     beta=0.70
     Davidson diagonalization with overlap
     ethr =  1.00E-02,  avg # of iterations =  2.0

     negative rho (up, down):  6.416E-02 0.000E+00

     total cpu time spent up to now is        0.4 secs

     total energy              =     -33.22092639 Ry
     Harris-Foulkes estimate   =     -33.01023864 Ry
     estimated scf accuracy    <       5.04974611 Ry

     iteration #  4     ecut=    30.00 Ry     beta=0.70
     Davidson diagonalization with overlap
     ethr =  1.00E-02,  avg # of iterations =  1.0

     negative rho (up, down):  2.529E-02 0.000E+00

     total cpu time spent up to now is        0.5 secs

     total energy              =     -30.18324551 Ry
     Harris-Foulkes estimate   =     -33.22148852 Ry
     estimated scf accuracy    <       5.35891772 Ry

     iteration #  5     ecut=    30.00 Ry     beta=0.70
     Davidson diagonalization with overlap
     ethr =  1.00E-02,  avg # of iterations =  5.0

     negative rho (up, down):  2.483E-02 0.000E+00

     total cpu time spent up to now is        0.5 secs

     total energy              =     -33.31175980 Ry
     Harris-Foulkes estimate   =     -33.32071493 Ry
     estimated scf accuracy    <      13.67928297 Ry

     iteration #  6     ecut=    30.00 Ry     beta=0.70
     Davidson diagonalization with overlap
     ethr =  1.00E-02,  avg # of iterations =  1.0

     negative rho (up, down):  4.142E-02 0.000E+00

     total cpu time spent up to now is        0.5 secs

     total energy              =     -33.31041480 Ry
     Harris-Foulkes estimate   =     -33.31872382 Ry
     estimated scf accuracy    <      13.71857789 Ry

     iteration #  7     ecut=    30.00 Ry     beta=0.70
     Davidson diagonalization with overlap
     ethr =  1.00E-02,  avg # of iterations =  1.0

     negative rho (up, down):  2.083E-01 0.000E+00

     total cpu time spent up to now is        0.6 secs

     total energy              =     -32.43064039 Ry
     Harris-Foulkes estimate   =     -33.31430856 Ry
     estimated scf accuracy    <      13.55459275 Ry

     iteration #  8     ecut=    30.00 Ry     beta=0.70
     Davidson diagonalization with overlap
     ethr =  1.00E-02,  avg # of iterations =  2.0

     negative rho (up, down):  7.933E-02 0.000E+00

     total cpu time spent up to now is        0.6 secs

     total energy              =     -32.33024726 Ry
     Harris-Foulkes estimate   =     -32.65102408 Ry
     estimated scf accuracy    <       5.58262060 Ry

     iteration #  9     ecut=    30.00 Ry     beta=0.70
     Davidson diagonalization with overlap
     ethr =  1.00E-02,  avg # of iterations =  1.0

     negative rho (up, down):  2.831E-02 0.000E+00

     total cpu time spent up to now is        0.6 secs

     total energy              =     -31.76761163 Ry
     Harris-Foulkes estimate   =     -32.33500330 Ry
     estimated scf accuracy    <       5.00527282 Ry

     iteration # 10     ecut=    30.00 Ry     beta=0.70
     Davidson diagonalization with overlap
     ethr =  1.00E-02,  avg # of iterations =  1.0

     negative rho (up, down):  9.115E-02 0.000E+00

     total cpu time spent up to now is        0.7 secs

     total energy              =     -31.61599976 Ry
     Harris-Foulkes estimate   =     -31.77861595 Ry
     estimated scf accuracy    <       4.07328699 Ry

     iteration # 11     ecut=    30.00 Ry     beta=0.70
     Davidson diagonalization with overlap
     ethr =  1.00E-02,  avg # of iterations =  1.0

     negative rho (up, down):  3.620E-02 0.000E+00

     total cpu time spent up to now is        0.7 secs

     total energy              =     -31.82491897 Ry
     Harris-Foulkes estimate   =     -31.61761416 Ry
     estimated scf accuracy    <       3.95164943 Ry

     iteration # 12     ecut=    30.00 Ry     beta=0.70
     Davidson diagonalization with overlap
     ethr =  1.00E-02,  avg # of iterations =  1.0

     negative rho (up, down):  3.550E-01 0.000E+00

     total cpu time spent up to now is        0.7 secs

     total energy              =     -30.60618651 Ry
     Harris-Foulkes estimate   =     -31.82306024 Ry
     estimated scf accuracy    <       4.12528038 Ry

     iteration # 13     ecut=    30.00 Ry     beta=0.70
     Davidson diagonalization with overlap
     ethr =  1.00E-02,  avg # of iterations =  1.0

     negative rho (up, down):  4.188E-01 0.000E+00

     total cpu time spent up to now is        0.8 secs

     total energy              =     -31.84849325 Ry
     Harris-Foulkes estimate   =     -32.29381469 Ry
     estimated scf accuracy    <       3.98362450 Ry

     iteration # 14     ecut=    30.00 Ry     beta=0.70
     Davidson diagonalization with overlap
     ethr =  1.00E-02,  avg # of iterations =  1.0

     negative rho (up, down):  4.790E-03 0.000E+00

     total cpu time spent up to now is        0.8 secs

     total energy              =     -31.12110072 Ry
     Harris-Foulkes estimate   =     -31.85302238 Ry
     estimated scf accuracy    <       3.36708008 Ry

     iteration # 15     ecut=    30.00 Ry     beta=0.70
     Davidson diagonalization with overlap
     ethr =  1.00E-02,  avg # of iterations =  1.0

     total cpu time spent up to now is        0.8 secs

     total energy              =     -31.83526670 Ry
     Harris-Foulkes estimate   =     -31.85494573 Ry
     estimated scf accuracy    <       4.16140689 Ry

     iteration # 16     ecut=    30.00 Ry     beta=0.70
     Davidson diagonalization with overlap
     ethr =  1.00E-02,  avg # of iterations =  1.0

     negative rho (up, down):  3.979E-03 0.000E+00

     total cpu time spent up to now is        0.9 secs

     total energy              =     -31.68752005 Ry
     Harris-Foulkes estimate   =     -31.83597956 Ry
     estimated scf accuracy    <       4.13811674 Ry

     iteration # 17     ecut=    30.00 Ry     beta=0.70
     Davidson diagonalization with overlap
     ethr =  1.00E-02,  avg # of iterations =  1.0

     negative rho (up, down):  1.518E-04 0.000E+00

     total cpu time spent up to now is        0.9 secs

     total energy              =     -31.71888831 Ry
     Harris-Foulkes estimate   =     -31.68812661 Ry
     estimated scf accuracy    <       3.91713534 Ry

     iteration # 18     ecut=    30.00 Ry     beta=0.70
     Davidson diagonalization with overlap
     ethr =  1.00E-02,  avg # of iterations =  1.0

     negative rho (up, down):  1.085E-02 0.000E+00

     total cpu time spent up to now is        0.9 secs

     total energy              =     -31.56435405 Ry
     Harris-Foulkes estimate   =     -31.71894477 Ry
     estimated scf accuracy    <       3.95031191 Ry

     iteration # 19     ecut=    30.00 Ry     beta=0.70
     Davidson diagonalization with overlap
     ethr =  1.00E-02,  avg # of iterations =  1.0

     negative rho (up, down):  1.336E-02 0.000E+00

     total cpu time spent up to now is        1.0 secs

     total energy              =     -31.67423412 Ry
     Harris-Foulkes estimate   =     -31.55939736 Ry
     estimated scf accuracy    <       4.83872333 Ry

     iteration # 20     ecut=    30.00 Ry     beta=0.70
     Davidson diagonalization with overlap
     ethr =  1.00E-02,  avg # of iterations =  1.0

     negative rho (up, down):  2.296E-02 0.000E+00

     total cpu time spent up to now is        1.0 secs

     total energy              =     -31.77871434 Ry
     Harris-Foulkes estimate   =     -31.66572079 Ry
     estimated scf accuracy    <       3.87380177 Ry

     iteration # 21     ecut=    30.00 Ry     beta=0.70
     Davidson diagonalization with overlap
     ethr =  1.00E-02,  avg # of iterations =  1.0

     negative rho (up, down):  4.016E-02 0.000E+00

     total cpu time spent up to now is        1.0 secs

     total energy              =     -32.52233213 Ry
     Harris-Foulkes estimate   =     -31.77899335 Ry
     estimated scf accuracy    <       4.04462065 Ry

     iteration # 22     ecut=    30.00 Ry     beta=0.70
     Davidson diagonalization with overlap
     ethr =  1.00E-02,  avg # of iterations =  1.0

     negative rho (up, down):  3.663E-02 0.000E+00

     total cpu time spent up to now is        1.1 secs

     total energy              =     -32.62742668 Ry
     Harris-Foulkes estimate   =     -32.53466622 Ry
     estimated scf accuracy    <       5.22830517 Ry

     iteration # 23     ecut=    30.00 Ry     beta=0.70
     Davidson diagonalization with overlap
     ethr =  1.00E-02,  avg # of iterations =  1.0

     negative rho (up, down):  3.108E-01 0.000E+00

     total cpu time spent up to now is        1.1 secs

     total energy              =     -35.32185082 Ry
     Harris-Foulkes estimate   =     -32.62874149 Ry
     estimated scf accuracy    <       5.37424223 Ry

     iteration # 24     ecut=    30.00 Ry     beta=0.70
     Davidson diagonalization with overlap
     ethr =  1.00E-02,  avg # of iterations =  6.0

     negative rho (up, down):  2.203E-01 0.000E+00

     total cpu time spent up to now is        1.1 secs

     total energy              =     -34.46549429 Ry
     Harris-Foulkes estimate   =     -36.55093783 Ry
     estimated scf accuracy    <      18.80238494 Ry

     iteration # 25     ecut=    30.00 Ry     beta=0.70
     Davidson diagonalization with overlap
     ethr =  1.00E-02,  avg # of iterations =  1.0

     negative rho (up, down):  1.415E-01 0.000E+00

     total cpu time spent up to now is        1.2 secs

     total energy              =     -34.04495672 Ry
     Harris-Foulkes estimate   =     -34.49563480 Ry
     estimated scf accuracy    <      15.91311186 Ry

     iteration # 26     ecut=    30.00 Ry     beta=0.70
     Davidson diagonalization with overlap
     ethr =  1.00E-02,  avg # of iterations =  1.0

     negative rho (up, down):  2.064E-01 0.000E+00

     total cpu time spent up to now is        1.2 secs

     total energy              =     -34.75792917 Ry
     Harris-Foulkes estimate   =     -34.04830422 Ry
     estimated scf accuracy    <      15.34400972 Ry

     iteration # 27     ecut=    30.00 Ry     beta=0.70
     Davidson diagonalization with overlap
     ethr =  1.00E-02,  avg # of iterations =  1.0

     negative rho (up, down):  1.577E-01 0.000E+00

     total cpu time spent up to now is        1.2 secs

     total energy              =     -31.78811283 Ry
     Harris-Foulkes estimate   =     -34.76570627 Ry
     estimated scf accuracy    <      16.34917265 Ry

     iteration # 28     ecut=    30.00 Ry     beta=0.70
     Davidson diagonalization with overlap
     ethr =  1.00E-02,  avg # of iterations =  1.0

     negative rho (up, down):  3.206E-01 0.000E+00

     total cpu time spent up to now is        1.3 secs

     total energy              =     -23.90968122 Ry
     Harris-Foulkes estimate   =     -31.83453597 Ry
     estimated scf accuracy    <      12.36741446 Ry

     iteration # 29     ecut=    30.00 Ry     beta=0.70
     Davidson diagonalization with overlap
     ethr =  1.00E-02,  avg # of iterations =  7.0

     negative rho (up, down):  1.149E-01 0.000E+00

     total cpu time spent up to now is        1.3 secs

     total energy              =     -35.27684939 Ry
     Harris-Foulkes estimate   =     -38.12386491 Ry
     estimated scf accuracy    <      12.57638138 Ry

     iteration # 30     ecut=    30.00 Ry     beta=0.70
     Davidson diagonalization with overlap
     ethr =  1.00E-02,  avg # of iterations =  1.0

     negative rho (up, down):  3.877E-02 0.000E+00

     total cpu time spent up to now is        1.4 secs

     total energy              =     -32.14237223 Ry
     Harris-Foulkes estimate   =     -35.32274925 Ry
     estimated scf accuracy    <       8.62228259 Ry

     iteration # 31     ecut=    30.00 Ry     beta=0.70
     Davidson diagonalization with overlap
     ethr =  1.00E-02,  avg # of iterations =  5.0

     negative rho (up, down):  3.887E-02 0.000E+00

     total cpu time spent up to now is        1.4 secs

     total energy              =     -31.45701891 Ry
     Harris-Foulkes estimate   =     -32.26184192 Ry
     estimated scf accuracy    <       3.94314442 Ry

     iteration # 32     ecut=    30.00 Ry     beta=0.70
     Davidson diagonalization with overlap
     ethr =  1.00E-02,  avg # of iterations =  4.0

     negative rho (up, down):  1.977E-02 0.000E+00

     total cpu time spent up to now is        1.4 secs

     total energy              =     -32.05461045 Ry
     Harris-Foulkes estimate   =     -31.49328813 Ry
     estimated scf accuracy    <       0.69012690 Ry

     iteration # 33     ecut=    30.00 Ry     beta=0.70
     Davidson diagonalization with overlap
     ethr =  8.63E-03,  avg # of iterations =  2.0

     negative rho (up, down):  4.256E-01 0.000E+00

     total cpu time spent up to now is        1.5 secs

     total energy              =     -30.60135337 Ry
     Harris-Foulkes estimate   =     -32.55659001 Ry
     estimated scf accuracy    <       4.47670273 Ry

     iteration # 34     ecut=    30.00 Ry     beta=0.70
     Davidson diagonalization with overlap
     ethr =  8.63E-03,  avg # of iterations =  2.0

     negative rho (up, down):  1.458E-01 0.000E+00

     total cpu time spent up to now is        1.5 secs

     total energy              =     -31.84542818 Ry
     Harris-Foulkes estimate   =     -32.54295507 Ry
     estimated scf accuracy    <       5.10730824 Ry

     iteration # 35     ecut=    30.00 Ry     beta=0.70
     Davidson diagonalization with overlap
     ethr =  8.63E-03,  avg # of iterations =  1.0

     negative rho (up, down):  5.431E-02 0.000E+00

     total cpu time spent up to now is        1.5 secs

     total energy              =     -31.48385244 Ry
     Harris-Foulkes estimate   =     -31.85482638 Ry
     estimated scf accuracy    <       4.14503198 Ry

     iteration # 36     ecut=    30.00 Ry     beta=0.70
     Davidson diagonalization with overlap
     ethr =  8.63E-03,  avg # of iterations =  1.0

     negative rho (up, down):  3.350E-02 0.000E+00

     total cpu time spent up to now is        1.6 secs

     total energy              =     -31.48207893 Ry
     Harris-Foulkes estimate   =     -31.49919378 Ry
     estimated scf accuracy    <       0.63895329 Ry

     iteration # 37     ecut=    30.00 Ry     beta=0.70
     Davidson diagonalization with overlap
     ethr =  7.99E-03,  avg # of iterations =  1.0

     negative rho (up, down):  1.497E-03 0.000E+00

     total cpu time spent up to now is        1.6 secs

     total energy              =     -31.49715950 Ry
     Harris-Foulkes estimate   =     -31.49987967 Ry
     estimated scf accuracy    <       0.55513071 Ry

     iteration # 38     ecut=    30.00 Ry     beta=0.70
     Davidson diagonalization with overlap
     ethr =  6.94E-03,  avg # of iterations =  1.0

     negative rho (up, down):  5.418E-04 0.000E+00

     total cpu time spent up to now is        1.7 secs

     total energy              =     -31.48196629 Ry
     Harris-Foulkes estimate   =     -31.49820171 Ry
     estimated scf accuracy    <       0.37166481 Ry

     iteration # 39     ecut=    30.00 Ry     beta=0.70
     Davidson diagonalization with overlap
     ethr =  4.65E-03,  avg # of iterations =  1.0

     negative rho (up, down):  8.028E-05 0.000E+00

     total cpu time spent up to now is        1.7 secs

     total energy              =     -31.56001921 Ry
     Harris-Foulkes estimate   =     -31.54019511 Ry
     estimated scf accuracy    <       3.08593503 Ry

     iteration # 40     ecut=    30.00 Ry     beta=0.70
     Davidson diagonalization with overlap
     ethr =  4.65E-03,  avg # of iterations =  1.0

     negative rho (up, down):  1.646E-04 0.000E+00

     total cpu time spent up to now is        1.7 secs

     total energy              =     -31.55226455 Ry
     Harris-Foulkes estimate   =     -31.56134337 Ry
     estimated scf accuracy    <       3.90764570 Ry

     iteration # 41     ecut=    30.00 Ry     beta=0.70
     Davidson diagonalization with overlap
     ethr =  4.65E-03,  avg # of iterations =  1.0

     negative rho (up, down):  1.466E-04 0.000E+00

     total cpu time spent up to now is        1.8 secs

     total energy              =     -31.55550338 Ry
     Harris-Foulkes estimate   =     -31.55257658 Ry
     estimated scf accuracy    <       3.47929798 Ry

     iteration # 42     ecut=    30.00 Ry     beta=0.70
     Davidson diagonalization with overlap
     ethr =  4.65E-03,  avg # of iterations =  1.0

     negative rho (up, down):  1.228E-04 0.000E+00

     total cpu time spent up to now is        1.8 secs

     total energy              =     -31.53702461 Ry
     Harris-Foulkes estimate   =     -31.55552157 Ry
     estimated scf accuracy    <       3.57773414 Ry

     iteration # 43     ecut=    30.00 Ry     beta=0.70
     Davidson diagonalization with overlap
     ethr =  4.65E-03,  avg # of iterations =  1.0

     negative rho (up, down):  1.192E-04 0.000E+00

     total cpu time spent up to now is        1.8 secs

     total energy              =     -31.53298462 Ry
     Harris-Foulkes estimate   =     -31.53811827 Ry
     estimated scf accuracy    <       2.78431054 Ry

     iteration # 44     ecut=    30.00 Ry     beta=0.70
     Davidson diagonalization with overlap
     ethr =  4.65E-03,  avg # of iterations =  1.0

     negative rho (up, down):  2.081E-04 0.000E+00

     total cpu time spent up to now is        1.9 secs

     total energy              =     -31.48946546 Ry
     Harris-Foulkes estimate   =     -31.53312688 Ry
     estimated scf accuracy    <       2.52507270 Ry

     iteration # 45     ecut=    30.00 Ry     beta=0.70
     Davidson diagonalization with overlap
     ethr =  4.65E-03,  avg # of iterations =  1.0

     negative rho (up, down):  9.042E-05 0.000E+00

     total cpu time spent up to now is        1.9 secs

     total energy              =     -31.50420272 Ry
     Harris-Foulkes estimate   =     -31.50316489 Ry
     estimated scf accuracy    <       0.73897575 Ry

     iteration # 46     ecut=    30.00 Ry     beta=0.70
     Davidson diagonalization with overlap
     ethr =  4.65E-03,  avg # of iterations =  1.0

     negative rho (up, down):  1.050E-04 0.000E+00

     total cpu time spent up to now is        1.9 secs

     total energy              =     -31.50197945 Ry
     Harris-Foulkes estimate   =     -31.50452651 Ry
     estimated scf accuracy    <       0.87966008 Ry

     iteration # 47     ecut=    30.00 Ry     beta=0.70
     Davidson diagonalization with overlap
     ethr =  4.65E-03,  avg # of iterations =  1.0

     negative rho (up, down):  2.530E-04 0.000E+00

     total cpu time spent up to now is        2.0 secs

     total energy              =     -31.50007655 Ry
     Harris-Foulkes estimate   =     -31.50210636 Ry
     estimated scf accuracy    <       0.73415647 Ry

     iteration # 48     ecut=    30.00 Ry     beta=0.70
     Davidson diagonalization with overlap
     ethr =  4.65E-03,  avg # of iterations =  1.0

     negative rho (up, down):  4.080E-04 0.000E+00

     total cpu time spent up to now is        2.0 secs

     total energy              =     -31.49767053 Ry
     Harris-Foulkes estimate   =     -31.50068014 Ry
     estimated scf accuracy    <       0.78147171 Ry

     iteration # 49     ecut=    30.00 Ry     beta=0.70
     Davidson diagonalization with overlap
     ethr =  4.65E-03,  avg # of iterations =  1.0

     negative rho (up, down):  4.630E-04 0.000E+00

     total cpu time spent up to now is        2.0 secs

     total energy              =     -31.49393078 Ry
     Harris-Foulkes estimate   =     -31.49799214 Ry
     estimated scf accuracy    <       0.66057858 Ry

     iteration # 50     ecut=    30.00 Ry     beta=0.70
     Davidson diagonalization with overlap
     ethr =  4.65E-03,  avg # of iterations =  1.0

     negative rho (up, down):  2.853E-04 0.000E+00

     total cpu time spent up to now is        2.1 secs

     total energy              =     -31.49322346 Ry
     Harris-Foulkes estimate   =     -31.49443402 Ry
     estimated scf accuracy    <       0.36665676 Ry

     iteration # 51     ecut=    30.00 Ry     beta=0.70
     Davidson diagonalization with overlap
     ethr =  4.58E-03,  avg # of iterations =  1.0

     negative rho (up, down):  7.668E-05 0.000E+00

     total cpu time spent up to now is        2.1 secs

     total energy              =     -31.48838898 Ry
     Harris-Foulkes estimate   =     -31.49339829 Ry
     estimated scf accuracy    <       0.24764062 Ry

     iteration # 52     ecut=    30.00 Ry     beta=0.70
     Davidson diagonalization with overlap
     ethr =  3.10E-03,  avg # of iterations =  1.0

     negative rho (up, down):  2.419E-05 0.000E+00

     total cpu time spent up to now is        2.1 secs

     total energy              =     -31.49020299 Ry
     Harris-Foulkes estimate   =     -31.49044137 Ry
     estimated scf accuracy    <       0.00673696 Ry

     iteration # 53     ecut=    30.00 Ry     beta=0.70
     Davidson diagonalization with overlap
     ethr =  8.42E-05,  avg # of iterations =  1.0

     negative rho (up, down):  1.710E-07 0.000E+00

     total cpu time spent up to now is        2.2 secs

     total energy              =     -31.49033442 Ry
     Harris-Foulkes estimate   =     -31.49035188 Ry
     estimated scf accuracy    <       0.00054627 Ry

     iteration # 54     ecut=    30.00 Ry     beta=0.70
     Davidson diagonalization with overlap
     ethr =  6.83E-06,  avg # of iterations = 18.0

     total cpu time spent up to now is        2.2 secs

     total energy              =     -31.49034972 Ry
     Harris-Foulkes estimate   =     -31.49034713 Ry
     estimated scf accuracy    <       0.00007090 Ry

     iteration # 55     ecut=    30.00 Ry     beta=0.70
     Davidson diagonalization with overlap
     ethr =  8.86E-07,  avg # of iterations =  1.0

     total cpu time spent up to now is        2.3 secs

     total energy              =     -31.49034497 Ry
     Harris-Foulkes estimate   =     -31.49035101 Ry
     estimated scf accuracy    <       0.00030570 Ry

     iteration # 56     ecut=    30.00 Ry     beta=0.70
     Davidson diagonalization with overlap
     ethr =  8.86E-07,  avg # of iterations =  1.0

     total cpu time spent up to now is        2.3 secs

     total energy              =     -31.49034761 Ry
     Harris-Foulkes estimate   =     -31.49034754 Ry
     estimated scf accuracy    <       0.00001327 Ry

     iteration # 57     ecut=    30.00 Ry     beta=0.70
     Davidson diagonalization with overlap
     ethr =  1.66E-07,  avg # of iterations =  1.0

     total cpu time spent up to now is        2.3 secs

     total energy              =     -31.49034796 Ry
     Harris-Foulkes estimate   =     -31.49034769 Ry
     estimated scf accuracy    <       0.00000163 Ry

     iteration # 58     ecut=    30.00 Ry     beta=0.70
     Davidson diagonalization with overlap
     ethr =  2.04E-08,  avg # of iterations =  1.0

     total cpu time spent up to now is        2.4 secs

     total energy              =     -31.49034799 Ry
     Harris-Foulkes estimate   =     -31.49034799 Ry
     estimated scf accuracy    <       0.00000005 Ry

     iteration # 59     ecut=    30.00 Ry     beta=0.70
     Davidson diagonalization with overlap
     ethr =  6.35E-10,  avg # of iterations =  1.0

     total cpu time spent up to now is        2.4 secs

     End of self-consistent calculation

          k = 0.0000 0.0000 0.0000 ( 22119 PWs)   bands (ev):

   -23.6162  -7.0263  -7.0258  -7.0254  -6.9284  -6.9137  -0.2470   0.5919

     the Fermi energy is    -6.8913 ev

!    total energy              =     -31.49034803 Ry
     Harris-Foulkes estimate   =     -31.49034799 Ry
     estimated scf accuracy    <          1.9E-09 Ry

     convergence has been achieved in  59 iterations

     Forces acting on atoms (Ry/au):

     atom    1 type  1   force =    -0.00004550    0.00024276    0.00003337
     atom    2 type  1   force =    -0.00013565    0.00022036    0.00006355
     atom    3 type  2   force =     0.00018116   -0.00046312   -0.00009692

     Total force =     0.000624     Total SCF correction =     0.000050

     Molecular Dynamics Calculation

     Starting temperature  =  1000.00 K

     temperature is controlled by Andersen thermostat
     Collision frequency = 1.0000/timestep
     mass H                =     1.01
     mass O                =    16.00
     Time step             =   100.00 a.u.,  4.8378 femto-seconds

     Entering Dynamics:    iteration =     1
                           time      =   0.0048 pico-seconds


     Andersen thermostat:    3 collisions

ATOMIC_POSITIONS (bohr)
H       17.299974943  12.614252707  12.423603373
H       14.501560583   2.178096891  17.655899029
O        4.552130714   2.136004107  10.732993661


     kinetic energy (Ekin) =     0.01319564 Ry
     temperature           =   694.47456190 K 
     Ekin + Etot (const)   =   -31.47715239 Ry

     Linear momentum :   -0.0000000000    0.0000000000    0.0000000000

     Writing output data file pwscf.save
     Check: negative starting charge=   -0.352888
     NEW-OLD atomic charge density approx. for the potential
     Check: negative starting charge=   -0.352840

     negative rho (up, down):  8.059E-02 0.000E+00

     total cpu time spent up to now is        2.7 secs

     per-process dynamical memory:    20.4 Mb

     Self-consistent Calculation

     iteration #  1     ecut=    30.00 Ry     beta=0.70
     Davidson diagonalization with overlap
     c_bands:  1 eigenvalues not converged
     ethr =  1.00E-06,  avg # of iterations = 20.0

     negative rho (up, down):  1.827E-02 0.000E+00

     total cpu time spent up to now is        2.8 secs

     total energy              =     -31.44486579 Ry
     Harris-Foulkes estimate   =     -31.42858773 Ry
     estimated scf accuracy    <       0.03610837 Ry

     iteration #  2     ecut=    30.00 Ry     beta=0.70
     Davidson diagonalization with overlap
     ethr =  4.51E-04,  avg # of iterations =  2.0

     negative rho (up, down):  1.693E-02 0.000E+00

     total cpu time spent up to now is        2.8 secs

     total energy              =     -31.46930888 Ry
     Harris-Foulkes estimate   =     -31.88666847 Ry
     estimated scf accuracy    <       4.25116461 Ry

     iteration #  3     ecut=    30.00 Ry     beta=0.70
     Davidson diagonalization with overlap
     ethr =  4.51E-04,  avg # of iterations =  2.0

     negative rho (up, down):  1.649E-02 0.000E+00

     total cpu time spent up to now is        2.9 secs

     total energy              =     -31.46500127 Ry
     Harris-Foulkes estimate   =     -31.50310113 Ry
     estimated scf accuracy    <       1.16603333 Ry

     iteration #  4     ecut=    30.00 Ry     beta=0.70
     Davidson diagonalization with overlap
     ethr =  4.51E-04,  avg # of iterations =  1.0

     negative rho (up, down):  6.469E-03 0.000E+00

     total cpu time spent up to now is        2.9 secs

     total energy              =     -31.43121016 Ry
     Harris-Foulkes estimate   =     -31.47910921 Ry
     estimated scf accuracy    <       0.50658921 Ry

     iteration #  5     ecut=    30.00 Ry     beta=0.70
     Davidson diagonalization with overlap
     ethr =  4.51E-04,  avg # of iterations =  1.0

     negative rho (up, down):  2.754E-03 0.000E+00

     total cpu time spent up to now is        3.0 secs

     total energy              =     -31.46061004 Ry
     Harris-Foulkes estimate   =     -31.56807461 Ry
     estimated scf accuracy    <       2.80051043 Ry

     iteration #  6     ecut=    30.00 Ry     beta=0.70
     Davidson diagonalization with overlap
     ethr =  4.51E-04,  avg # of iterations =  1.0

     negative rho (up, down):  6.481E-04 0.000E+00

     total cpu time spent up to now is        3.0 secs

     total energy              =     -31.49046552 Ry
     Harris-Foulkes estimate   =     -31.48876699 Ry
     estimated scf accuracy    <       0.03060227 Ry

     iteration #  7     ecut=    30.00 Ry     beta=0.70
     Davidson diagonalization with overlap
     ethr =  3.83E-04,  avg # of iterations =  3.0

     negative rho (up, down):  3.912E-04 0.000E+00

     total cpu time spent up to now is        3.0 secs

     total energy              =     -31.49028620 Ry
     Harris-Foulkes estimate   =     -31.49067989 Ry
     estimated scf accuracy    <       0.03872855 Ry

     iteration #  8     ecut=    30.00 Ry     beta=0.70
     Davidson diagonalization with overlap
     ethr =  3.83E-04,  avg # of iterations =  1.0

     negative rho (up, down):  3.910E-06 0.000E+00

     total cpu time spent up to now is        3.1 secs

     total energy              =     -31.49030859 Ry
     Harris-Foulkes estimate   =     -31.49041821 Ry
     estimated scf accuracy    <       0.00652049 Ry

     iteration #  9     ecut=    30.00 Ry     beta=0.70
     Davidson diagonalization with overlap
     ethr =  8.15E-05,  avg # of iterations =  1.0

     negative rho (up, down):  2.075E-08 0.000E+00

     total cpu time spent up to now is        3.1 secs

     total energy              =     -31.49038658 Ry
     Harris-Foulkes estimate   =     -31.49038477 Ry
     estimated scf accuracy    <       0.00015578 Ry

     iteration # 10     ecut=    30.00 Ry     beta=0.70
     Davidson diagonalization with overlap
     ethr =  1.95E-06,  avg # of iterations =  9.0

     total cpu time spent up to now is        3.1 secs

     total energy              =     -31.49037135 Ry
     Harris-Foulkes estimate   =     -31.49039831 Ry
     estimated scf accuracy    <       0.00094445 Ry

     iteration # 11     ecut=    30.00 Ry     beta=0.70
     Davidson diagonalization with overlap
     ethr =  1.95E-06,  avg # of iterations =  1.0

     total cpu time spent up to now is        3.2 secs

     total energy              =     -31.49039508 Ry
     Harris-Foulkes estimate   =     -31.49039161 Ry
     estimated scf accuracy    <       0.00019555 Ry

     iteration # 12     ecut=    30.00 Ry     beta=0.70
     Davidson diagonalization with overlap
     ethr =  1.95E-06,  avg # of iterations =  1.0

     total cpu time spent up to now is        3.2 secs

     total energy              =     -31.49038601 Ry
     Harris-Foulkes estimate   =     -31.49039603 Ry
     estimated scf accuracy    <       0.00056168 Ry

     iteration # 13     ecut=    30.00 Ry     beta=0.70
     Davidson diagonalization with overlap
     ethr =  1.95E-06,  avg # of iterations =  1.0

     total cpu time spent up to now is        3.2 secs

     total energy              =     -31.49039046 Ry
     Harris-Foulkes estimate   =     -31.49039037 Ry
     estimated scf accuracy    <       0.00000810 Ry

     iteration # 14     ecut=    30.00 Ry     beta=0.70
     Davidson diagonalization with overlap
     ethr =  1.01E-07,  avg # of iterations =  1.0

     total cpu time spent up to now is        3.3 secs

     total energy              =     -31.49039040 Ry
     Harris-Foulkes estimate   =     -31.49039047 Ry
     estimated scf accuracy    <       0.00000680 Ry

     iteration # 15     ecut=    30.00 Ry     beta=0.70
     Davidson diagonalization with overlap
     ethr =  8.50E-08,  avg # of iterations =  1.0

     total cpu time spent up to now is        3.3 secs

     End of self-consistent calculation

          k = 0.0000 0.0000 0.0000 ( 22119 PWs)   bands (ev):

   -23.6141  -7.0245  -7.0239  -7.0239  -6.9264  -6.9122  -0.2457   0.5957

     the Fermi energy is    -6.8896 ev

!    total energy              =     -31.49039043 Ry
     Harris-Foulkes estimate   =     -31.49039046 Ry
     estimated scf accuracy    <          4.9E-10 Ry

     convergence has been achieved in  15 iterations

     Forces acting on atoms (Ry/au):

     atom    1 type  1   force =    -0.00010909    0.00026625    0.00016249
     atom    2 type  1   force =    -0.00020261    0.00026434    0.00017742
     atom    3 type  2   force =     0.00031171   -0.00053059   -0.00033991

     Total force =     0.000864     Total SCF correction =     0.000063

     Entering Dynamics:    iteration =     2
                           time      =   0.0097 pico-seconds


     Andersen thermostat:    3 collisions

ATOMIC_POSITIONS (bohr)
H       17.351203544  12.793294851  12.570499243
H       14.562616057   2.027117742  17.834067494
O        4.545042781   2.134232630  10.712473975


     kinetic energy (Ekin) =     0.00849814 Ry
     temperature           =   447.24938460 K 
     Ekin + Etot (const)   =   -31.48189229 Ry
     Message from routine dynamics:
     Total linear momentum <> 0

     Linear momentum :   -0.0482643422    0.4839037204    0.0463385468

     Writing output data file pwscf.save

     first order wave-functions extrapolation
     Check: negative starting charge=   -0.352840
     first order charge density extrapolation
     Check: negative starting charge=   -0.353067

     negative rho (up, down):  1.124E-01 0.000E+00

     total cpu time spent up to now is        3.6 secs

     per-process dynamical memory:    20.4 Mb

     Self-consistent Calculation

     iteration #  1     ecut=    30.00 Ry     beta=0.70
     Davidson diagonalization with overlap
     c_bands:  1 eigenvalues not converged
     ethr =  1.00E-06,  avg # of iterations = 20.0

     negative rho (up, down):  2.631E-02 0.000E+00

     total cpu time spent up to now is        3.7 secs

     total energy              =     -31.41390193 Ry
     Harris-Foulkes estimate   =     -31.41407170 Ry
     estimated scf accuracy    <       0.06553309 Ry

     iteration #  2     ecut=    30.00 Ry     beta=0.70
     Davidson diagonalization with overlap
     ethr =  8.19E-04,  avg # of iterations =  2.0

     negative rho (up, down):  2.385E-02 0.000E+00

     total cpu time spent up to now is        3.7 secs

     total energy              =     -31.47894571 Ry
     Harris-Foulkes estimate   =     -32.03660324 Ry
     estimated scf accuracy    <       4.52052827 Ry

     iteration #  3     ecut=    30.00 Ry     beta=0.70
     Davidson diagonalization with overlap
     ethr =  8.19E-04,  avg # of iterations =  2.0

     negative rho (up, down):  2.284E-02 0.000E+00

     total cpu time spent up to now is        3.7 secs

     total energy              =     -31.46831344 Ry
     Harris-Foulkes estimate   =     -31.52504939 Ry
     estimated scf accuracy    <       1.04000406 Ry

     iteration #  4     ecut=    30.00 Ry     beta=0.70
     Davidson diagonalization with overlap
     ethr =  8.19E-04,  avg # of iterations =  1.0

     negative rho (up, down):  1.950E-02 0.000E+00

     total cpu time spent up to now is        3.8 secs

     total energy              =     -31.36919296 Ry
     Harris-Foulkes estimate   =     -31.48506325 Ry
     estimated scf accuracy    <       1.76718854 Ry

     iteration #  5     ecut=    30.00 Ry     beta=0.70
     Davidson diagonalization with overlap
     ethr =  8.19E-04,  avg # of iterations =  1.0

     negative rho (up, down):  7.404E-03 0.000E+00

     total cpu time spent up to now is        3.8 secs

     total energy              =     -31.46174203 Ry
     Harris-Foulkes estimate   =     -31.54679932 Ry
     estimated scf accuracy    <       2.75240888 Ry

     iteration #  6     ecut=    30.00 Ry     beta=0.70
     Davidson diagonalization with overlap
     ethr =  8.19E-04,  avg # of iterations =  1.0

     negative rho (up, down):  1.959E-03 0.000E+00

     total cpu time spent up to now is        3.8 secs

     total energy              =     -31.48859429 Ry
     Harris-Foulkes estimate   =     -31.48518449 Ry
     estimated scf accuracy    <       0.12695982 Ry

     iteration #  7     ecut=    30.00 Ry     beta=0.70
     Davidson diagonalization with overlap
     ethr =  8.19E-04,  avg # of iterations =  1.0

     negative rho (up, down):  5.143E-04 0.000E+00

     total cpu time spent up to now is        3.9 secs

     total energy              =     -31.49106347 Ry
     Harris-Foulkes estimate   =     -31.48953878 Ry
     estimated scf accuracy    <       0.03091106 Ry

     iteration #  8     ecut=    30.00 Ry     beta=0.70
     Davidson diagonalization with overlap
     ethr =  3.86E-04,  avg # of iterations =  3.0

     negative rho (up, down):  2.475E-05 0.000E+00

     total cpu time spent up to now is        3.9 secs

     total energy              =     -31.48939049 Ry
     Harris-Foulkes estimate   =     -31.49123194 Ry
     estimated scf accuracy    <       0.09157344 Ry

     iteration #  9     ecut=    30.00 Ry     beta=0.70
     Davidson diagonalization with overlap
     ethr =  3.86E-04,  avg # of iterations =  1.0

     negative rho (up, down):  2.085E-07 0.000E+00

     total cpu time spent up to now is        3.9 secs

     total energy              =     -31.49044023 Ry
     Harris-Foulkes estimate   =     -31.49038722 Ry
     estimated scf accuracy    <       0.00064979 Ry

     iteration # 10     ecut=    30.00 Ry     beta=0.70
     Davidson diagonalization with overlap
     ethr =  8.12E-06,  avg # of iterations =  9.0

     negative rho (up, down):  1.695E-07 0.000E+00

     total cpu time spent up to now is        4.0 secs

     total energy              =     -31.49052225 Ry
     Harris-Foulkes estimate   =     -31.49052986 Ry
     estimated scf accuracy    <       0.01532771 Ry

     iteration # 11     ecut=    30.00 Ry     beta=0.70
     Davidson diagonalization with overlap
     ethr =  8.12E-06,  avg # of iterations =  1.0

     negative rho (up, down):  2.204E-07 0.000E+00

     total cpu time spent up to now is        4.0 secs

     total energy              =     -31.49044974 Ry
     Harris-Foulkes estimate   =     -31.49052251 Ry
     estimated scf accuracy    <       0.01457020 Ry

     iteration # 12     ecut=    30.00 Ry     beta=0.70
     Davidson diagonalization with overlap
     ethr =  8.12E-06,  avg # of iterations =  1.0

     negative rho (up, down):  1.776E-08 0.000E+00

     total cpu time spent up to now is        4.1 secs

     total energy              =     -31.49057392 Ry
     Harris-Foulkes estimate   =     -31.49045947 Ry
     estimated scf accuracy    <       0.00774087 Ry

     iteration # 13     ecut=    30.00 Ry     beta=0.70
     Davidson diagonalization with overlap
     ethr =  8.12E-06,  avg # of iterations =  1.0

     negative rho (up, down):  2.862E-08 0.000E+00

     total cpu time spent up to now is        4.1 secs

     total energy              =     -31.49038383 Ry
     Harris-Foulkes estimate   =     -31.49063196 Ry
     estimated scf accuracy    <       0.02483408 Ry

     iteration # 14     ecut=    30.00 Ry     beta=0.70
     Davidson diagonalization with overlap
     ethr =  8.12E-06,  avg # of iterations =  1.0

     total cpu time spent up to now is        4.1 secs

     total energy              =     -31.49032103 Ry
     Harris-Foulkes estimate   =     -31.49044390 Ry
     estimated scf accuracy    <       0.00644671 Ry

     iteration # 15     ecut=    30.00 Ry     beta=0.70
     Davidson diagonalization with overlap
     ethr =  8.12E-06,  avg # of iterations =  1.0

     total cpu time spent up to now is        4.2 secs

     total energy              =     -31.49038271 Ry
     Harris-Foulkes estimate   =     -31.49038192 Ry
     estimated scf accuracy    <       0.00000204 Ry

     iteration # 16     ecut=    30.00 Ry     beta=0.70
     Davidson diagonalization with overlap
     ethr =  2.55E-08,  avg # of iterations =  1.0

     total cpu time spent up to now is        4.2 secs

     total energy              =     -31.49038371 Ry
     Harris-Foulkes estimate   =     -31.49038275 Ry
     estimated scf accuracy    <       0.00000074 Ry

     iteration # 17     ecut=    30.00 Ry     beta=0.70
     Davidson diagonalization with overlap
     ethr =  9.27E-09,  avg # of iterations =  1.0

     total cpu time spent up to now is        4.2 secs

     total energy              =     -31.49038442 Ry
     Harris-Foulkes estimate   =     -31.49038373 Ry
     estimated scf accuracy    <       0.00000037 Ry

     iteration # 18     ecut=    30.00 Ry     beta=0.70
     Davidson diagonalization with overlap
     ethr =  4.62E-09,  avg # of iterations =  2.0

     total cpu time spent up to now is        4.3 secs

     total energy              =     -31.49038470 Ry
     Harris-Foulkes estimate   =     -31.49038444 Ry
     estimated scf accuracy    <       0.00000004 Ry

     iteration # 19     ecut=    30.00 Ry     beta=0.70
     Davidson diagonalization with overlap
     ethr =  5.55E-10,  avg # of iterations =  2.0

     total cpu time spent up to now is        4.3 secs

     End of self-consistent calculation

          k = 0.0000 0.0000 0.0000 ( 22119 PWs)   bands (ev):

   -23.6146  -7.0249  -7.0245  -7.0243  -6.9275  -6.9121  -0.2457   0.5994

     the Fermi energy is    -6.8900 ev

!    total energy              =     -31.49038496 Ry
     Harris-Foulkes estimate   =     -31.49038471 Ry
     estimated scf accuracy    <          4.7E-09 Ry

     convergence has been achieved in  19 iterations

     Forces acting on atoms (Ry/au):

     atom    1 type  1   force =    -0.00016842    0.00005244    0.00028751
     atom    2 type  1   force =    -0.00026456    0.00005585    0.00031091
     atom    3 type  2   force =     0.00043298   -0.00010828   -0.00059841

     Total force =     0.000917     Total SCF correction =     0.000884
     SCF correction compared to forces is large: reduce conv_thr to get better values

     Entering Dynamics:    iteration =     3
                           time      =   0.0145 pico-seconds


     Andersen thermostat:    3 collisions

ATOMIC_POSITIONS (bohr)
H       17.570986550  12.511145321  12.662070084
H       14.703099270   2.100281472  18.176395065
O        4.522300976   2.147424859  10.685084137


     kinetic energy (Ekin) =     0.01669881 Ry
     temperature           =   878.84339680 K 
     Ekin + Etot (const)   =   -31.47368615 Ry
     Message from routine dynamics:
     Total linear momentum <> 0

     Linear momentum :    0.3047675616   -0.3500624036   -0.1369358232

     Writing output data file pwscf.save

     second order wave-functions extrapolation
     Check: negative starting charge=   -0.353067
     second order charge density extrapolation
     Check: negative starting charge=   -0.352622

     negative rho (up, down):  8.715E-02 0.000E+00

     total cpu time spent up to now is        4.6 secs

     per-process dynamical memory:    20.4 Mb

     Self-consistent Calculation

     iteration #  1     ecut=    30.00 Ry     beta=0.70
     Davidson diagonalization with overlap
     ethr =  1.00E-06,  avg # of iterations = 20.0

     negative rho (up, down):  2.003E-02 0.000E+00

     total cpu time spent up to now is        4.7 secs

     total energy              =     -31.44041439 Ry
     Harris-Foulkes estimate   =     -31.42661906 Ry
     estimated scf accuracy    <       0.03976137 Ry

     iteration #  2     ecut=    30.00 Ry     beta=0.70
     Davidson diagonalization with overlap
     ethr =  4.97E-04,  avg # of iterations =  2.0

     negative rho (up, down):  1.850E-02 0.000E+00

     total cpu time spent up to now is        4.7 secs

     total energy              =     -31.47186785 Ry
     Harris-Foulkes estimate   =     -31.91465505 Ry
     estimated scf accuracy    <       4.30286504 Ry

     iteration #  3     ecut=    30.00 Ry     beta=0.70
     Davidson diagonalization with overlap
     ethr =  4.97E-04,  avg # of iterations =  2.0

     negative rho (up, down):  1.812E-02 0.000E+00

     total cpu time spent up to now is        4.8 secs

     total energy              =     -31.46946043 Ry
     Harris-Foulkes estimate   =     -31.49078140 Ry
     estimated scf accuracy    <       1.10303250 Ry

     iteration #  4     ecut=    30.00 Ry     beta=0.70
     Davidson diagonalization with overlap
     ethr =  4.97E-04,  avg # of iterations =  1.0

     negative rho (up, down):  7.326E-03 0.000E+00

     total cpu time spent up to now is        4.8 secs

     total energy              =     -31.41923301 Ry
     Harris-Foulkes estimate   =     -31.47820117 Ry
     estimated scf accuracy    <       0.58785869 Ry

     iteration #  5     ecut=    30.00 Ry     beta=0.70
     Davidson diagonalization with overlap
     ethr =  4.97E-04,  avg # of iterations =  1.0

     negative rho (up, down):  3.084E-03 0.000E+00

     total cpu time spent up to now is        4.8 secs

     total energy              =     -31.45991545 Ry
     Harris-Foulkes estimate   =     -31.58488620 Ry
     estimated scf accuracy    <       2.85751394 Ry

     iteration #  6     ecut=    30.00 Ry     beta=0.70
     Davidson diagonalization with overlap
     ethr =  4.97E-04,  avg # of iterations =  1.0

     negative rho (up, down):  7.699E-04 0.000E+00

     total cpu time spent up to now is        4.9 secs

     total energy              =     -31.49042822 Ry
     Harris-Foulkes estimate   =     -31.48828004 Ry
     estimated scf accuracy    <       0.02656197 Ry

     iteration #  7     ecut=    30.00 Ry     beta=0.70
     Davidson diagonalization with overlap
     ethr =  3.32E-04,  avg # of iterations =  3.0

     negative rho (up, down):  2.518E-04 0.000E+00

     total cpu time spent up to now is        4.9 secs

     total energy              =     -31.49040199 Ry
     Harris-Foulkes estimate   =     -31.49049925 Ry
     estimated scf accuracy    <       0.02817720 Ry

     iteration #  8     ecut=    30.00 Ry     beta=0.70
     Davidson diagonalization with overlap
     ethr =  3.32E-04,  avg # of iterations =  1.0

     negative rho (up, down):  2.510E-06 0.000E+00

     total cpu time spent up to now is        4.9 secs

     total energy              =     -31.49018080 Ry
     Harris-Foulkes estimate   =     -31.49044185 Ry
     estimated scf accuracy    <       0.01188579 Ry

     iteration #  9     ecut=    30.00 Ry     beta=0.70
     Davidson diagonalization with overlap
     ethr =  1.49E-04,  avg # of iterations =  1.0

     negative rho (up, down):  4.103E-08 0.000E+00

     total cpu time spent up to now is        5.0 secs

     total energy              =     -31.49039877 Ry
     Harris-Foulkes estimate   =     -31.49037073 Ry
     estimated scf accuracy    <       0.00114879 Ry

     iteration # 10     ecut=    30.00 Ry     beta=0.70
     Davidson diagonalization with overlap
     ethr =  1.44E-05,  avg # of iterations =  7.0

     total cpu time spent up to now is        5.0 secs

     total energy              =     -31.49001274 Ry
     Harris-Foulkes estimate   =     -31.49041739 Ry
     estimated scf accuracy    <       0.00605926 Ry

     iteration # 11     ecut=    30.00 Ry     beta=0.70
     Davidson diagonalization with overlap
     ethr =  1.44E-05,  avg # of iterations =  1.0

     total cpu time spent up to now is        5.0 secs

     total energy              =     -31.48976047 Ry
     Harris-Foulkes estimate   =     -31.49076155 Ry
     estimated scf accuracy    <       0.04187460 Ry

     iteration # 12     ecut=    30.00 Ry     beta=0.70
     Davidson diagonalization with overlap
     ethr =  1.44E-05,  avg # of iterations =  1.0

     total cpu time spent up to now is        5.1 secs

     total energy              =     -31.49035338 Ry
     Harris-Foulkes estimate   =     -31.49039178 Ry
     estimated scf accuracy    <       0.00319374 Ry

     iteration # 13     ecut=    30.00 Ry     beta=0.70
     Davidson diagonalization with overlap
     ethr =  1.44E-05,  avg # of iterations =  1.0

     total cpu time spent up to now is        5.1 secs

     total energy              =     -31.49035996 Ry
     Harris-Foulkes estimate   =     -31.49036571 Ry
     estimated scf accuracy    <       0.00040460 Ry

     iteration # 14     ecut=    30.00 Ry     beta=0.70
     Davidson diagonalization with overlap
     ethr =  5.06E-06,  avg # of iterations =  1.0

     total cpu time spent up to now is        5.1 secs

     total energy              =     -31.49036173 Ry
     Harris-Foulkes estimate   =     -31.49036215 Ry
     estimated scf accuracy    <       0.00002214 Ry

     iteration # 15     ecut=    30.00 Ry     beta=0.70
     Davidson diagonalization with overlap
     ethr =  2.77E-07,  avg # of iterations =  1.0

     total cpu time spent up to now is        5.2 secs

     total energy              =     -31.49036212 Ry
     Harris-Foulkes estimate   =     -31.49036195 Ry
     estimated scf accuracy    <       0.00000001 Ry

     iteration # 16     ecut=    30.00 Ry     beta=0.70
     Davidson diagonalization with overlap
     ethr =  1.82E-10,  avg # of iterations =  2.0

     total cpu time spent up to now is        5.2 secs

     End of self-consistent calculation

          k = 0.0000 0.0000 0.0000 ( 22119 PWs)   bands (ev):

   -23.6135  -7.0236  -7.0234  -7.0231  -6.9248  -6.9123  -0.2471   0.6030

     the Fermi energy is    -6.8888 ev

!    total energy              =     -31.49036220 Ry
     Harris-Foulkes estimate   =     -31.49036213 Ry
     estimated scf accuracy    <          1.2E-09 Ry

     convergence has been achieved in  16 iterations

     Forces acting on atoms (Ry/au):

     atom    1 type  1   force =    -0.00030410    0.00030676   -0.00020901
     atom    2 type  1   force =    -0.00040833    0.00032080   -0.00017130
     atom    3 type  2   force =     0.00071243   -0.00062755    0.00038031

     Total force =     0.001255     Total SCF correction =     0.000436
     SCF correction compared to forces is large: reduce conv_thr to get better values

     Entering Dynamics:    iteration =     4
                           time      =   0.0194 pico-seconds


     Andersen thermostat:    3 collisions

ATOMIC_POSITIONS (bohr)
H       17.556100410  12.378341695  12.568854806
H       14.501826427   1.768946793  17.979033681
O        4.535946012   2.176723589  10.703426789


     kinetic energy (Ekin) =     0.01980568 Ry
     temperature           =  1042.35524767 K 
     Ekin + Etot (const)   =   -31.47055652 Ry
     Message from routine dynamics:
     Total linear momentum <> 0

     Linear momentum :    0.6585480540    0.4524520681   -0.2987964083

     Writing output data file pwscf.save

     second order wave-functions extrapolation
     Check: negative starting charge=   -0.352622
     second order charge density extrapolation
     Check: negative starting charge=   -0.352349

     negative rho (up, down):  6.036E-02 0.000E+00

     total cpu time spent up to now is        5.5 secs

     per-process dynamical memory:    20.4 Mb

     Self-consistent Calculation

     iteration #  1     ecut=    30.00 Ry     beta=0.70
     Davidson diagonalization with overlap
     ethr =  1.00E-06,  avg # of iterations = 10.0

     negative rho (up, down):  1.333E-02 0.000E+00

     total cpu time spent up to now is        5.6 secs

     total energy              =     -31.46196621 Ry
     Harris-Foulkes estimate   =     -31.44018212 Ry
     estimated scf accuracy    <       0.02033410 Ry

     iteration #  2     ecut=    30.00 Ry     beta=0.70
     Davidson diagonalization with overlap
     ethr =  2.54E-04,  avg # of iterations =  2.0

     negative rho (up, down):  1.258E-02 0.000E+00

     total cpu time spent up to now is        5.7 secs

     total energy              =     -31.46034791 Ry
     Harris-Foulkes estimate   =     -31.76377297 Ry
     estimated scf accuracy    <       4.04311861 Ry

     iteration #  3     ecut=    30.00 Ry     beta=0.70
     Davidson diagonalization with overlap
     ethr =  2.54E-04,  avg # of iterations =  2.0

     negative rho (up, down):  1.221E-02 0.000E+00

     total cpu time spent up to now is        5.7 secs

     total energy              =     -31.46267723 Ry
     Harris-Foulkes estimate   =     -31.50941018 Ry
     estimated scf accuracy    <       1.14110899 Ry

     iteration #  4     ecut=    30.00 Ry     beta=0.70
     Davidson diagonalization with overlap
     ethr =  2.54E-04,  avg # of iterations =  1.0

     negative rho (up, down):  2.712E-03 0.000E+00

     total cpu time spent up to now is        5.7 secs

     total energy              =     -31.47854129 Ry
     Harris-Foulkes estimate   =     -31.47975446 Ry
     estimated scf accuracy    <       0.12088679 Ry

     iteration #  5     ecut=    30.00 Ry     beta=0.70
     Davidson diagonalization with overlap
     ethr =  2.54E-04,  avg # of iterations =  3.0

     negative rho (up, down):  1.564E-03 0.000E+00

     total cpu time spent up to now is        5.7 secs

     total energy              =     -31.47329130 Ry
     Harris-Foulkes estimate   =     -31.50315032 Ry
     estimated scf accuracy    <       1.10887545 Ry

     iteration #  6     ecut=    30.00 Ry     beta=0.70
     Davidson diagonalization with overlap
     ethr =  2.54E-04,  avg # of iterations =  1.0

     negative rho (up, down):  1.100E-04 0.000E+00

     total cpu time spent up to now is        5.8 secs

     total energy              =     -31.48932018 Ry
     Harris-Foulkes estimate   =     -31.49014916 Ry
     estimated scf accuracy    <       0.06030415 Ry

     iteration #  7     ecut=    30.00 Ry     beta=0.70
     Davidson diagonalization with overlap
     ethr =  2.54E-04,  avg # of iterations =  3.0

     negative rho (up, down):  1.188E-05 0.000E+00

     total cpu time spent up to now is        5.8 secs

     total energy              =     -31.49036529 Ry
     Harris-Foulkes estimate   =     -31.49043739 Ry
     estimated scf accuracy    <       0.01015515 Ry

     iteration #  8     ecut=    30.00 Ry     beta=0.70
     Davidson diagonalization with overlap
     ethr =  1.27E-04,  avg # of iterations =  1.0

     negative rho (up, down):  4.208E-06 0.000E+00

     total cpu time spent up to now is        5.8 secs

     total energy              =     -31.49033801 Ry
     Harris-Foulkes estimate   =     -31.49038626 Ry
     estimated scf accuracy    <       0.00357613 Ry

     iteration #  9     ecut=    30.00 Ry     beta=0.70
     Davidson diagonalization with overlap
     ethr =  4.47E-05,  avg # of iterations =  1.0

     total cpu time spent up to now is        5.9 secs

     total energy              =     -31.49035446 Ry
     Harris-Foulkes estimate   =     -31.49035780 Ry
     estimated scf accuracy    <       0.00025615 Ry

     iteration # 10     ecut=    30.00 Ry     beta=0.70
     Davidson diagonalization with overlap
     ethr =  3.20E-06,  avg # of iterations =  7.0

     total cpu time spent up to now is        5.9 secs

     total energy              =     -31.49035998 Ry
     Harris-Foulkes estimate   =     -31.49036560 Ry
     estimated scf accuracy    <       0.00034799 Ry

     iteration # 11     ecut=    30.00 Ry     beta=0.70
     Davidson diagonalization with overlap
     ethr =  3.20E-06,  avg # of iterations =  1.0

     total cpu time spent up to now is        6.0 secs

     total energy              =     -31.49036218 Ry
     Harris-Foulkes estimate   =     -31.49036238 Ry
     estimated scf accuracy    <       0.00000905 Ry

     iteration # 12     ecut=    30.00 Ry     beta=0.70
     Davidson diagonalization with overlap
     ethr =  1.13E-07,  avg # of iterations =  1.0

     total cpu time spent up to now is        6.0 secs

     total energy              =     -31.49036197 Ry
     Harris-Foulkes estimate   =     -31.49036222 Ry
     estimated scf accuracy    <       0.00000129 Ry

     iteration # 13     ecut=    30.00 Ry     beta=0.70
     Davidson diagonalization with overlap
     ethr =  1.61E-08,  avg # of iterations =  1.0

     total cpu time spent up to now is        6.1 secs

     total energy              =     -31.49036195 Ry
     Harris-Foulkes estimate   =     -31.49036198 Ry
     estimated scf accuracy    <       0.00000049 Ry

     iteration # 14     ecut=    30.00 Ry     beta=0.70
     Davidson diagonalization with overlap
     ethr =  6.18E-09,  avg # of iterations =  1.0

     total cpu time spent up to now is        6.1 secs

     End of self-consistent calculation

          k = 0.0000 0.0000 0.0000 ( 22119 PWs)   bands (ev):

   -23.6132  -7.0236  -7.0232  -7.0227  -6.9248  -6.9117  -0.2467   0.6042

     the Fermi energy is    -6.8885 ev

!    total energy              =     -31.49036197 Ry
     Harris-Foulkes estimate   =     -31.49036196 Ry
     estimated scf accuracy    <          7.6E-09 Ry

     convergence has been achieved in  14 iterations

     Forces acting on atoms (Ry/au):

     atom    1 type  1   force =    -0.00018524    0.00020786    0.00003265
     atom    2 type  1   force =    -0.00029002    0.00024720    0.00004791
     atom    3 type  2   force =     0.00047526   -0.00045507   -0.00008056

     Total force =     0.000816     Total SCF correction =     0.000045

     Entering Dynamics:    iteration =     5
                           time      =   0.0242 pico-seconds


     Andersen thermostat:    3 collisions

ATOMIC_POSITIONS (bohr)
H       17.370777617  12.673995005  12.874131357
H       13.964021747   1.987117529  17.700969787
O        4.581593434   2.144288446  10.701708990


     kinetic energy (Ekin) =     0.03218010 Ry
     temperature           =  1693.60985408 K 
     Ekin + Etot (const)   =   -31.45818187 Ry
     Message from routine dynamics:
     Total linear momentum <> 0

     Linear momentum :    0.2555715914    0.0401351917   -0.1541686132

     Writing output data file pwscf.save

     second order wave-functions extrapolation
     Check: negative starting charge=   -0.352349
     second order charge density extrapolation
     Check: negative starting charge=   -0.353095

     negative rho (up, down):  7.114E-02 0.000E+00

     total cpu time spent up to now is        6.5 secs

     per-process dynamical memory:    20.4 Mb

     Self-consistent Calculation

     iteration #  1     ecut=    30.00 Ry     beta=0.70
     Davidson diagonalization with overlap
     ethr =  1.00E-06,  avg # of iterations = 14.0

     negative rho (up, down):  1.575E-02 0.000E+00

     total cpu time spent up to now is        6.6 secs

     total energy              =     -31.44480018 Ry
     Harris-Foulkes estimate   =     -31.43830500 Ry
     estimated scf accuracy    <       0.04130872 Ry

     iteration #  2     ecut=    30.00 Ry     beta=0.70
     Davidson diagonalization with overlap
     ethr =  5.16E-04,  avg # of iterations =  2.0

     negative rho (up, down):  1.382E-02 0.000E+00

     total cpu time spent up to now is        6.6 secs

     total energy              =     -31.48378946 Ry
     Harris-Foulkes estimate   =     -31.68005317 Ry
     estimated scf accuracy    <       1.28704965 Ry

     iteration #  3     ecut=    30.00 Ry     beta=0.70
     Davidson diagonalization with overlap
     ethr =  5.16E-04,  avg # of iterations =  2.0

     negative rho (up, down):  1.351E-02 0.000E+00

     total cpu time spent up to now is        6.7 secs

     total energy              =     -31.46136331 Ry
     Harris-Foulkes estimate   =     -31.54691595 Ry
     estimated scf accuracy    <       2.58537958 Ry

     iteration #  4     ecut=    30.00 Ry     beta=0.70
     Davidson diagonalization with overlap
     ethr =  5.16E-04,  avg # of iterations =  1.0

     negative rho (up, down):  1.148E-02 0.000E+00

     total cpu time spent up to now is        6.7 secs

     total energy              =     -31.44745304 Ry
     Harris-Foulkes estimate   =     -31.48960382 Ry
     estimated scf accuracy    <       0.48771375 Ry

     iteration #  5     ecut=    30.00 Ry     beta=0.70
     Davidson diagonalization with overlap
     ethr =  5.16E-04,  avg # of iterations =  1.0

     negative rho (up, down):  2.443E-03 0.000E+00

     total cpu time spent up to now is        6.8 secs

     total energy              =     -31.48521346 Ry
     Harris-Foulkes estimate   =     -31.49449301 Ry
     estimated scf accuracy    <       0.79497588 Ry

     iteration #  6     ecut=    30.00 Ry     beta=0.70
     Davidson diagonalization with overlap
     ethr =  5.16E-04,  avg # of iterations =  1.0

     negative rho (up, down):  1.032E-03 0.000E+00

     total cpu time spent up to now is        6.8 secs

     total energy              =     -31.48910894 Ry
     Harris-Foulkes estimate   =     -31.49069889 Ry
     estimated scf accuracy    <       0.11108472 Ry

     iteration #  7     ecut=    30.00 Ry     beta=0.70
     Davidson diagonalization with overlap
     ethr =  5.16E-04,  avg # of iterations =  1.0

     negative rho (up, down):  1.421E-04 0.000E+00

     total cpu time spent up to now is        6.9 secs

     total energy              =     -31.48954218 Ry
     Harris-Foulkes estimate   =     -31.49024603 Ry
     estimated scf accuracy    <       0.00793354 Ry

     iteration #  8     ecut=    30.00 Ry     beta=0.70
     Davidson diagonalization with overlap
     ethr =  9.92E-05,  avg # of iterations =  4.0

     negative rho (up, down):  3.297E-07 0.000E+00

     total cpu time spent up to now is        6.9 secs

     total energy              =     -31.48892902 Ry
     Harris-Foulkes estimate   =     -31.49154210 Ry
     estimated scf accuracy    <       0.06441619 Ry

     iteration #  9     ecut=    30.00 Ry     beta=0.70
     Davidson diagonalization with overlap
     ethr =  9.92E-05,  avg # of iterations =  1.0

     negative rho (up, down):  1.143E-07 0.000E+00

     total cpu time spent up to now is        7.0 secs

     total energy              =     -31.49042059 Ry
     Harris-Foulkes estimate   =     -31.49042605 Ry
     estimated scf accuracy    <       0.00177573 Ry

     iteration # 10     ecut=    30.00 Ry     beta=0.70
     Davidson diagonalization with overlap
     ethr =  2.22E-05,  avg # of iterations =  1.0

     negative rho (up, down):  1.913E-08 0.000E+00

     total cpu time spent up to now is        7.0 secs

     total energy              =     -31.49036678 Ry
     Harris-Foulkes estimate   =     -31.49042138 Ry
     estimated scf accuracy    <       0.00144810 Ry

     iteration # 11     ecut=    30.00 Ry     beta=0.70
     Davidson diagonalization with overlap
     ethr =  1.81E-05,  avg # of iterations =  1.0

     total cpu time spent up to now is        7.0 secs

     total energy              =     -31.49039503 Ry
     Harris-Foulkes estimate   =     -31.49039577 Ry
     estimated scf accuracy    <       0.00001003 Ry

     iteration # 12     ecut=    30.00 Ry     beta=0.70
     Davidson diagonalization with overlap
     ethr =  1.25E-07,  avg # of iterations =  6.0

     total cpu time spent up to now is        7.1 secs

     total energy              =     -31.49039519 Ry
     Harris-Foulkes estimate   =     -31.49039638 Ry
     estimated scf accuracy    <       0.00003617 Ry

     iteration # 13     ecut=    30.00 Ry     beta=0.70
     Davidson diagonalization with overlap
     ethr =  1.25E-07,  avg # of iterations =  1.0

     total cpu time spent up to now is        7.1 secs

     total energy              =     -31.49039583 Ry
     Harris-Foulkes estimate   =     -31.49039589 Ry
     estimated scf accuracy    <       0.00000038 Ry

     iteration # 14     ecut=    30.00 Ry     beta=0.70
     Davidson diagonalization with overlap
     ethr =  4.81E-09,  avg # of iterations =  1.0

     total cpu time spent up to now is        7.1 secs

     total energy              =     -31.49039581 Ry
     Harris-Foulkes estimate   =     -31.49039584 Ry
     estimated scf accuracy    <       0.00000005 Ry

     iteration # 15     ecut=    30.00 Ry     beta=0.70
     Davidson diagonalization with overlap
     ethr =  6.54E-10,  avg # of iterations =  1.0

     total cpu time spent up to now is        7.2 secs

     total energy              =     -31.49039605 Ry
     Harris-Foulkes estimate   =     -31.49039581 Ry
     estimated scf accuracy    <       0.00000003 Ry

     iteration # 16     ecut=    30.00 Ry     beta=0.70
     Davidson diagonalization with overlap
     ethr =  4.00E-10,  avg # of iterations =  1.0

     total cpu time spent up to now is        7.2 secs

     End of self-consistent calculation

          k = 0.0000 0.0000 0.0000 ( 22119 PWs)   bands (ev):

   -23.6146  -7.0250  -7.0244  -7.0243  -6.9277  -6.9120  -0.2454   0.5977

     the Fermi energy is    -6.8900 ev

!    total energy              =     -31.49039609 Ry
     Harris-Foulkes estimate   =     -31.49039605 Ry
     estimated scf accuracy    <          4.8E-09 Ry

     convergence has been achieved in  16 iterations

     Forces acting on atoms (Ry/au):

     atom    1 type  1   force =     0.00009371    0.00019947   -0.00002672
     atom    2 type  1   force =    -0.00002435    0.00021682   -0.00001147
     atom    3 type  2   force =    -0.00006935   -0.00041629    0.00003819

     Total force =     0.000526     Total SCF correction =     0.000090
     SCF correction compared to forces is large: reduce conv_thr to get better values

     Entering Dynamics:    iteration =     6
                           time      =   0.0290 pico-seconds


     Andersen thermostat:    3 collisions

ATOMIC_POSITIONS (bohr)
H       17.346350401  12.088843192  12.755457549
H       13.596977470   1.772367189  18.051245480
O        4.606305072   2.194782270  10.687089121


     kinetic energy (Ekin) =     0.03358443 Ry
     temperature           =  1767.51838958 K 
     Ekin + Etot (const)   =   -31.45681167 Ry
     Message from routine dynamics:
     Total linear momentum <> 0

     Linear momentum :    0.0271839412   -0.0722010692   -0.2133873842

     Writing output data file pwscf.save

     second order wave-functions extrapolation
     Check: negative starting charge=   -0.353095
     second order charge density extrapolation
     Check: negative starting charge=   -0.352346

     negative rho (up, down):  8.785E-02 0.000E+00

     total cpu time spent up to now is        7.5 secs

     per-process dynamical memory:    20.4 Mb

     Self-consistent Calculation

     iteration #  1     ecut=    30.00 Ry     beta=0.70
     Davidson diagonalization with overlap
     c_bands:  1 eigenvalues not converged
     ethr =  1.00E-06,  avg # of iterations = 20.0

     negative rho (up, down):  2.081E-02 0.000E+00

     total cpu time spent up to now is        7.6 secs

     total energy              =     -30.49063828 Ry
     Harris-Foulkes estimate   =     -31.69607113 Ry
     estimated scf accuracy    <       1.04787638 Ry

     iteration #  2     ecut=    30.00 Ry     beta=0.70
     Davidson diagonalization with overlap
     ethr =  1.00E-02,  avg # of iterations =  3.0

     negative rho (up, down):  1.651E-02 0.000E+00

     total cpu time spent up to now is        7.6 secs

     total energy              =     -31.49880161 Ry
     Harris-Foulkes estimate   =     -33.32957018 Ry
     estimated scf accuracy    <       5.70778534 Ry

     iteration #  3     ecut=    30.00 Ry     beta=0.70
     Davidson diagonalization with overlap
     ethr =  1.00E-02,  avg # of iterations =  2.0

     negative rho (up, down):  1.367E-02 0.000E+00

     total cpu time spent up to now is        7.7 secs

     total energy              =     -31.77329888 Ry
     Harris-Foulkes estimate   =     -32.29407631 Ry
     estimated scf accuracy    <       2.19572340 Ry

     iteration #  4     ecut=    30.00 Ry     beta=0.70
     Davidson diagonalization with overlap
     ethr =  1.00E-02,  avg # of iterations =  1.0

     negative rho (up, down):  1.306E-02 0.000E+00

     total cpu time spent up to now is        7.7 secs

     total energy              =     -31.70008639 Ry
     Harris-Foulkes estimate   =     -31.78225647 Ry
     estimated scf accuracy    <       1.51937809 Ry

     iteration #  5     ecut=    30.00 Ry     beta=0.70
     Davidson diagonalization with overlap
     ethr =  1.00E-02,  avg # of iterations =  1.0

     negative rho (up, down):  1.012E-02 0.000E+00

     total cpu time spent up to now is        7.7 secs

     total energy              =     -31.56547439 Ry
     Harris-Foulkes estimate   =     -31.75084023 Ry
     estimated scf accuracy    <       2.44941134 Ry

     iteration #  6     ecut=    30.00 Ry     beta=0.70
     Davidson diagonalization with overlap
     ethr =  1.00E-02,  avg # of iterations =  3.0

     negative rho (up, down):  1.125E-03 0.000E+00

     total cpu time spent up to now is        7.8 secs

     total energy              =     -31.31696871 Ry
     Harris-Foulkes estimate   =     -31.57111755 Ry
     estimated scf accuracy    <       2.81902334 Ry

     iteration #  7     ecut=    30.00 Ry     beta=0.70
     Davidson diagonalization with overlap
     ethr =  1.00E-02,  avg # of iterations =  2.0

     negative rho (up, down):  2.362E-03 0.000E+00

     total cpu time spent up to now is        7.9 secs

     total energy              =     -32.16512817 Ry
     Harris-Foulkes estimate   =     -32.64183526 Ry
     estimated scf accuracy    <       2.86368998 Ry

     iteration #  8     ecut=    30.00 Ry     beta=0.70
     Davidson diagonalization with overlap
     ethr =  1.00E-02,  avg # of iterations =  1.0

     negative rho (up, down):  3.711E-03 0.000E+00

     total cpu time spent up to now is        8.0 secs

     total energy              =     -31.78957457 Ry
     Harris-Foulkes estimate   =     -32.16918556 Ry
     estimated scf accuracy    <       2.04957738 Ry

     iteration #  9     ecut=    30.00 Ry     beta=0.70
     Davidson diagonalization with overlap
     ethr =  1.00E-02,  avg # of iterations =  1.0

     negative rho (up, down):  2.991E-03 0.000E+00

     total cpu time spent up to now is        8.0 secs

     total energy              =     -31.96654663 Ry
     Harris-Foulkes estimate   =     -31.79561949 Ry
     estimated scf accuracy    <       1.45376397 Ry

     iteration # 10     ecut=    30.00 Ry     beta=0.70
     Davidson diagonalization with overlap
     ethr =  1.00E-02,  avg # of iterations =  1.0

     negative rho (up, down):  6.984E-05 0.000E+00

     total cpu time spent up to now is        8.0 secs

     total energy              =     -32.76073888 Ry
     Harris-Foulkes estimate   =     -31.96811569 Ry
     estimated scf accuracy    <       1.72556773 Ry

     iteration # 11     ecut=    30.00 Ry     beta=0.70
     Davidson diagonalization with overlap
     ethr =  1.00E-02,  avg # of iterations =  1.0

     negative rho (up, down):  1.698E-01 0.000E+00

     total cpu time spent up to now is        8.1 secs

     total energy              =     -33.03686492 Ry
     Harris-Foulkes estimate   =     -32.77327804 Ry
     estimated scf accuracy    <       3.21533312 Ry

     iteration # 12     ecut=    30.00 Ry     beta=0.70
     Davidson diagonalization with overlap
     ethr =  1.00E-02,  avg # of iterations =  2.0

     negative rho (up, down):  2.050E-03 0.000E+00

     total cpu time spent up to now is        8.1 secs

     total energy              =     -32.44645365 Ry
     Harris-Foulkes estimate   =     -33.13960195 Ry
     estimated scf accuracy    <       3.75833850 Ry

     iteration # 13     ecut=    30.00 Ry     beta=0.70
     Davidson diagonalization with overlap
     ethr =  1.00E-02,  avg # of iterations =  2.0

     negative rho (up, down):  1.162E-02 0.000E+00

     total cpu time spent up to now is        8.2 secs

     total energy              =     -31.20821934 Ry
     Harris-Foulkes estimate   =     -32.53731188 Ry
     estimated scf accuracy    <       2.67955435 Ry

     iteration # 14     ecut=    30.00 Ry     beta=0.70
     Davidson diagonalization with overlap
     ethr =  1.00E-02,  avg # of iterations =  2.0

     negative rho (up, down):  1.159E-03 0.000E+00

     total cpu time spent up to now is        8.2 secs

     total energy              =     -31.26287230 Ry
     Harris-Foulkes estimate   =     -31.71500089 Ry
     estimated scf accuracy    <       1.33375606 Ry

     iteration # 15     ecut=    30.00 Ry     beta=0.70
     Davidson diagonalization with overlap
     ethr =  1.00E-02,  avg # of iterations =  1.0

     negative rho (up, down):  3.139E-03 0.000E+00

     total cpu time spent up to now is        8.2 secs

     total energy              =     -31.73354634 Ry
     Harris-Foulkes estimate   =     -31.89167304 Ry
     estimated scf accuracy    <       4.56473512 Ry

     iteration # 16     ecut=    30.00 Ry     beta=0.70
     Davidson diagonalization with overlap
     ethr =  1.00E-02,  avg # of iterations =  1.0

     negative rho (up, down):  2.686E-04 0.000E+00

     total cpu time spent up to now is        8.3 secs

     total energy              =     -31.58905856 Ry
     Harris-Foulkes estimate   =     -31.73576577 Ry
     estimated scf accuracy    <       4.04298863 Ry

     iteration # 17     ecut=    30.00 Ry     beta=0.70
     Davidson diagonalization with overlap
     ethr =  1.00E-02,  avg # of iterations =  1.0

     negative rho (up, down):  3.418E-04 0.000E+00

     total cpu time spent up to now is        8.3 secs

     total energy              =     -31.40823346 Ry
     Harris-Foulkes estimate   =     -31.61170129 Ry
     estimated scf accuracy    <       1.12884595 Ry

     iteration # 18     ecut=    30.00 Ry     beta=0.70
     Davidson diagonalization with overlap
     ethr =  1.00E-02,  avg # of iterations =  1.0

     negative rho (up, down):  3.746E-04 0.000E+00

     total cpu time spent up to now is        8.3 secs

     total energy              =     -31.43763064 Ry
     Harris-Foulkes estimate   =     -31.72020625 Ry
     estimated scf accuracy    <       1.31637348 Ry

     iteration # 19     ecut=    30.00 Ry     beta=0.70
     Davidson diagonalization with overlap
     ethr =  1.00E-02,  avg # of iterations =  1.0

     negative rho (up, down):  1.086E-05 0.000E+00

     total cpu time spent up to now is        8.4 secs

     total energy              =     -31.49035749 Ry
     Harris-Foulkes estimate   =     -31.52317975 Ry
     estimated scf accuracy    <       1.40345787 Ry

     iteration # 20     ecut=    30.00 Ry     beta=0.70
     Davidson diagonalization with overlap
     ethr =  1.00E-02,  avg # of iterations =  1.0

     negative rho (up, down):  1.310E-05 0.000E+00

     total cpu time spent up to now is        8.4 secs

     total energy              =     -31.48616482 Ry
     Harris-Foulkes estimate   =     -31.49875707 Ry
     estimated scf accuracy    <       0.92386321 Ry

     iteration # 21     ecut=    30.00 Ry     beta=0.70
     Davidson diagonalization with overlap
     ethr =  1.00E-02,  avg # of iterations =  1.0

     negative rho (up, down):  8.807E-06 0.000E+00

     total cpu time spent up to now is        8.4 secs

     total energy              =     -31.48078330 Ry
[...]
     Harris-Foulkes estimate   =   -3384.73785339 Ry
     estimated scf accuracy    <      78.09965942 Ry

     iteration # 59     ecut=    30.00 Ry     beta=0.70
     Davidson diagonalization with overlap
     ethr =  9.54E-03,  avg # of iterations =  8.0

     negative rho (up, down):  6.883E-01 0.000E+00

     total cpu time spent up to now is      118.6 secs

     total energy              =      -5.41821393 Ry
     Harris-Foulkes estimate   =   -2061.60653868 Ry
     estimated scf accuracy    <      75.20439186 Ry

     iteration # 60     ecut=    30.00 Ry     beta=0.70
     Davidson diagonalization with overlap
     ethr =  9.54E-03,  avg # of iterations =  8.0

     negative rho (up, down):  1.198E+00 0.000E+00

     total cpu time spent up to now is      118.7 secs

     total energy              =       6.55453621 Ry
     Harris-Foulkes estimate   =   -2345.52917601 Ry
     estimated scf accuracy    <      40.21292285 Ry

     iteration # 61     ecut=    30.00 Ry     beta=0.70
     Davidson diagonalization with overlap
     ethr =  9.54E-03,  avg # of iterations =  8.0

     negative rho (up, down):  1.747E+00 0.000E+00

     total cpu time spent up to now is      118.7 secs

     total energy              =    -121.72636723 Ry
     Harris-Foulkes estimate   =   -1730.44359325 Ry
     estimated scf accuracy    <      27.93566286 Ry

     iteration # 62     ecut=    30.00 Ry     beta=0.70
     Davidson diagonalization with overlap
     ethr =  9.54E-03,  avg # of iterations =  9.0

     negative rho (up, down):  1.553E+00 0.000E+00

     total cpu time spent up to now is      118.8 secs

     total energy              =      57.87205561 Ry
     Harris-Foulkes estimate   =   -6128.14266484 Ry
     estimated scf accuracy    <      25.31383561 Ry

     iteration # 63     ecut=    30.00 Ry     beta=0.70
     Davidson diagonalization with overlap
     ethr =  9.54E-03,  avg # of iterations =  7.0

     negative rho (up, down):  2.159E+00 0.000E+00

     total cpu time spent up to now is      118.9 secs

     total energy              =     -83.83541649 Ry
     Harris-Foulkes estimate   =   -1598.19750464 Ry
     estimated scf accuracy    <      48.72887456 Ry

     iteration # 64     ecut=    30.00 Ry     beta=0.70
     Davidson diagonalization with overlap
     ethr =  9.54E-03,  avg # of iterations = 10.0

     negative rho (up, down):  2.275E+00 0.000E+00

     total cpu time spent up to now is      118.9 secs

     total energy              =   -7210.40915803 Ry
     Harris-Foulkes estimate   =   -7149.66628888 Ry
     estimated scf accuracy    <      42.33843708 Ry

     iteration # 65     ecut=    30.00 Ry     beta=0.70
     Davidson diagonalization with overlap
     ethr =  9.54E-03,  avg # of iterations =  6.0

     negative rho (up, down):  2.186E+00 0.000E+00

     total cpu time spent up to now is      119.0 secs

     total energy              =    -103.99162831 Ry
     Harris-Foulkes estimate   =  -29822.61528366 Ry
     estimated scf accuracy    <      35.31796124 Ry

     iteration # 66     ecut=    30.00 Ry     beta=0.70
     Davidson diagonalization with overlap
     ethr =  9.54E-03,  avg # of iterations = 11.0

     negative rho (up, down):  1.957E+00 0.000E+00

     total cpu time spent up to now is      119.0 secs

     total energy              =      59.62857747 Ry
     Harris-Foulkes estimate   =  -32189.85816214 Ry
     estimated scf accuracy    <      33.71871408 Ry

     iteration # 67     ecut=    30.00 Ry     beta=0.70
     Davidson diagonalization with overlap
     ethr =  9.54E-03,  avg # of iterations = 10.0

     negative rho (up, down):  9.315E-01 0.000E+00

     total cpu time spent up to now is      119.1 secs

     total energy              =      51.07942408 Ry
     Harris-Foulkes estimate   =   -4185.35962877 Ry
     estimated scf accuracy    <      26.04838946 Ry

     iteration # 68     ecut=    30.00 Ry     beta=0.70
     Davidson diagonalization with overlap
     ethr =  9.54E-03,  avg # of iterations =  7.0

     negative rho (up, down):  3.825E-01 0.000E+00

     total cpu time spent up to now is      119.2 secs

     total energy              =      42.16507438 Ry
     Harris-Foulkes estimate   =  -23425.96370994 Ry
     estimated scf accuracy    <      20.64445042 Ry

     iteration # 69     ecut=    30.00 Ry     beta=0.70
     Davidson diagonalization with overlap
     ethr =  9.54E-03,  avg # of iterations = 11.0

     negative rho (up, down):  5.630E-01 0.000E+00

     total cpu time spent up to now is      119.2 secs

     total energy              =   -8495.16645658 Ry
     Harris-Foulkes estimate   =   -3314.49022029 Ry
     estimated scf accuracy    <      25.68646280 Ry

     iteration # 70     ecut=    30.00 Ry     beta=0.70
     Davidson diagonalization with overlap
     ethr =  9.54E-03,  avg # of iterations =  8.0

     negative rho (up, down):  7.454E-01 0.000E+00

     total cpu time spent up to now is      119.3 secs

     total energy              =      34.41319912 Ry
     Harris-Foulkes estimate   =  -22214.74410487 Ry
     estimated scf accuracy    <      18.38078335 Ry

     iteration # 71     ecut=    30.00 Ry     beta=0.70
     Davidson diagonalization with overlap
     ethr =  9.54E-03,  avg # of iterations =  8.0

     negative rho (up, down):  7.488E-01 0.000E+00

     total cpu time spent up to now is      119.3 secs

     total energy              =    -165.26311515 Ry
     Harris-Foulkes estimate   =   -1210.99541308 Ry
     estimated scf accuracy    <      24.20980846 Ry

     iteration # 72     ecut=    30.00 Ry     beta=0.70
     Davidson diagonalization with overlap
     ethr =  9.54E-03,  avg # of iterations =  9.0

     negative rho (up, down):  2.302E-01 0.000E+00

     total cpu time spent up to now is      119.4 secs

     total energy              =     -10.95548028 Ry
     Harris-Foulkes estimate   =    -688.70813703 Ry
     estimated scf accuracy    <      23.39392192 Ry

     iteration # 73     ecut=    30.00 Ry     beta=0.70
     Davidson diagonalization with overlap
     ethr =  9.54E-03,  avg # of iterations =  8.0

     negative rho (up, down):  9.569E-02 0.000E+00

     total cpu time spent up to now is      119.5 secs

     total energy              =      93.90252675 Ry
     Harris-Foulkes estimate   =   -1624.47302334 Ry
     estimated scf accuracy    <      43.70590251 Ry

     iteration # 74     ecut=    30.00 Ry     beta=0.70
     Davidson diagonalization with overlap
     ethr =  9.54E-03,  avg # of iterations =  7.0

     negative rho (up, down):  2.960E-02 0.000E+00

     total cpu time spent up to now is      119.5 secs

     total energy              =      64.25667040 Ry
     Harris-Foulkes estimate   =    -413.39960073 Ry
     estimated scf accuracy    <      21.12716736 Ry

     iteration # 75     ecut=    30.00 Ry     beta=0.70
     Davidson diagonalization with overlap
     ethr =  9.54E-03,  avg # of iterations =  8.0

     negative rho (up, down):  7.976E-04 0.000E+00

     total cpu time spent up to now is      119.6 secs

     total energy              =      -0.27180499 Ry
     Harris-Foulkes estimate   =     -68.83844590 Ry
     estimated scf accuracy    <      17.32843942 Ry

     iteration # 76     ecut=    30.00 Ry     beta=0.70
     Davidson diagonalization with overlap
     ethr =  9.54E-03,  avg # of iterations =  4.0

     negative rho (up, down):  1.356E-06 0.000E+00

     total cpu time spent up to now is      119.6 secs

     total energy              =     -11.93491019 Ry
     Harris-Foulkes estimate   =     -40.52851382 Ry
     estimated scf accuracy    <      14.85743274 Ry

     iteration # 77     ecut=    30.00 Ry     beta=0.70
     Davidson diagonalization with overlap
     ethr =  9.54E-03,  avg # of iterations =  4.0

     negative rho (up, down):  2.129E-03 0.000E+00

     total cpu time spent up to now is      119.7 secs

     total energy              =     -31.64863443 Ry
     Harris-Foulkes estimate   =     -32.92946668 Ry
     estimated scf accuracy    <       7.12420012 Ry

     iteration # 78     ecut=    30.00 Ry     beta=0.70
     Davidson diagonalization with overlap
     ethr =  9.54E-03,  avg # of iterations =  2.0

     negative rho (up, down):  2.894E-02 0.000E+00

     total cpu time spent up to now is      119.7 secs

     total energy              =     -33.39515232 Ry
     Harris-Foulkes estimate   =     -32.24953944 Ry
     estimated scf accuracy    <       2.23324980 Ry

     iteration # 79     ecut=    30.00 Ry     beta=0.70
     Davidson diagonalization with overlap
     ethr =  9.54E-03,  avg # of iterations =  4.0

     negative rho (up, down):  9.624E-02 0.000E+00

     total cpu time spent up to now is      119.8 secs

     total energy              =     -89.72235016 Ry
     Harris-Foulkes estimate   =     -68.80594591 Ry
     estimated scf accuracy    <      14.58729882 Ry

     iteration # 80     ecut=    30.00 Ry     beta=0.70
     Davidson diagonalization with overlap
     ethr =  9.54E-03,  avg # of iterations =  6.0

     negative rho (up, down):  9.658E-02 0.000E+00

     total cpu time spent up to now is      119.8 secs

     total energy              =     -27.37049404 Ry
     Harris-Foulkes estimate   =    -700.95577595 Ry
     estimated scf accuracy    <      22.29635031 Ry

     iteration # 81     ecut=    30.00 Ry     beta=0.70
     Davidson diagonalization with overlap
     ethr =  9.54E-03,  avg # of iterations =  4.0

     negative rho (up, down):  1.020E-01 0.000E+00

     total cpu time spent up to now is      119.9 secs

     total energy              =   -2130.02930343 Ry
     Harris-Foulkes estimate   =    -206.41693717 Ry
     estimated scf accuracy    <      43.89463743 Ry

     iteration # 82     ecut=    30.00 Ry     beta=0.70
     Davidson diagonalization with overlap
     ethr =  9.54E-03,  avg # of iterations =  8.0

     negative rho (up, down):  1.177E-01 0.000E+00

     total cpu time spent up to now is      119.9 secs

     total energy              =      57.25437157 Ry
     Harris-Foulkes estimate   =   -4231.82738674 Ry
     estimated scf accuracy    <      28.68208962 Ry

     iteration # 83     ecut=    30.00 Ry     beta=0.70
     Davidson diagonalization with overlap
     ethr =  9.54E-03,  avg # of iterations =  5.0

     negative rho (up, down):  1.744E-01 0.000E+00

     total cpu time spent up to now is      120.0 secs

     total energy              =      39.19721984 Ry
     Harris-Foulkes estimate   =     -39.52855900 Ry
     estimated scf accuracy    <      10.53590520 Ry

     iteration # 84     ecut=    30.00 Ry     beta=0.70
     Davidson diagonalization with overlap
     ethr =  9.54E-03,  avg # of iterations =  7.0

     negative rho (up, down):  1.884E-01 0.000E+00

     total cpu time spent up to now is      120.0 secs

     total energy              =      15.15078674 Ry
     Harris-Foulkes estimate   =    -354.94713786 Ry
     estimated scf accuracy    <      17.23694375 Ry

     iteration # 85     ecut=    30.00 Ry     beta=0.70
     Davidson diagonalization with overlap
     ethr =  9.54E-03,  avg # of iterations =  8.0

     negative rho (up, down):  3.055E-01 0.000E+00

     total cpu time spent up to now is      120.1 secs

     total energy              =     -34.58663432 Ry
     Harris-Foulkes estimate   =    -603.39334131 Ry
     estimated scf accuracy    <      31.85959331 Ry

     iteration # 86     ecut=    30.00 Ry     beta=0.70
     Davidson diagonalization with overlap
     ethr =  9.54E-03,  avg # of iterations =  6.0

     negative rho (up, down):  3.534E-01 0.000E+00

     total cpu time spent up to now is      120.1 secs

     total energy              =   -1657.58558509 Ry
     Harris-Foulkes estimate   =    -241.03768514 Ry
     estimated scf accuracy    <      34.39883499 Ry

     iteration # 87     ecut=    30.00 Ry     beta=0.70
     Davidson diagonalization with overlap
     ethr =  9.54E-03,  avg # of iterations =  4.0

     negative rho (up, down):  9.551E-01 0.000E+00

     total cpu time spent up to now is      120.2 secs

     total energy              =   -8217.95970275 Ry
     Harris-Foulkes estimate   =   -2937.61258786 Ry
     estimated scf accuracy    <      42.99510816 Ry

     iteration # 88     ecut=    30.00 Ry     beta=0.70
     Davidson diagonalization with overlap
     ethr =  9.54E-03,  avg # of iterations =  6.0

     negative rho (up, down):  1.192E+00 0.000E+00

     total cpu time spent up to now is      120.2 secs

     total energy              =  -27722.76777280 Ry
     Harris-Foulkes estimate   =  -37318.81764896 Ry
     estimated scf accuracy    <      29.88679430 Ry

     iteration # 89     ecut=    30.00 Ry     beta=0.70
     Davidson diagonalization with overlap
     ethr =  9.54E-03,  avg # of iterations =  8.0

     negative rho (up, down):  1.397E+00 0.000E+00

     total cpu time spent up to now is      120.3 secs

     total energy              =    -204.67484629 Ry
     Harris-Foulkes estimate   =  -45690.78299691 Ry
     estimated scf accuracy    <      34.59749043 Ry

     iteration # 90     ecut=    30.00 Ry     beta=0.70
     Davidson diagonalization with overlap
     ethr =  9.54E-03,  avg # of iterations =  6.0

     negative rho (up, down):  6.525E-01 0.000E+00

     total cpu time spent up to now is      120.4 secs

     total energy              =   -7744.31330774 Ry
     Harris-Foulkes estimate   =   -5201.40583241 Ry
     estimated scf accuracy    <      25.11962389 Ry

     iteration # 91     ecut=    30.00 Ry     beta=0.70
     Davidson diagonalization with overlap
     ethr =  9.54E-03,  avg # of iterations =  5.0

     negative rho (up, down):  8.604E-01 0.000E+00

     total cpu time spent up to now is      120.4 secs

     total energy              =      47.02352647 Ry
     Harris-Foulkes estimate   =  -19368.34768985 Ry
     estimated scf accuracy    <      26.23123628 Ry

     iteration # 92     ecut=    30.00 Ry     beta=0.70
     Davidson diagonalization with overlap
     ethr =  9.54E-03,  avg # of iterations =  6.0

     negative rho (up, down):  8.298E-01 0.000E+00

     total cpu time spent up to now is      120.5 secs

     total energy              =       8.76190105 Ry
     Harris-Foulkes estimate   =   -1597.71767918 Ry
     estimated scf accuracy    <      25.73920375 Ry

     iteration # 93     ecut=    30.00 Ry     beta=0.70
     Davidson diagonalization with overlap
     ethr =  9.54E-03,  avg # of iterations =  8.0

     negative rho (up, down):  1.072E+00 0.000E+00

     total cpu time spent up to now is      120.5 secs

     total energy              =     104.80740402 Ry
     Harris-Foulkes estimate   =   -1779.33736613 Ry
     estimated scf accuracy    <      31.84891680 Ry

     iteration # 94     ecut=    30.00 Ry     beta=0.70
     Davidson diagonalization with overlap
     ethr =  9.54E-03,  avg # of iterations =  9.0

     negative rho (up, down):  5.680E-01 0.000E+00

     total cpu time spent up to now is      120.6 secs

     total energy              =   -1066.93096042 Ry
     Harris-Foulkes estimate   =    -411.58280873 Ry
     estimated scf accuracy    <      24.43807447 Ry

     iteration # 95     ecut=    30.00 Ry     beta=0.70
     Davidson diagonalization with overlap
     ethr =  9.54E-03,  avg # of iterations =  8.0

     negative rho (up, down):  4.477E-01 0.000E+00

     total cpu time spent up to now is      120.6 secs

     total energy              =     110.52385209 Ry
     Harris-Foulkes estimate   =   -4701.43469463 Ry
     estimated scf accuracy    <      47.28319635 Ry

     iteration # 96     ecut=    30.00 Ry     beta=0.70
     Davidson diagonalization with overlap
     ethr =  9.54E-03,  avg # of iterations = 10.0

     negative rho (up, down):  3.285E-02 0.000E+00

     total cpu time spent up to now is      120.7 secs

     total energy              =      21.56155434 Ry
     Harris-Foulkes estimate   =   -1075.87791042 Ry
     estimated scf accuracy    <      21.27069406 Ry

     iteration # 97     ecut=    30.00 Ry     beta=0.70
     Davidson diagonalization with overlap
     ethr =  9.54E-03,  avg # of iterations =  6.0

     negative rho (up, down):  1.283E-02 0.000E+00

     total cpu time spent up to now is      120.8 secs

     total energy              =     117.32349085 Ry
     Harris-Foulkes estimate   =    -925.82964944 Ry
     estimated scf accuracy    <      24.24271281 Ry

     iteration # 98     ecut=    30.00 Ry     beta=0.70
     Davidson diagonalization with overlap
     ethr =  9.54E-03,  avg # of iterations =  8.0

     negative rho (up, down):  3.067E-04 0.000E+00

     total cpu time spent up to now is      120.8 secs

     total energy              =     -15.66429699 Ry
     Harris-Foulkes estimate   =     -60.78457256 Ry
     estimated scf accuracy    <      21.76363717 Ry

     iteration # 99     ecut=    30.00 Ry     beta=0.70
     Davidson diagonalization with overlap
     ethr =  9.54E-03,  avg # of iterations =  4.0

     negative rho (up, down):  9.065E-03 0.000E+00

     total cpu time spent up to now is      120.9 secs

     total energy              =     -38.97632373 Ry
     Harris-Foulkes estimate   =     -41.11490958 Ry
     estimated scf accuracy    <      16.27761943 Ry

     iteration #100     ecut=    30.00 Ry     beta=0.70
     Davidson diagonalization with overlap
     ethr =  9.54E-03,  avg # of iterations =  5.0

     negative rho (up, down):  2.799E-02 0.000E+00

     total cpu time spent up to now is      120.9 secs

     total energy              =      -8.02419371 Ry
     Harris-Foulkes estimate   =     -60.40747018 Ry
     estimated scf accuracy    <      12.63886940 Ry

     End of self-consistent calculation

     convergence NOT achieved after 100 iterations: stopping

     Writing output data file pwscf.save
 
     init_run     :      0.10s CPU      0.11s WALL (       1 calls)
     electrons    :     70.49s CPU     94.92s WALL (      77 calls)
     update_pot   :     11.28s CPU     16.96s WALL (      76 calls)
     forces       :      2.07s CPU      2.20s WALL (      76 calls)

     Called by init_run:
     wfcinit      :      0.02s CPU      0.02s WALL (       1 calls)
     potinit      :      0.03s CPU      0.03s WALL (       1 calls)

     Called by electrons:
     c_bands      :     28.31s CPU     32.00s WALL (    2006 calls)
     sum_band     :      6.36s CPU      7.07s WALL (    2006 calls)
     v_of_rho     :     15.87s CPU     17.76s WALL (    2083 calls)
     mix_rho      :     14.82s CPU     25.47s WALL (    2006 calls)

     Called by c_bands:
     init_us_2    :      0.18s CPU      0.23s WALL (    4013 calls)
     cegterg      :     27.71s CPU     30.33s WALL (    2006 calls)

     Called by sum_band:

     Called by *egterg:
     h_psi        :     23.06s CPU     25.23s WALL (    7279 calls)
     g_psi        :      0.18s CPU      0.18s WALL (    5272 calls)
     cdiaghg      :      1.74s CPU      1.91s WALL (    7202 calls)

     Called by h_psi:
     h_psi:pot    :     22.94s CPU     25.10s WALL (    7279 calls)
     h_psi:calbec :      1.06s CPU      1.36s WALL (    7279 calls)
     vloc_psi     :     21.78s CPU     23.64s WALL (    7279 calls)
     add_vuspsi   :      0.06s CPU      0.07s WALL (    7279 calls)

     General routines
     calbec       :      1.98s CPU      2.54s WALL (    7658 calls)
     fft          :     11.29s CPU     12.43s WALL (   23065 calls)
     fftw         :     23.81s CPU     26.21s WALL (   97740 calls)
     davcio       :      2.05s CPU      8.54s WALL (   33280 calls)
 
     Parallel routines
     fft_scatter  :     16.63s CPU     19.61s WALL (  120805 calls)
 
     PWSCF        :  1m26.13s CPU     2m 1.03s WALL

 
   This run was terminated on:   0:31: 7  11Feb2018            

=------------------------------------------------------------------------------=
   JOB DONE.
=------------------------------------------------------------------------------=
