
     Program PWSCF v.6.0 (svn rev. 13079) starts on 11Feb2018 at  0:35:22 

     This program is part of the open-source Quantum ESPRESSO suite
     for quantum simulation of materials; please cite
         "P. Giannozzi et al., J. Phys.:Condens. Matter 21 395502 (2009);
          URL http://www.quantum-espresso.org", 
     in publications or presentations arising from this work. More details at
     http://www.quantum-espresso.org/quote

     Parallel version (MPI), running on    28 processors
     R & G space division:  proc/nbgrp/npool/nimage =      28
     Reading input from inputs/water-1-md/206.in

     Current dimensions of program PWSCF are:
     Max number of different atomic species (ntypx) = 10
     Max number of k-points (npk) =  40000
     Max angular momentum in pseudopotentials (lmaxx) =  3

     Subspace diagonalization in iterative solution of the eigenvalue problem:
     a serial algorithm will be used

 
     Parallelization info
     --------------------
     sticks:   dense  smooth     PW     G-vecs:    dense   smooth      PW
     Min         136     136     33                 6338     6338     787
     Max         137     137     34                 6341     6341     792
     Sum        3809    3809    949               177509   177509   22119
 


     bravais-lattice index     =            1
     lattice parameter (alat)  =      20.0000  a.u.
     unit-cell volume          =    8000.0000 (a.u.)^3
     number of atoms/cell      =            3
     number of atomic types    =            2
     number of electrons       =         8.00
     number of Kohn-Sham states=            8
     kinetic-energy cutoff     =      30.0000  Ry
     charge density cutoff     =     120.0000  Ry
     convergence threshold     =      1.0E-08
     mixing beta               =       0.7000
     number of iterations used =            8  plain     mixing
     Exchange-correlation      = BLYP ( 1  3  1  3 0 0)
     nstep                     =         5000


     celldm(1)=  20.000000  celldm(2)=   0.000000  celldm(3)=   0.000000
     celldm(4)=   0.000000  celldm(5)=   0.000000  celldm(6)=   0.000000

     crystal axes: (cart. coord. in units of alat)
               a(1) = (   1.000000   0.000000   0.000000 )  
               a(2) = (   0.000000   1.000000   0.000000 )  
               a(3) = (   0.000000   0.000000   1.000000 )  

     reciprocal axes: (cart. coord. in units 2 pi/alat)
               b(1) = (  1.000000  0.000000  0.000000 )  
               b(2) = (  0.000000  1.000000  0.000000 )  
               b(3) = (  0.000000  0.000000  1.000000 )  


     PseudoPot. # 1 for  H read from file:
     ./H.blyp-hgh.UPF
     MD5 check sum: c576e69559cde411e611be972c763230
     Pseudo is Norm-conserving, Zval =  1.0
     Generated in analytical, separable form
     Using radial grid of  929 points,  0 beta functions with: 

     PseudoPot. # 2 for  O read from file:
     ./O.blyp-hgh.UPF
     MD5 check sum: d0b7156309aa9befef28faac7bc56342
     Pseudo is Norm-conserving, Zval =  6.0
     Generated in analytical, separable form
     Using radial grid of 1095 points,  1 beta functions with: 
                l(1) =   0

     atomic species   valence    mass     pseudopotential
        H              1.00     1.01000      H( 1.00)
        O              6.00    16.00000      O( 1.00)

     No symmetry found



   Cartesian axes

     site n.     atom                  positions (alat units)
         1           H   tau(   1) = (   0.6379264   0.2221358   0.7096288  )
         2           H   tau(   2) = (   0.1161052   0.0869666   0.9471517  )
         3           O   tau(   3) = (   0.2151149   0.5155992   0.8861410  )

     number of k points=     1  Marzari-Vanderbilt smearing, width (Ry)=  0.0250
                       cart. coord. in units 2pi/alat
        k(    1) = (   0.0000000   0.0000000   0.0000000), wk =   2.0000000

     Dense  grid:   177509 G-vectors     FFT dimensions: (  72,  72,  72)

     Estimated max dynamical RAM per process >       6.09Mb

     Estimated total allocated dynamical RAM >     170.64Mb

     Initial potential from superposition of free atoms
     Check: negative starting charge=   -0.346573

     starting charge    7.99998, renormalised to    8.00000

     negative rho (up, down):  3.466E-01 0.000E+00
     Starting wfc are    6 randomized atomic wfcs +    2 random wfc

     total cpu time spent up to now is        0.2 secs

     per-process dynamical memory:    18.8 Mb

     Self-consistent Calculation

     iteration #  1     ecut=    30.00 Ry     beta=0.70
     Davidson diagonalization with overlap
     ethr =  1.00E-02,  avg # of iterations =  8.0

     negative rho (up, down):  8.235E-02 0.000E+00

     total cpu time spent up to now is        0.3 secs

     total energy              =     -28.11273134 Ry
     Harris-Foulkes estimate   =     -32.08103532 Ry
     estimated scf accuracy    <       4.55894043 Ry

     iteration #  2     ecut=    30.00 Ry     beta=0.70
     Davidson diagonalization with overlap
     ethr =  1.00E-02,  avg # of iterations =  4.0

     negative rho (up, down):  6.034E-02 0.000E+00

     total cpu time spent up to now is        0.3 secs

     total energy              =     -32.62343534 Ry
     Harris-Foulkes estimate   =     -37.86302698 Ry
     estimated scf accuracy    <      12.77899787 Ry

     iteration #  3     ecut=    30.00 Ry     beta=0.70
     Davidson diagonalization with overlap
     ethr =  1.00E-02,  avg # of iterations =  2.0

     negative rho (up, down):  6.227E-02 0.000E+00

     total cpu time spent up to now is        0.4 secs

     total energy              =     -33.17310234 Ry
     Harris-Foulkes estimate   =     -32.96388790 Ry
     estimated scf accuracy    <       4.91552127 Ry

     iteration #  4     ecut=    30.00 Ry     beta=0.70
     Davidson diagonalization with overlap
     ethr =  1.00E-02,  avg # of iterations =  1.0

     negative rho (up, down):  2.534E-02 0.000E+00

     total cpu time spent up to now is        0.4 secs

     total energy              =     -30.25996447 Ry
     Harris-Foulkes estimate   =     -33.17371718 Ry
     estimated scf accuracy    <       5.22695567 Ry

     iteration #  5     ecut=    30.00 Ry     beta=0.70
     Davidson diagonalization with overlap
     ethr =  1.00E-02,  avg # of iterations =  5.0

     negative rho (up, down):  2.078E-02 0.000E+00

     total cpu time spent up to now is        0.4 secs

     total energy              =     -33.07021989 Ry
     Harris-Foulkes estimate   =     -33.15125915 Ry
     estimated scf accuracy    <      12.56018408 Ry

     iteration #  6     ecut=    30.00 Ry     beta=0.70
     Davidson diagonalization with overlap
     ethr =  1.00E-02,  avg # of iterations =  1.0

     negative rho (up, down):  2.198E-02 0.000E+00

     total cpu time spent up to now is        0.5 secs

     total energy              =     -32.47389327 Ry
     Harris-Foulkes estimate   =     -33.07694726 Ry
     estimated scf accuracy    <      11.13887124 Ry

     iteration #  7     ecut=    30.00 Ry     beta=0.70
     Davidson diagonalization with overlap
     ethr =  1.00E-02,  avg # of iterations =  1.0

     negative rho (up, down):  1.234E-05 0.000E+00

     total cpu time spent up to now is        0.5 secs

     total energy              =     -32.33329973 Ry
     Harris-Foulkes estimate   =     -32.64788511 Ry
     estimated scf accuracy    <       5.50113273 Ry

     iteration #  8     ecut=    30.00 Ry     beta=0.70
     Davidson diagonalization with overlap
     ethr =  1.00E-02,  avg # of iterations =  1.0

     negative rho (up, down):  2.132E-02 0.000E+00

     total cpu time spent up to now is        0.5 secs

     total energy              =     -31.72637419 Ry
     Harris-Foulkes estimate   =     -32.33844206 Ry
     estimated scf accuracy    <       4.95968309 Ry

     iteration #  9     ecut=    30.00 Ry     beta=0.70
     Davidson diagonalization with overlap
     ethr =  1.00E-02,  avg # of iterations =  1.0

     negative rho (up, down):  8.504E-03 0.000E+00

     total cpu time spent up to now is        0.5 secs

     total energy              =     -31.53082088 Ry
     Harris-Foulkes estimate   =     -31.74014789 Ry
     estimated scf accuracy    <       3.94085094 Ry

     iteration # 10     ecut=    30.00 Ry     beta=0.70
     Davidson diagonalization with overlap
     ethr =  1.00E-02,  avg # of iterations =  1.0

     negative rho (up, down):  1.645E-02 0.000E+00

     total cpu time spent up to now is        0.6 secs

     total energy              =     -31.61806474 Ry
     Harris-Foulkes estimate   =     -31.52618656 Ry
     estimated scf accuracy    <       3.33676157 Ry

     iteration # 11     ecut=    30.00 Ry     beta=0.70
     Davidson diagonalization with overlap
     ethr =  1.00E-02,  avg # of iterations =  1.0

     negative rho (up, down):  5.384E-02 0.000E+00

     total cpu time spent up to now is        0.6 secs

     total energy              =     -31.54302914 Ry
     Harris-Foulkes estimate   =     -31.62982859 Ry
     estimated scf accuracy    <       3.82061144 Ry

     iteration # 12     ecut=    30.00 Ry     beta=0.70
     Davidson diagonalization with overlap
     ethr =  1.00E-02,  avg # of iterations =  1.0

     negative rho (up, down):  3.690E-02 0.000E+00

     total cpu time spent up to now is        0.6 secs

     total energy              =     -31.21565920 Ry
     Harris-Foulkes estimate   =     -31.53799612 Ry
     estimated scf accuracy    <       4.65457861 Ry

     iteration # 13     ecut=    30.00 Ry     beta=0.70
     Davidson diagonalization with overlap
     ethr =  1.00E-02,  avg # of iterations =  1.0

     negative rho (up, down):  3.634E-02 0.000E+00

     total cpu time spent up to now is        0.7 secs

     total energy              =     -31.62969350 Ry
     Harris-Foulkes estimate   =     -31.62772788 Ry
     estimated scf accuracy    <       2.75263324 Ry

     iteration # 14     ecut=    30.00 Ry     beta=0.70
     Davidson diagonalization with overlap
     ethr =  1.00E-02,  avg # of iterations =  1.0

     negative rho (up, down):  9.384E-04 0.000E+00

     total cpu time spent up to now is        0.7 secs

     total energy              =     -31.33366869 Ry
     Harris-Foulkes estimate   =     -31.63055450 Ry
     estimated scf accuracy    <       2.81033108 Ry

     iteration # 15     ecut=    30.00 Ry     beta=0.70
     Davidson diagonalization with overlap
     ethr =  1.00E-02,  avg # of iterations =  1.0

     negative rho (up, down):  5.666E-04 0.000E+00

     total cpu time spent up to now is        0.7 secs

     total energy              =     -31.47814727 Ry
     Harris-Foulkes estimate   =     -31.61279563 Ry
     estimated scf accuracy    <       3.99149541 Ry

     iteration # 16     ecut=    30.00 Ry     beta=0.70
     Davidson diagonalization with overlap
     ethr =  1.00E-02,  avg # of iterations =  1.0

     negative rho (up, down):  4.195E-04 0.000E+00

     total cpu time spent up to now is        0.8 secs

     total energy              =     -31.50823555 Ry
     Harris-Foulkes estimate   =     -31.49393983 Ry
     estimated scf accuracy    <       0.31313621 Ry

     iteration # 17     ecut=    30.00 Ry     beta=0.70
     Davidson diagonalization with overlap
     ethr =  3.91E-03,  avg # of iterations =  1.0

     negative rho (up, down):  1.182E-04 0.000E+00

     total cpu time spent up to now is        0.8 secs

     total energy              =     -31.59097475 Ry
     Harris-Foulkes estimate   =     -31.52466553 Ry
     estimated scf accuracy    <       3.16761998 Ry

     iteration # 18     ecut=    30.00 Ry     beta=0.70
     Davidson diagonalization with overlap
     ethr =  3.91E-03,  avg # of iterations =  1.0

     negative rho (up, down):  1.694E-07 0.000E+00

     total cpu time spent up to now is        0.8 secs

     total energy              =     -31.54344480 Ry
     Harris-Foulkes estimate   =     -31.60152028 Ry
     estimated scf accuracy    <       4.18329468 Ry

     iteration # 19     ecut=    30.00 Ry     beta=0.70
     Davidson diagonalization with overlap
     ethr =  3.91E-03,  avg # of iterations =  1.0

     negative rho (up, down):  1.835E-04 0.000E+00

     total cpu time spent up to now is        0.9 secs

     total energy              =     -31.51923642 Ry
     Harris-Foulkes estimate   =     -31.54104133 Ry
     estimated scf accuracy    <       4.09507475 Ry

     iteration # 20     ecut=    30.00 Ry     beta=0.70
     Davidson diagonalization with overlap
     ethr =  3.91E-03,  avg # of iterations =  1.0

     negative rho (up, down):  1.483E-03 0.000E+00

     total cpu time spent up to now is        0.9 secs

     total energy              =     -31.47350116 Ry
     Harris-Foulkes estimate   =     -31.52091670 Ry
     estimated scf accuracy    <       2.83558635 Ry

     iteration # 21     ecut=    30.00 Ry     beta=0.70
     Davidson diagonalization with overlap
     ethr =  3.91E-03,  avg # of iterations =  1.0

     negative rho (up, down):  7.714E-04 0.000E+00

     total cpu time spent up to now is        0.9 secs

     total energy              =     -31.49920825 Ry
     Harris-Foulkes estimate   =     -31.49216178 Ry
     estimated scf accuracy    <       0.10070258 Ry

     iteration # 22     ecut=    30.00 Ry     beta=0.70
     Davidson diagonalization with overlap
     ethr =  1.26E-03,  avg # of iterations =  1.0

     negative rho (up, down):  1.151E-03 0.000E+00

     total cpu time spent up to now is        1.0 secs

     total energy              =     -31.50759693 Ry
     Harris-Foulkes estimate   =     -31.51518445 Ry
     estimated scf accuracy    <       2.36949128 Ry

     iteration # 23     ecut=    30.00 Ry     beta=0.70
     Davidson diagonalization with overlap
     ethr =  1.26E-03,  avg # of iterations =  1.0

     negative rho (up, down):  1.678E-04 0.000E+00

     total cpu time spent up to now is        1.0 secs

     total energy              =     -31.53272611 Ry
     Harris-Foulkes estimate   =     -31.50813838 Ry
     estimated scf accuracy    <       1.73858853 Ry

     iteration # 24     ecut=    30.00 Ry     beta=0.70
     Davidson diagonalization with overlap
     ethr =  1.26E-03,  avg # of iterations =  1.0

     negative rho (up, down):  2.183E-04 0.000E+00

     total cpu time spent up to now is        1.0 secs

     total energy              =     -31.54511401 Ry
     Harris-Foulkes estimate   =     -31.53965510 Ry
     estimated scf accuracy    <       3.99794376 Ry

     iteration # 25     ecut=    30.00 Ry     beta=0.70
     Davidson diagonalization with overlap
     ethr =  1.26E-03,  avg # of iterations =  1.0

     negative rho (up, down):  3.121E-04 0.000E+00

     total cpu time spent up to now is        1.1 secs

     total energy              =     -31.53232341 Ry
     Harris-Foulkes estimate   =     -31.54517708 Ry
     estimated scf accuracy    <       4.19411092 Ry

     iteration # 26     ecut=    30.00 Ry     beta=0.70
     Davidson diagonalization with overlap
     ethr =  1.26E-03,  avg # of iterations =  1.0

     negative rho (up, down):  2.891E-04 0.000E+00

     total cpu time spent up to now is        1.1 secs

     total energy              =     -31.63844531 Ry
     Harris-Foulkes estimate   =     -31.53265845 Ry
     estimated scf accuracy    <       3.67657382 Ry

     iteration # 27     ecut=    30.00 Ry     beta=0.70
     Davidson diagonalization with overlap
     ethr =  1.26E-03,  avg # of iterations =  1.0

     negative rho (up, down):  3.185E-04 0.000E+00

     total cpu time spent up to now is        1.1 secs

     total energy              =     -31.45554873 Ry
     Harris-Foulkes estimate   =     -31.64318293 Ry
     estimated scf accuracy    <       3.89946361 Ry

     iteration # 28     ecut=    30.00 Ry     beta=0.70
     Davidson diagonalization with overlap
     ethr =  1.26E-03,  avg # of iterations =  1.0

     negative rho (up, down):  5.101E-05 0.000E+00

     total cpu time spent up to now is        1.2 secs

     total energy              =     -31.49177884 Ry
     Harris-Foulkes estimate   =     -31.49129077 Ry
     estimated scf accuracy    <       0.02544478 Ry

     iteration # 29     ecut=    30.00 Ry     beta=0.70
     Davidson diagonalization with overlap
     ethr =  3.18E-04,  avg # of iterations =  1.0

     negative rho (up, down):  3.245E-06 0.000E+00

     total cpu time spent up to now is        1.2 secs

     total energy              =     -31.48530734 Ry
     Harris-Foulkes estimate   =     -31.49206060 Ry
     estimated scf accuracy    <       0.07094240 Ry

     iteration # 30     ecut=    30.00 Ry     beta=0.70
     Davidson diagonalization with overlap
     ethr =  3.18E-04,  avg # of iterations =  1.0

     negative rho (up, down):  2.593E-04 0.000E+00

     total cpu time spent up to now is        1.2 secs

     total energy              =     -31.58349691 Ry
     Harris-Foulkes estimate   =     -31.54959914 Ry
     estimated scf accuracy    <       3.43110267 Ry

     iteration # 31     ecut=    30.00 Ry     beta=0.70
     Davidson diagonalization with overlap
     ethr =  3.18E-04,  avg # of iterations =  1.0

     negative rho (up, down):  1.132E-04 0.000E+00

     total cpu time spent up to now is        1.3 secs

     total energy              =     -31.42242672 Ry
     Harris-Foulkes estimate   =     -31.58544979 Ry
     estimated scf accuracy    <       4.23686262 Ry

     iteration # 32     ecut=    30.00 Ry     beta=0.70
     Davidson diagonalization with overlap
     ethr =  3.18E-04,  avg # of iterations =  1.0

     negative rho (up, down):  2.888E-05 0.000E+00

     total cpu time spent up to now is        1.3 secs

     total energy              =     -31.49537326 Ry
     Harris-Foulkes estimate   =     -31.49772215 Ry
     estimated scf accuracy    <       0.56291623 Ry

     iteration # 33     ecut=    30.00 Ry     beta=0.70
     Davidson diagonalization with overlap
     ethr =  3.18E-04,  avg # of iterations =  1.0

     negative rho (up, down):  3.327E-05 0.000E+00

     total cpu time spent up to now is        1.3 secs

     total energy              =     -31.49497468 Ry
     Harris-Foulkes estimate   =     -31.49559780 Ry
     estimated scf accuracy    <       0.38939210 Ry

     iteration # 34     ecut=    30.00 Ry     beta=0.70
     Davidson diagonalization with overlap
     ethr =  3.18E-04,  avg # of iterations =  1.0

     negative rho (up, down):  2.571E-05 0.000E+00

     total cpu time spent up to now is        1.4 secs

     total energy              =     -31.47922156 Ry
     Harris-Foulkes estimate   =     -31.49499401 Ry
     estimated scf accuracy    <       0.34293633 Ry

     iteration # 35     ecut=    30.00 Ry     beta=0.70
     Davidson diagonalization with overlap
     ethr =  3.18E-04,  avg # of iterations =  1.0

     negative rho (up, down):  2.547E-05 0.000E+00

     total cpu time spent up to now is        1.4 secs

     total energy              =     -31.49503828 Ry
     Harris-Foulkes estimate   =     -31.49639532 Ry
     estimated scf accuracy    <       0.52134628 Ry

     iteration # 36     ecut=    30.00 Ry     beta=0.70
     Davidson diagonalization with overlap
     ethr =  3.18E-04,  avg # of iterations =  1.0

     negative rho (up, down):  8.930E-06 0.000E+00

     total cpu time spent up to now is        1.4 secs

     total energy              =     -31.49029942 Ry
     Harris-Foulkes estimate   =     -31.49512357 Ry
     estimated scf accuracy    <       0.39868899 Ry

     iteration # 37     ecut=    30.00 Ry     beta=0.70
     Davidson diagonalization with overlap
     ethr =  3.18E-04,  avg # of iterations =  1.0

     negative rho (up, down):  3.168E-06 0.000E+00

     total cpu time spent up to now is        1.5 secs

     total energy              =     -31.49094301 Ry
     Harris-Foulkes estimate   =     -31.49171286 Ry
     estimated scf accuracy    <       0.06839584 Ry

     iteration # 38     ecut=    30.00 Ry     beta=0.70
     Davidson diagonalization with overlap
     ethr =  3.18E-04,  avg # of iterations =  1.0

     negative rho (up, down):  8.445E-07 0.000E+00

     total cpu time spent up to now is        1.5 secs

     total energy              =     -31.49096618 Ry
     Harris-Foulkes estimate   =     -31.49116515 Ry
     estimated scf accuracy    <       0.01355721 Ry

     iteration # 39     ecut=    30.00 Ry     beta=0.70
     Davidson diagonalization with overlap
     ethr =  1.69E-04,  avg # of iterations =  1.0

     total cpu time spent up to now is        1.5 secs

     total energy              =     -31.49100946 Ry
     Harris-Foulkes estimate   =     -31.49104642 Ry
     estimated scf accuracy    <       0.00107145 Ry

     iteration # 40     ecut=    30.00 Ry     beta=0.70
     Davidson diagonalization with overlap
     ethr =  1.34E-05,  avg # of iterations =  7.0

     total cpu time spent up to now is        1.6 secs

     total energy              =     -31.49102005 Ry
     Harris-Foulkes estimate   =     -31.49105772 Ry
     estimated scf accuracy    <       0.00197912 Ry

     iteration # 41     ecut=    30.00 Ry     beta=0.70
     Davidson diagonalization with overlap
     ethr =  1.34E-05,  avg # of iterations =  1.0

     total cpu time spent up to now is        1.6 secs

     total energy              =     -31.49103425 Ry
     Harris-Foulkes estimate   =     -31.49103433 Ry
     estimated scf accuracy    <       0.00008731 Ry

     iteration # 42     ecut=    30.00 Ry     beta=0.70
     Davidson diagonalization with overlap
     ethr =  1.09E-06,  avg # of iterations =  1.0

     total cpu time spent up to now is        1.6 secs

     total energy              =     -31.49103124 Ry
     Harris-Foulkes estimate   =     -31.49103428 Ry
     estimated scf accuracy    <       0.00010640 Ry

     iteration # 43     ecut=    30.00 Ry     beta=0.70
     Davidson diagonalization with overlap
     ethr =  1.09E-06,  avg # of iterations =  1.0

     total cpu time spent up to now is        1.7 secs

     total energy              =     -31.49103215 Ry
     Harris-Foulkes estimate   =     -31.49103233 Ry
     estimated scf accuracy    <       0.00000080 Ry

     iteration # 44     ecut=    30.00 Ry     beta=0.70
     Davidson diagonalization with overlap
     ethr =  9.95E-09,  avg # of iterations =  1.0

     total cpu time spent up to now is        1.7 secs

     total energy              =     -31.49103213 Ry
     Harris-Foulkes estimate   =     -31.49103216 Ry
     estimated scf accuracy    <       0.00000005 Ry

     iteration # 45     ecut=    30.00 Ry     beta=0.70
     Davidson diagonalization with overlap
     ethr =  6.28E-10,  avg # of iterations =  1.0

     total cpu time spent up to now is        1.7 secs

     total energy              =     -31.49103201 Ry
     Harris-Foulkes estimate   =     -31.49103213 Ry
     estimated scf accuracy    <       0.00000006 Ry

     iteration # 46     ecut=    30.00 Ry     beta=0.70
     Davidson diagonalization with overlap
     ethr =  6.28E-10,  avg # of iterations =  1.0

     total cpu time spent up to now is        1.8 secs

     End of self-consistent calculation

          k = 0.0000 0.0000 0.0000 ( 22119 PWs)   bands (ev):

   -23.6002  -7.0229  -7.0150  -7.0135  -6.9132  -6.8953  -0.2208   0.5801

     the Fermi energy is    -6.8794 ev

!    total energy              =     -31.49103198 Ry
     Harris-Foulkes estimate   =     -31.49103201 Ry
     estimated scf accuracy    <          5.4E-09 Ry

     convergence has been achieved in  46 iterations

     Forces acting on atoms (Ry/au):

     atom    1 type  1   force =    -0.00007149   -0.00013451    0.00033000
     atom    2 type  1   force =     0.00005329    0.00027136    0.00028751
     atom    3 type  2   force =     0.00001820   -0.00013685   -0.00061751

     Total force =     0.000832     Total SCF correction =     0.000014

     Molecular Dynamics Calculation

     Starting temperature  =  1000.00 K

     temperature is controlled by Andersen thermostat
     Collision frequency = 1.0000/timestep
     mass H                =     1.01
     mass O                =    16.00
     Time step             =   100.00 a.u.,  4.8378 femto-seconds

     Entering Dynamics:    iteration =     1
                           time      =   0.0048 pico-seconds


     Andersen thermostat:    3 collisions

ATOMIC_POSITIONS (bohr)
H       12.989697790   4.718525586  13.996240541
H        2.328924834   1.969819902  18.755699476
O        4.287274842  10.280023971  17.747039168


     kinetic energy (Ekin) =     0.01319564 Ry
     temperature           =   694.47456190 K 
     Ekin + Etot (const)   =   -31.47783635 Ry

     Linear momentum :   -0.0000000000    0.0000000000    0.0000000000

     Writing output data file pwscf.save
     Check: negative starting charge=   -0.346573
     NEW-OLD atomic charge density approx. for the potential
     Check: negative starting charge=   -0.345544

     negative rho (up, down):  7.807E-02 0.000E+00

     total cpu time spent up to now is        2.0 secs

     per-process dynamical memory:    20.4 Mb

     Self-consistent Calculation

     iteration #  1     ecut=    30.00 Ry     beta=0.70
     Davidson diagonalization with overlap
     c_bands:  1 eigenvalues not converged
     ethr =  1.00E-06,  avg # of iterations = 20.0

     negative rho (up, down):  1.796E-02 0.000E+00

     total cpu time spent up to now is        2.1 secs

     total energy              =     -31.44432948 Ry
     Harris-Foulkes estimate   =     -31.43076366 Ry
     estimated scf accuracy    <       0.03772794 Ry

     iteration #  2     ecut=    30.00 Ry     beta=0.70
     Davidson diagonalization with overlap
     ethr =  4.72E-04,  avg # of iterations =  2.0

     negative rho (up, down):  1.661E-02 0.000E+00

     total cpu time spent up to now is        2.2 secs

     total energy              =     -31.47324258 Ry
     Harris-Foulkes estimate   =     -31.90015096 Ry
     estimated scf accuracy    <       4.19841344 Ry

     iteration #  3     ecut=    30.00 Ry     beta=0.70
     Davidson diagonalization with overlap
     ethr =  4.72E-04,  avg # of iterations =  2.0

     negative rho (up, down):  1.631E-02 0.000E+00

     total cpu time spent up to now is        2.2 secs

     total energy              =     -31.47303258 Ry
     Harris-Foulkes estimate   =     -31.49119463 Ry
     estimated scf accuracy    <       1.05866296 Ry

     iteration #  4     ecut=    30.00 Ry     beta=0.70
     Davidson diagonalization with overlap
     ethr =  4.72E-04,  avg # of iterations =  1.0

     negative rho (up, down):  6.674E-03 0.000E+00

     total cpu time spent up to now is        2.2 secs

     total energy              =     -31.42845771 Ry
     Harris-Foulkes estimate   =     -31.48023070 Ry
     estimated scf accuracy    <       0.53516138 Ry

     iteration #  5     ecut=    30.00 Ry     beta=0.70
     Davidson diagonalization with overlap
     ethr =  4.72E-04,  avg # of iterations =  1.0

     negative rho (up, down):  3.073E-03 0.000E+00

     total cpu time spent up to now is        2.3 secs

     total energy              =     -31.46039173 Ry
     Harris-Foulkes estimate   =     -31.57188213 Ry
     estimated scf accuracy    <       2.71712448 Ry

     iteration #  6     ecut=    30.00 Ry     beta=0.70
     Davidson diagonalization with overlap
     ethr =  4.72E-04,  avg # of iterations =  1.0

     negative rho (up, down):  7.388E-04 0.000E+00

     total cpu time spent up to now is        2.3 secs

     total energy              =     -31.49123182 Ry
     Harris-Foulkes estimate   =     -31.48902900 Ry
     estimated scf accuracy    <       0.01961758 Ry

     iteration #  7     ecut=    30.00 Ry     beta=0.70
     Davidson diagonalization with overlap
     ethr =  2.45E-04,  avg # of iterations =  3.0

     negative rho (up, down):  1.627E-04 0.000E+00

     total cpu time spent up to now is        2.3 secs

     total energy              =     -31.49089402 Ry
     Harris-Foulkes estimate   =     -31.49132357 Ry
     estimated scf accuracy    <       0.03210229 Ry

     iteration #  8     ecut=    30.00 Ry     beta=0.70
     Davidson diagonalization with overlap
     ethr =  2.45E-04,  avg # of iterations =  1.0

     negative rho (up, down):  2.325E-06 0.000E+00

     total cpu time spent up to now is        2.4 secs

     total energy              =     -31.49106783 Ry
     Harris-Foulkes estimate   =     -31.49109235 Ry
     estimated scf accuracy    <       0.00153255 Ry

     iteration #  9     ecut=    30.00 Ry     beta=0.70
     Davidson diagonalization with overlap
     ethr =  1.92E-05,  avg # of iterations =  8.0

     negative rho (up, down):  3.021E-08 0.000E+00

     total cpu time spent up to now is        2.4 secs

     total energy              =     -31.49113474 Ry
     Harris-Foulkes estimate   =     -31.49111160 Ry
     estimated scf accuracy    <       0.00081287 Ry

     iteration # 10     ecut=    30.00 Ry     beta=0.70
     Davidson diagonalization with overlap
     ethr =  1.02E-05,  avg # of iterations =  1.0

     total cpu time spent up to now is        2.4 secs

     total energy              =     -31.49082354 Ry
     Harris-Foulkes estimate   =     -31.49115063 Ry
     estimated scf accuracy    <       0.00461344 Ry

     iteration # 11     ecut=    30.00 Ry     beta=0.70
     Davidson diagonalization with overlap
     ethr =  1.02E-05,  avg # of iterations =  1.0

     total cpu time spent up to now is        2.5 secs

     total energy              =     -31.49074296 Ry
     Harris-Foulkes estimate   =     -31.49144954 Ry
     estimated scf accuracy    <       0.03475708 Ry

     iteration # 12     ecut=    30.00 Ry     beta=0.70
     Davidson diagonalization with overlap
     ethr =  1.02E-05,  avg # of iterations =  1.0

     total cpu time spent up to now is        2.5 secs

     total energy              =     -31.49110936 Ry
     Harris-Foulkes estimate   =     -31.49110804 Ry
     estimated scf accuracy    <       0.00007426 Ry

     iteration # 13     ecut=    30.00 Ry     beta=0.70
     Davidson diagonalization with overlap
     ethr =  9.28E-07,  avg # of iterations =  6.0

     total cpu time spent up to now is        2.5 secs

     total energy              =     -31.49110599 Ry
     Harris-Foulkes estimate   =     -31.49110978 Ry
     estimated scf accuracy    <       0.00021082 Ry

     iteration # 14     ecut=    30.00 Ry     beta=0.70
     Davidson diagonalization with overlap
     ethr =  9.28E-07,  avg # of iterations =  1.0

     total cpu time spent up to now is        2.6 secs

     total energy              =     -31.49110796 Ry
     Harris-Foulkes estimate   =     -31.49110798 Ry
     estimated scf accuracy    <       0.00000002 Ry

     iteration # 15     ecut=    30.00 Ry     beta=0.70
     Davidson diagonalization with overlap
     ethr =  2.06E-10,  avg # of iterations =  1.0

     total cpu time spent up to now is        2.6 secs

     total energy              =     -31.49110793 Ry
     Harris-Foulkes estimate   =     -31.49110796 Ry
     estimated scf accuracy    <       0.00000007 Ry

     iteration # 16     ecut=    30.00 Ry     beta=0.70
     Davidson diagonalization with overlap
     ethr =  2.06E-10,  avg # of iterations =  1.0

     total cpu time spent up to now is        2.6 secs

     End of self-consistent calculation

          k = 0.0000 0.0000 0.0000 ( 22119 PWs)   bands (ev):

   -23.6000  -7.0252  -7.0150  -7.0132  -6.9127  -6.8929  -0.2184   0.5852

     the Fermi energy is    -6.8792 ev

!    total energy              =     -31.49110793 Ry
     Harris-Foulkes estimate   =     -31.49110793 Ry
     estimated scf accuracy    <          7.7E-10 Ry

     convergence has been achieved in  16 iterations

     Forces acting on atoms (Ry/au):

     atom    1 type  1   force =    -0.00029506    0.00006677    0.00025816
     atom    2 type  1   force =    -0.00011079    0.00036885    0.00026418
     atom    3 type  2   force =     0.00040585   -0.00043562   -0.00052234

     Total force =     0.001002     Total SCF correction =     0.000050

     Entering Dynamics:    iteration =     2
                           time      =   0.0097 pico-seconds


     Andersen thermostat:    3 collisions

ATOMIC_POSITIONS (bohr)
H       13.038906215   4.895400717  14.144175614
H        2.390977755   1.819976090  18.934810492
O        4.280251469  10.278317619  17.726394383


     kinetic energy (Ekin) =     0.00848677 Ry
     temperature           =   446.65096445 K 
     Ekin + Etot (const)   =   -31.48262117 Ry
     Message from routine dynamics:
     Total linear momentum <> 0

     Linear momentum :   -0.0482643422    0.4839037204    0.0463385468

     Writing output data file pwscf.save

     first order wave-functions extrapolation
     Check: negative starting charge=   -0.345544
     first order charge density extrapolation
     Check: negative starting charge=   -0.345736

     negative rho (up, down):  1.108E-01 0.000E+00

     total cpu time spent up to now is        2.9 secs

     per-process dynamical memory:    20.4 Mb

     Self-consistent Calculation

     iteration #  1     ecut=    30.00 Ry     beta=0.70
     Davidson diagonalization with overlap
     c_bands:  1 eigenvalues not converged
     ethr =  1.00E-06,  avg # of iterations = 20.0

     negative rho (up, down):  2.641E-02 0.000E+00

     total cpu time spent up to now is        3.0 secs

     total energy              =     -31.41483557 Ry
     Harris-Foulkes estimate   =     -31.41478605 Ry
     estimated scf accuracy    <       0.06498051 Ry

     iteration #  2     ecut=    30.00 Ry     beta=0.70
     Davidson diagonalization with overlap
     ethr =  8.12E-04,  avg # of iterations =  2.0

     negative rho (up, down):  2.395E-02 0.000E+00

     total cpu time spent up to now is        3.1 secs

     total energy              =     -31.48195680 Ry
     Harris-Foulkes estimate   =     -32.03738047 Ry
     estimated scf accuracy    <       4.45457479 Ry

     iteration #  3     ecut=    30.00 Ry     beta=0.70
     Davidson diagonalization with overlap
     ethr =  8.12E-04,  avg # of iterations =  2.0

     negative rho (up, down):  2.326E-02 0.000E+00

     total cpu time spent up to now is        3.1 secs

     total energy              =     -31.47148709 Ry
     Harris-Foulkes estimate   =     -31.50844724 Ry
     estimated scf accuracy    <       1.23175735 Ry

     iteration #  4     ecut=    30.00 Ry     beta=0.70
     Davidson diagonalization with overlap
     ethr =  8.12E-04,  avg # of iterations =  1.0

     negative rho (up, down):  1.754E-02 0.000E+00

     total cpu time spent up to now is        3.2 secs

     total energy              =     -31.35699706 Ry
     Harris-Foulkes estimate   =     -31.48268462 Ry
     estimated scf accuracy    <       1.49059866 Ry

     iteration #  5     ecut=    30.00 Ry     beta=0.70
     Davidson diagonalization with overlap
     ethr =  8.12E-04,  avg # of iterations =  1.0

     negative rho (up, down):  7.523E-03 0.000E+00

     total cpu time spent up to now is        3.2 secs

     total energy              =     -31.46744301 Ry
     Harris-Foulkes estimate   =     -31.58363642 Ry
     estimated scf accuracy    <       2.77422043 Ry

     iteration #  6     ecut=    30.00 Ry     beta=0.70
     Davidson diagonalization with overlap
     ethr =  8.12E-04,  avg # of iterations =  1.0

     negative rho (up, down):  2.013E-03 0.000E+00

     total cpu time spent up to now is        3.3 secs

     total energy              =     -31.48958093 Ry
     Harris-Foulkes estimate   =     -31.48701061 Ry
     estimated scf accuracy    <       0.25901114 Ry

     iteration #  7     ecut=    30.00 Ry     beta=0.70
     Davidson diagonalization with overlap
     ethr =  8.12E-04,  avg # of iterations =  1.0

     negative rho (up, down):  7.976E-04 0.000E+00

     total cpu time spent up to now is        3.3 secs

     total energy              =     -31.49202544 Ry
     Harris-Foulkes estimate   =     -31.49055581 Ry
     estimated scf accuracy    <       0.05538288 Ry

     iteration #  8     ecut=    30.00 Ry     beta=0.70
     Davidson diagonalization with overlap
     ethr =  6.92E-04,  avg # of iterations =  1.0

     negative rho (up, down):  1.694E-04 0.000E+00

     total cpu time spent up to now is        3.3 secs

     total energy              =     -31.48955947 Ry
     Harris-Foulkes estimate   =     -31.49214235 Ry
     estimated scf accuracy    <       0.11397530 Ry

     iteration #  9     ecut=    30.00 Ry     beta=0.70
     Davidson diagonalization with overlap
     ethr =  6.92E-04,  avg # of iterations =  1.0

     negative rho (up, down):  2.488E-07 0.000E+00

     total cpu time spent up to now is        3.3 secs

     total energy              =     -31.49128317 Ry
     Harris-Foulkes estimate   =     -31.49112953 Ry
     estimated scf accuracy    <       0.00463004 Ry

     iteration # 10     ecut=    30.00 Ry     beta=0.70
     Davidson diagonalization with overlap
     ethr =  5.79E-05,  avg # of iterations =  9.0

     negative rho (up, down):  5.758E-07 0.000E+00

     total cpu time spent up to now is        3.4 secs

     total energy              =     -31.49121532 Ry
     Harris-Foulkes estimate   =     -31.49141094 Ry
     estimated scf accuracy    <       0.03310438 Ry

     iteration # 11     ecut=    30.00 Ry     beta=0.70
     Davidson diagonalization with overlap
     ethr =  5.79E-05,  avg # of iterations =  1.0

     total cpu time spent up to now is        3.4 secs

     total energy              =     -31.49071466 Ry
     Harris-Foulkes estimate   =     -31.49124531 Ry
     estimated scf accuracy    <       0.01592071 Ry

     iteration # 12     ecut=    30.00 Ry     beta=0.70
     Davidson diagonalization with overlap
     ethr =  5.79E-05,  avg # of iterations =  1.0

     total cpu time spent up to now is        3.5 secs

     total energy              =     -31.49091416 Ry
     Harris-Foulkes estimate   =     -31.49118267 Ry
     estimated scf accuracy    <       0.00898413 Ry

     iteration # 13     ecut=    30.00 Ry     beta=0.70
     Davidson diagonalization with overlap
     ethr =  5.79E-05,  avg # of iterations =  1.0

     total cpu time spent up to now is        3.5 secs

     total energy              =     -31.49106848 Ry
     Harris-Foulkes estimate   =     -31.49112028 Ry
     estimated scf accuracy    <       0.00262955 Ry

     iteration # 14     ecut=    30.00 Ry     beta=0.70
     Davidson diagonalization with overlap
     ethr =  3.29E-05,  avg # of iterations =  1.0

     total cpu time spent up to now is        3.5 secs

     total energy              =     -31.49109420 Ry
     Harris-Foulkes estimate   =     -31.49109432 Ry
     estimated scf accuracy    <       0.00000018 Ry

     iteration # 15     ecut=    30.00 Ry     beta=0.70
     Davidson diagonalization with overlap
     ethr =  2.22E-09,  avg # of iterations =  7.0

     total cpu time spent up to now is        3.6 secs

     total energy              =     -31.49109417 Ry
     Harris-Foulkes estimate   =     -31.49109421 Ry
     estimated scf accuracy    <       0.00000002 Ry

     iteration # 16     ecut=    30.00 Ry     beta=0.70
     Davidson diagonalization with overlap
     ethr =  2.25E-10,  avg # of iterations =  1.0

     total cpu time spent up to now is        3.6 secs

     End of self-consistent calculation

          k = 0.0000 0.0000 0.0000 ( 22119 PWs)   bands (ev):

   -23.5979  -7.0222  -7.0130  -7.0115  -6.9108  -6.8923  -0.2195   0.5917

     the Fermi energy is    -6.8774 ev

!    total energy              =     -31.49109405 Ry
     Harris-Foulkes estimate   =     -31.49109417 Ry
     estimated scf accuracy    <          5.0E-09 Ry

     convergence has been achieved in  16 iterations

     Forces acting on atoms (Ry/au):

     atom    1 type  1   force =    -0.00041173    0.00001816    0.00046984
     atom    2 type  1   force =    -0.00024429    0.00034472    0.00042737
     atom    3 type  2   force =     0.00065602   -0.00036288   -0.00089721

     Total force =     0.001456     Total SCF correction =     0.000372
     SCF correction compared to forces is large: reduce conv_thr to get better values

     Entering Dynamics:    iteration =     3
                           time      =   0.0145 pico-seconds


     Andersen thermostat:    3 collisions

ATOMIC_POSITIONS (bohr)
H       13.256046162   4.612878881  14.237727177
H        2.531681183   1.896277777  19.278403149
O        4.257662606  10.291335266  17.698799654


     kinetic energy (Ekin) =     0.01671690 Ry
     temperature           =   879.79575475 K 
     Ekin + Etot (const)   =   -31.47437715 Ry
     Message from routine dynamics:
     Total linear momentum <> 0

     Linear momentum :    0.3047675616   -0.3500624036   -0.1369358232

     Writing output data file pwscf.save

     second order wave-functions extrapolation
     Check: negative starting charge=   -0.345736
     second order charge density extrapolation
     Check: negative starting charge=   -0.345759

     negative rho (up, down):  7.842E-02 0.000E+00

     total cpu time spent up to now is        3.9 secs

     per-process dynamical memory:    20.4 Mb

     Self-consistent Calculation

     iteration #  1     ecut=    30.00 Ry     beta=0.70
     Davidson diagonalization with overlap
     c_bands:  1 eigenvalues not converged
     ethr =  1.00E-06,  avg # of iterations = 20.0

     negative rho (up, down):  1.832E-02 0.000E+00

     total cpu time spent up to now is        4.0 secs

     total energy              =     -31.44441703 Ry
     Harris-Foulkes estimate   =     -31.43003928 Ry
     estimated scf accuracy    <       0.03764699 Ry

     iteration #  2     ecut=    30.00 Ry     beta=0.70
     Davidson diagonalization with overlap
     ethr =  4.71E-04,  avg # of iterations =  2.0

     negative rho (up, down):  1.697E-02 0.000E+00

     total cpu time spent up to now is        4.0 secs

     total energy              =     -31.47174849 Ry
     Harris-Foulkes estimate   =     -31.89705387 Ry
     estimated scf accuracy    <       4.19933689 Ry

     iteration #  3     ecut=    30.00 Ry     beta=0.70
     Davidson diagonalization with overlap
     ethr =  4.71E-04,  avg # of iterations =  2.0

     negative rho (up, down):  1.661E-02 0.000E+00

     total cpu time spent up to now is        4.1 secs

     total energy              =     -31.47001885 Ry
     Harris-Foulkes estimate   =     -31.49409270 Ry
     estimated scf accuracy    <       1.03814426 Ry

     iteration #  4     ecut=    30.00 Ry     beta=0.70
     Davidson diagonalization with overlap
     ethr =  4.71E-04,  avg # of iterations =  1.0

     negative rho (up, down):  7.052E-03 0.000E+00

     total cpu time spent up to now is        4.1 secs

     total energy              =     -31.42974835 Ry
     Harris-Foulkes estimate   =     -31.48016037 Ry
     estimated scf accuracy    <       0.53361507 Ry

     iteration #  5     ecut=    30.00 Ry     beta=0.70
     Davidson diagonalization with overlap
     ethr =  4.71E-04,  avg # of iterations =  1.0

     negative rho (up, down):  3.093E-03 0.000E+00

     total cpu time spent up to now is        4.1 secs

     total energy              =     -31.46009456 Ry
     Harris-Foulkes estimate   =     -31.56854293 Ry
     estimated scf accuracy    <       2.71602755 Ry

     iteration #  6     ecut=    30.00 Ry     beta=0.70
     Davidson diagonalization with overlap
     ethr =  4.71E-04,  avg # of iterations =  1.0

     negative rho (up, down):  9.186E-04 0.000E+00

     total cpu time spent up to now is        4.2 secs

     total energy              =     -31.49104925 Ry
     Harris-Foulkes estimate   =     -31.48905380 Ry
     estimated scf accuracy    <       0.01480801 Ry

     iteration #  7     ecut=    30.00 Ry     beta=0.70
     Davidson diagonalization with overlap
     ethr =  1.85E-04,  avg # of iterations =  4.0

     negative rho (up, down):  4.887E-04 0.000E+00

     total cpu time spent up to now is        4.2 secs

     total energy              =     -31.49121516 Ry
     Harris-Foulkes estimate   =     -31.49111256 Ry
     estimated scf accuracy    <       0.01647694 Ry

     iteration #  8     ecut=    30.00 Ry     beta=0.70
     Davidson diagonalization with overlap
     ethr =  1.85E-04,  avg # of iterations =  1.0

     negative rho (up, down):  4.971E-06 0.000E+00

     total cpu time spent up to now is        4.2 secs

     total energy              =     -31.49105567 Ry
     Harris-Foulkes estimate   =     -31.49122127 Ry
     estimated scf accuracy    <       0.01608934 Ry

     iteration #  9     ecut=    30.00 Ry     beta=0.70
     Davidson diagonalization with overlap
     ethr =  1.85E-04,  avg # of iterations =  1.0

     negative rho (up, down):  5.979E-08 0.000E+00

     total cpu time spent up to now is        4.3 secs

     total energy              =     -31.49098233 Ry
     Harris-Foulkes estimate   =     -31.49111783 Ry
     estimated scf accuracy    <       0.00257347 Ry

     iteration # 10     ecut=    30.00 Ry     beta=0.70
     Davidson diagonalization with overlap
     ethr =  3.22E-05,  avg # of iterations = 10.0

     negative rho (up, down):  9.420E-08 0.000E+00

     total cpu time spent up to now is        4.3 secs

     total energy              =     -31.49111573 Ry
     Harris-Foulkes estimate   =     -31.49117979 Ry
     estimated scf accuracy    <       0.00888765 Ry

     iteration # 11     ecut=    30.00 Ry     beta=0.70
     Davidson diagonalization with overlap
     ethr =  3.22E-05,  avg # of iterations =  1.0

     total cpu time spent up to now is        4.3 secs

     total energy              =     -31.49106961 Ry
     Harris-Foulkes estimate   =     -31.49112739 Ry
     estimated scf accuracy    <       0.00354778 Ry

     iteration # 12     ecut=    30.00 Ry     beta=0.70
     Davidson diagonalization with overlap
     ethr =  3.22E-05,  avg # of iterations =  1.0

     total cpu time spent up to now is        4.4 secs

     total energy              =     -31.49109338 Ry
     Harris-Foulkes estimate   =     -31.49109392 Ry
     estimated scf accuracy    <       0.00008304 Ry

     iteration # 13     ecut=    30.00 Ry     beta=0.70
     Davidson diagonalization with overlap
     ethr =  1.04E-06,  avg # of iterations =  8.0

     total cpu time spent up to now is        4.4 secs

     total energy              =     -31.49109307 Ry
     Harris-Foulkes estimate   =     -31.49109355 Ry
     estimated scf accuracy    <       0.00002587 Ry

     iteration # 14     ecut=    30.00 Ry     beta=0.70
     Davidson diagonalization with overlap
     ethr =  3.23E-07,  avg # of iterations =  1.0

     total cpu time spent up to now is        4.4 secs

     total energy              =     -31.49109327 Ry
     Harris-Foulkes estimate   =     -31.49109325 Ry
     estimated scf accuracy    <       0.00000054 Ry

     iteration # 15     ecut=    30.00 Ry     beta=0.70
     Davidson diagonalization with overlap
     ethr =  6.79E-09,  avg # of iterations =  1.0

     total cpu time spent up to now is        4.5 secs

     End of self-consistent calculation

          k = 0.0000 0.0000 0.0000 ( 22119 PWs)   bands (ev):

   -23.5993  -7.0237  -7.0139  -7.0128  -6.9118  -6.8932  -0.2206   0.5953

     the Fermi energy is    -6.8785 ev

!    total energy              =     -31.49109323 Ry
     Harris-Foulkes estimate   =     -31.49109328 Ry
     estimated scf accuracy    <          2.7E-10 Ry

     convergence has been achieved in  15 iterations

     Forces acting on atoms (Ry/au):

     atom    1 type  1   force =    -0.00052394   -0.00003239    0.00043147
     atom    2 type  1   force =    -0.00029464    0.00028441    0.00028932
     atom    3 type  2   force =     0.00081858   -0.00025202   -0.00072079

     Total force =     0.001402     Total SCF correction =     0.000137

     Entering Dynamics:    iteration =     4
                           time      =   0.0194 pico-seconds


     Andersen thermostat:    3 collisions

ATOMIC_POSITIONS (bohr)
H       13.238771870   4.476391130  14.151469435
H        2.331643355   1.564547785  19.086045463
O        4.271380434  10.320891511  17.716387253


     kinetic energy (Ekin) =     0.01974738 Ry
     temperature           =  1039.28718290 K 
     Ekin + Etot (const)   =   -31.47134584 Ry
     Message from routine dynamics:
     Total linear momentum <> 0

     Linear momentum :    0.6585480540    0.4524520681   -0.2987964083

     Writing output data file pwscf.save

     second order wave-functions extrapolation
     Check: negative starting charge=   -0.345759
     second order charge density extrapolation
     Check: negative starting charge=   -0.346882

     negative rho (up, down):  5.635E-02 0.000E+00

     total cpu time spent up to now is        4.8 secs

     per-process dynamical memory:    20.4 Mb

     Self-consistent Calculation

     iteration #  1     ecut=    30.00 Ry     beta=0.70
     Davidson diagonalization with overlap
     c_bands:  1 eigenvalues not converged
     ethr =  1.00E-06,  avg # of iterations = 20.0

     negative rho (up, down):  1.227E-02 0.000E+00

     total cpu time spent up to now is        4.9 secs

     total energy              =     -31.46588814 Ry
     Harris-Foulkes estimate   =     -31.44364286 Ry
     estimated scf accuracy    <       0.01738549 Ry

     iteration #  2     ecut=    30.00 Ry     beta=0.70
     Davidson diagonalization with overlap
     ethr =  2.17E-04,  avg # of iterations =  2.0

     negative rho (up, down):  1.164E-02 0.000E+00

     total cpu time spent up to now is        4.9 secs

     total energy              =     -31.45668436 Ry
     Harris-Foulkes estimate   =     -31.72342131 Ry
     estimated scf accuracy    <       3.91495641 Ry

     iteration #  3     ecut=    30.00 Ry     beta=0.70
     Davidson diagonalization with overlap
     ethr =  2.17E-04,  avg # of iterations =  2.0

     negative rho (up, down):  1.124E-02 0.000E+00

     total cpu time spent up to now is        4.9 secs

     total energy              =     -31.46183752 Ry
     Harris-Foulkes estimate   =     -31.51651387 Ry
     estimated scf accuracy    <       1.17872458 Ry

     iteration #  4     ecut=    30.00 Ry     beta=0.70
     Davidson diagonalization with overlap
     ethr =  2.17E-04,  avg # of iterations =  1.0

     negative rho (up, down):  2.709E-03 0.000E+00

     total cpu time spent up to now is        5.0 secs

     total energy              =     -31.48450206 Ry
     Harris-Foulkes estimate   =     -31.48062874 Ry
     estimated scf accuracy    <       0.06546559 Ry

     iteration #  5     ecut=    30.00 Ry     beta=0.70
     Davidson diagonalization with overlap
     ethr =  2.17E-04,  avg # of iterations =  3.0

     negative rho (up, down):  1.318E-03 0.000E+00

     total cpu time spent up to now is        5.0 secs

     total energy              =     -31.48420321 Ry
     Harris-Foulkes estimate   =     -31.49362530 Ry
     estimated scf accuracy    <       0.37659051 Ry

     iteration #  6     ecut=    30.00 Ry     beta=0.70
     Davidson diagonalization with overlap
     ethr =  2.17E-04,  avg # of iterations =  1.0

     negative rho (up, down):  1.250E-04 0.000E+00

     total cpu time spent up to now is        5.0 secs

     total energy              =     -31.48980249 Ry
     Harris-Foulkes estimate   =     -31.49066148 Ry
     estimated scf accuracy    <       0.02767030 Ry

     iteration #  7     ecut=    30.00 Ry     beta=0.70
     Davidson diagonalization with overlap
     ethr =  2.17E-04,  avg # of iterations =  4.0

     negative rho (up, down):  4.845E-06 0.000E+00

     total cpu time spent up to now is        5.1 secs

     total energy              =     -31.49038863 Ry
     Harris-Foulkes estimate   =     -31.49149878 Ry
     estimated scf accuracy    <       0.05565662 Ry

     iteration #  8     ecut=    30.00 Ry     beta=0.70
     Davidson diagonalization with overlap
     ethr =  2.17E-04,  avg # of iterations =  1.0

     negative rho (up, down):  1.486E-08 0.000E+00

     total cpu time spent up to now is        5.1 secs

     total energy              =     -31.49089052 Ry
     Harris-Foulkes estimate   =     -31.49091011 Ry
     estimated scf accuracy    <       0.00025133 Ry

     iteration #  9     ecut=    30.00 Ry     beta=0.70
     Davidson diagonalization with overlap
     ethr =  3.14E-06,  avg # of iterations = 10.0

     total cpu time spent up to now is        5.1 secs

     total energy              =     -31.49086376 Ry
     Harris-Foulkes estimate   =     -31.49093992 Ry
     estimated scf accuracy    <       0.00310916 Ry

     iteration # 10     ecut=    30.00 Ry     beta=0.70
     Davidson diagonalization with overlap
     ethr =  3.14E-06,  avg # of iterations =  1.0

     total cpu time spent up to now is        5.2 secs

     total energy              =     -31.49091412 Ry
     Harris-Foulkes estimate   =     -31.49091119 Ry
     estimated scf accuracy    <       0.00018141 Ry

     iteration # 11     ecut=    30.00 Ry     beta=0.70
     Davidson diagonalization with overlap
     ethr =  2.27E-06,  avg # of iterations =  1.0

     total cpu time spent up to now is        5.2 secs

     total energy              =     -31.49090293 Ry
     Harris-Foulkes estimate   =     -31.49091532 Ry
     estimated scf accuracy    <       0.00059489 Ry

     iteration # 12     ecut=    30.00 Ry     beta=0.70
     Davidson diagonalization with overlap
     ethr =  2.27E-06,  avg # of iterations =  1.0

     total cpu time spent up to now is        5.2 secs

     total energy              =     -31.49090914 Ry
     Harris-Foulkes estimate   =     -31.49090919 Ry
     estimated scf accuracy    <       0.00000024 Ry

     iteration # 13     ecut=    30.00 Ry     beta=0.70
     Davidson diagonalization with overlap
     ethr =  2.95E-09,  avg # of iterations =  1.0

     total cpu time spent up to now is        5.3 secs

     total energy              =     -31.49090915 Ry
     Harris-Foulkes estimate   =     -31.49090915 Ry
     estimated scf accuracy    <       0.00000007 Ry

     iteration # 14     ecut=    30.00 Ry     beta=0.70
     Davidson diagonalization with overlap
     ethr =  9.15E-10,  avg # of iterations =  1.0

     total cpu time spent up to now is        5.3 secs

     total energy              =     -31.49090917 Ry
     Harris-Foulkes estimate   =     -31.49090915 Ry
     estimated scf accuracy    <       0.00000011 Ry

     iteration # 15     ecut=    30.00 Ry     beta=0.70
     Davidson diagonalization with overlap
     ethr =  9.15E-10,  avg # of iterations =  1.0

     total cpu time spent up to now is        5.3 secs

     End of self-consistent calculation

          k = 0.0000 0.0000 0.0000 ( 22119 PWs)   bands (ev):

   -23.6007  -7.0205  -7.0150  -7.0137  -6.9149  -6.8969  -0.2236   0.5943

     the Fermi energy is    -6.8796 ev

!    total energy              =     -31.49090914 Ry
     Harris-Foulkes estimate   =     -31.49090917 Ry
     estimated scf accuracy    <          1.8E-10 Ry

     convergence has been achieved in  15 iterations

     Forces acting on atoms (Ry/au):

     atom    1 type  1   force =    -0.00041629   -0.00009872    0.00040420
     atom    2 type  1   force =    -0.00023204    0.00033767    0.00030305
     atom    3 type  2   force =     0.00064833   -0.00023895   -0.00070725

     Total force =     0.001258     Total SCF correction =     0.000255
     SCF correction compared to forces is large: reduce conv_thr to get better values

     Entering Dynamics:    iteration =     5
                           time      =   0.0242 pico-seconds


     Andersen thermostat:    3 collisions

ATOMIC_POSITIONS (bohr)
H       13.050939108   4.768714047  14.460782183
H        1.794468574   1.783701222  18.810753085
O        4.317146535  10.288604566  17.714239717


     kinetic energy (Ekin) =     0.03217319 Ry
     temperature           =  1693.24627382 K 
     Ekin + Etot (const)   =   -31.45873595 Ry
     Message from routine dynamics:
     Total linear momentum <> 0

     Linear momentum :    0.2555715914    0.0401351917   -0.1541686132

     Writing output data file pwscf.save

     second order wave-functions extrapolation
     Check: negative starting charge=   -0.346882
     second order charge density extrapolation
     Check: negative starting charge=   -0.346580

     negative rho (up, down):  7.305E-02 0.000E+00

     total cpu time spent up to now is        5.7 secs

     per-process dynamical memory:    20.4 Mb

     Self-consistent Calculation

     iteration #  1     ecut=    30.00 Ry     beta=0.70
     Davidson diagonalization with overlap
     ethr =  1.00E-06,  avg # of iterations = 15.0

     negative rho (up, down):  1.703E-02 0.000E+00

     total cpu time spent up to now is        5.7 secs

     total energy              =     -30.55007361 Ry
     Harris-Foulkes estimate   =     -31.51409932 Ry
     estimated scf accuracy    <       1.15151446 Ry

     iteration #  2     ecut=    30.00 Ry     beta=0.70
     Davidson diagonalization with overlap
     ethr =  1.00E-02,  avg # of iterations =  3.0

     negative rho (up, down):  1.343E-02 0.000E+00

     total cpu time spent up to now is        5.8 secs

     total energy              =     -31.54139582 Ry
     Harris-Foulkes estimate   =     -33.49208513 Ry
     estimated scf accuracy    <       5.94021224 Ry

     iteration #  3     ecut=    30.00 Ry     beta=0.70
     Davidson diagonalization with overlap
     ethr =  1.00E-02,  avg # of iterations =  2.0

     negative rho (up, down):  1.116E-02 0.000E+00

     total cpu time spent up to now is        5.8 secs

     total energy              =     -31.80553812 Ry
     Harris-Foulkes estimate   =     -32.33126959 Ry
     estimated scf accuracy    <       2.23395853 Ry

     iteration #  4     ecut=    30.00 Ry     beta=0.70
     Davidson diagonalization with overlap
     ethr =  1.00E-02,  avg # of iterations =  1.0

     negative rho (up, down):  9.793E-03 0.000E+00

     total cpu time spent up to now is        5.8 secs

     total energy              =     -31.64220826 Ry
     Harris-Foulkes estimate   =     -31.81447284 Ry
     estimated scf accuracy    <       1.22992154 Ry

     iteration #  5     ecut=    30.00 Ry     beta=0.70
     Davidson diagonalization with overlap
     ethr =  1.00E-02,  avg # of iterations =  1.0

     negative rho (up, down):  8.963E-03 0.000E+00

     total cpu time spent up to now is        5.9 secs

     total energy              =     -31.60670239 Ry
     Harris-Foulkes estimate   =     -31.77122824 Ry
     estimated scf accuracy    <       3.04211932 Ry

     iteration #  6     ecut=    30.00 Ry     beta=0.70
     Davidson diagonalization with overlap
     ethr =  1.00E-02,  avg # of iterations =  3.0

     negative rho (up, down):  6.538E-03 0.000E+00

     total cpu time spent up to now is        5.9 secs

     total energy              =     -31.20342628 Ry
     Harris-Foulkes estimate   =     -31.60997684 Ry
     estimated scf accuracy    <       2.05083108 Ry

     iteration #  7     ecut=    30.00 Ry     beta=0.70
     Davidson diagonalization with overlap
     ethr =  1.00E-02,  avg # of iterations =  1.0

     negative rho (up, down):  3.800E-03 0.000E+00

     total cpu time spent up to now is        5.9 secs

     total energy              =     -31.59379159 Ry
     Harris-Foulkes estimate   =     -31.84213828 Ry
     estimated scf accuracy    <       4.04791131 Ry

     iteration #  8     ecut=    30.00 Ry     beta=0.70
     Davidson diagonalization with overlap
     ethr =  1.00E-02,  avg # of iterations =  1.0

     negative rho (up, down):  3.777E-03 0.000E+00

     total cpu time spent up to now is        6.0 secs

     total energy              =     -31.54568284 Ry
     Harris-Foulkes estimate   =     -31.59343149 Ry
     estimated scf accuracy    <       4.32229328 Ry

     iteration #  9     ecut=    30.00 Ry     beta=0.70
     Davidson diagonalization with overlap
     ethr =  1.00E-02,  avg # of iterations =  1.0

     negative rho (up, down):  3.853E-03 0.000E+00

     total cpu time spent up to now is        6.0 secs

     total energy              =     -31.49378971 Ry
     Harris-Foulkes estimate   =     -31.54969693 Ry
     estimated scf accuracy    <       2.84236689 Ry

     iteration # 10     ecut=    30.00 Ry     beta=0.70
     Davidson diagonalization with overlap
     ethr =  1.00E-02,  avg # of iterations =  1.0

     negative rho (up, down):  9.232E-04 0.000E+00

     total cpu time spent up to now is        6.0 secs

     total energy              =     -31.47725837 Ry
     Harris-Foulkes estimate   =     -31.55229701 Ry
     estimated scf accuracy    <       1.20126891 Ry

     iteration # 11     ecut=    30.00 Ry     beta=0.70
     Davidson diagonalization with overlap
     ethr =  1.00E-02,  avg # of iterations =  1.0

     negative rho (up, down):  9.261E-05 0.000E+00

     total cpu time spent up to now is        6.1 secs

     total energy              =     -31.45928242 Ry
     Harris-Foulkes estimate   =     -31.67571581 Ry
     estimated scf accuracy    <       3.80244949 Ry

     iteration # 12     ecut=    30.00 Ry     beta=0.70
     Davidson diagonalization with overlap
     ethr =  1.00E-02,  avg # of iterations =  1.0

     negative rho (up, down):  2.479E-05 0.000E+00

     total cpu time spent up to now is        6.1 secs

     total energy              =     -31.49787895 Ry
     Harris-Foulkes estimate   =     -31.51133388 Ry
     estimated scf accuracy    <       0.76131384 Ry

     iteration # 13     ecut=    30.00 Ry     beta=0.70
     Davidson diagonalization with overlap
     ethr =  9.52E-03,  avg # of iterations =  1.0

     negative rho (up, down):  7.273E-05 0.000E+00

     total cpu time spent up to now is        6.1 secs

     total energy              =     -31.49032458 Ry
     Harris-Foulkes estimate   =     -31.49967013 Ry
     estimated scf accuracy    <       0.37456300 Ry

     iteration # 14     ecut=    30.00 Ry     beta=0.70
     Davidson diagonalization with overlap
     ethr =  4.68E-03,  avg # of iterations =  1.0

     negative rho (up, down):  1.341E-04 0.000E+00

     total cpu time spent up to now is        6.2 secs

     total energy              =     -31.54330931 Ry
     Harris-Foulkes estimate   =     -31.51546534 Ry
     estimated scf accuracy    <       2.29221124 Ry

     iteration # 15     ecut=    30.00 Ry     beta=0.70
     Davidson diagonalization with overlap
     ethr =  4.68E-03,  avg # of iterations =  1.0

     negative rho (up, down):  1.589E-04 0.000E+00

     total cpu time spent up to now is        6.2 secs

     total energy              =     -31.73769268 Ry
     Harris-Foulkes estimate   =     -31.55217681 Ry
     estimated scf accuracy    <       4.58638084 Ry

     iteration # 16     ecut=    30.00 Ry     beta=0.70
     Davidson diagonalization with overlap
     ethr =  4.68E-03,  avg # of iterations =  1.0

     negative rho (up, down):  1.960E-06 0.000E+00

     total cpu time spent up to now is        6.3 secs

     total energy              =     -31.70693648 Ry
     Harris-Foulkes estimate   =     -31.72474424 Ry
     estimated scf accuracy    <       3.87372084 Ry

     iteration # 17     ecut=    30.00 Ry     beta=0.70
     Davidson diagonalization with overlap
     ethr =  4.68E-03,  avg # of iterations =  1.0

     negative rho (up, down):  2.529E-06 0.000E+00

     total cpu time spent up to now is        6.3 secs

     total energy              =     -31.71788110 Ry
     Harris-Foulkes estimate   =     -31.70695274 Ry
     estimated scf accuracy    <       3.88349816 Ry

     iteration # 18     ecut=    30.00 Ry     beta=0.70
     Davidson diagonalization with overlap
     ethr =  4.68E-03,  avg # of iterations =  1.0

     negative rho (up, down):  2.256E-04 0.000E+00

     total cpu time spent up to now is        6.3 secs

     total energy              =     -31.78481206 Ry
     Harris-Foulkes estimate   =     -31.71792299 Ry
     estimated scf accuracy    <       3.91964736 Ry

     iteration # 19     ecut=    30.00 Ry     beta=0.70
     Davidson diagonalization with overlap
     ethr =  4.68E-03,  avg # of iterations =  1.0

     negative rho (up, down):  1.038E-02 0.000E+00

     total cpu time spent up to now is        6.4 secs

     total energy              =     -31.97316828 Ry
     Harris-Foulkes estimate   =     -31.78493222 Ry
     estimated scf accuracy    <       3.97706463 Ry

     iteration # 20     ecut=    30.00 Ry     beta=0.70
     Davidson diagonalization with overlap
     ethr =  4.68E-03,  avg # of iterations =  1.0

     negative rho (up, down):  2.707E-02 0.000E+00

     total cpu time spent up to now is        6.4 secs

     total energy              =     -32.12188532 Ry
     Harris-Foulkes estimate   =     -31.97449077 Ry
     estimated scf accuracy    <       4.27931672 Ry

     iteration # 21     ecut=    30.00 Ry     beta=0.70
     Davidson diagonalization with overlap
     ethr =  4.68E-03,  avg # of iterations =  1.0

     negative rho (up, down):  3.673E-02 0.000E+00

     total cpu time spent up to now is        6.4 secs

     total energy              =     -32.19239746 Ry
     Harris-Foulkes estimate   =     -32.12284819 Ry
     estimated scf accuracy    <       4.52648513 Ry

     iteration # 22     ecut=    30.00 Ry     beta=0.70
     Davidson diagonalization with overlap
     ethr =  4.68E-03,  avg # of iterations =  1.0

     negative rho (up, down):  4.214E-02 0.000E+00

     total cpu time spent up to now is        6.5 secs

     total energy              =     -32.43422278 Ry
     Harris-Foulkes estimate   =     -32.19269604 Ry
     estimated scf accuracy    <       4.64517464 Ry

     iteration # 23     ecut=    30.00 Ry     beta=0.70
     Davidson diagonalization with overlap
     ethr =  4.68E-03,  avg # of iterations =  1.0

     negative rho (up, down):  3.305E-03 0.000E+00

     total cpu time spent up to now is        6.5 secs

     total energy              =     -31.91672200 Ry
     Harris-Foulkes estimate   =     -32.43655872 Ry
     estimated scf accuracy    <       5.03828105 Ry

     iteration # 24     ecut=    30.00 Ry     beta=0.70
     Davidson diagonalization with overlap
     ethr =  4.68E-03,  avg # of iterations =  1.0

     negative rho (up, down):  2.058E-01 0.000E+00

     total cpu time spent up to now is        6.5 secs

     total energy              =     -29.18369298 Ry
     Harris-Foulkes estimate   =     -31.93340190 Ry
     estimated scf accuracy    <       4.22539567 Ry

     iteration # 25     ecut=    30.00 Ry     beta=0.70
     Davidson diagonalization with overlap
     ethr =  4.68E-03,  avg # of iterations =  4.0

     negative rho (up, down):  7.887E-02 0.000E+00

     total cpu time spent up to now is        6.6 secs

     total energy              =     -33.48206354 Ry
     Harris-Foulkes estimate   =     -34.97522979 Ry
     estimated scf accuracy    <       7.95971799 Ry

     iteration # 26     ecut=    30.00 Ry     beta=0.70
     Davidson diagonalization with overlap
     ethr =  4.68E-03,  avg # of iterations =  3.0

     negative rho (up, down):  8.953E-03 0.000E+00

     total cpu time spent up to now is        6.6 secs

     total energy              =     -31.76560122 Ry
     Harris-Foulkes estimate   =     -33.51850182 Ry
     estimated scf accuracy    <       5.79973095 Ry

     iteration # 27     ecut=    30.00 Ry     beta=0.70
     Davidson diagonalization with overlap
     ethr =  4.68E-03,  avg # of iterations =  3.0

     negative rho (up, down):  5.740E-04 0.000E+00

     total cpu time spent up to now is        6.7 secs

     total energy              =     -31.74665818 Ry
     Harris-Foulkes estimate   =     -31.82243268 Ry
     estimated scf accuracy    <       3.06988496 Ry

     iteration # 28     ecut=    30.00 Ry     beta=0.70
     Davidson diagonalization with overlap
     ethr =  4.68E-03,  avg # of iterations =  1.0

     negative rho (up, down):  1.720E-05 0.000E+00

     total cpu time spent up to now is        6.7 secs

     total energy              =     -31.58523661 Ry
     Harris-Foulkes estimate   =     -31.74674450 Ry
     estimated scf accuracy    <       2.98423835 Ry

     iteration # 29     ecut=    30.00 Ry     beta=0.70
     Davidson diagonalization with overlap
     ethr =  4.68E-03,  avg # of iterations =  1.0

     negative rho (up, down):  6.738E-08 0.000E+00

     total cpu time spent up to now is        6.7 secs

     total energy              =     -31.49029809 Ry
     Harris-Foulkes estimate   =     -31.58590232 Ry
     estimated scf accuracy    <       2.72800720 Ry

     iteration # 30     ecut=    30.00 Ry     beta=0.70
     Davidson diagonalization with overlap
     ethr =  4.68E-03,  avg # of iterations =  1.0

     negative rho (up, down):  1.549E-08 0.000E+00

     total cpu time spent up to now is        6.8 secs

     total energy              =     -31.48942662 Ry
     Harris-Foulkes estimate   =     -31.50130046 Ry
     estimated scf accuracy    <       0.77817731 Ry

     iteration # 31     ecut=    30.00 Ry     beta=0.70
     Davidson diagonalization with overlap
     ethr =  4.68E-03,  avg # of iterations =  1.0

     total cpu time spent up to now is        6.8 secs

     total energy              =     -31.46973151 Ry
     Harris-Foulkes estimate   =     -31.49413657 Ry
     estimated scf accuracy    <       0.14751931 Ry

     iteration # 32     ecut=    30.00 Ry     beta=0.70
     Davidson diagonalization with overlap
     ethr =  1.84E-03,  avg # of iterations =  1.0

     negative rho (up, down):  5.694E-07 0.000E+00

     total cpu time spent up to now is        6.8 secs

     total energy              =     -31.35021128 Ry
     Harris-Foulkes estimate   =     -31.64061590 Ry
     estimated scf accuracy    <       3.78948309 Ry

     iteration # 33     ecut=    30.00 Ry     beta=0.70
     Davidson diagonalization with overlap
     ethr =  1.84E-03,  avg # of iterations =  1.0

     negative rho (up, down):  5.102E-08 0.000E+00

     total cpu time spent up to now is        6.9 secs

     total energy              =     -31.50185014 Ry
     Harris-Foulkes estimate   =     -31.55718735 Ry
     estimated scf accuracy    <       2.61130002 Ry

     iteration # 34     ecut=    30.00 Ry     beta=0.70
     Davidson diagonalization with overlap
     ethr =  1.84E-03,  avg # of iterations =  1.0

     negative rho (up, down):  1.897E-08 0.000E+00

     total cpu time spent up to now is        6.9 secs

     total energy              =     -31.48732360 Ry
     Harris-Foulkes estimate   =     -31.50731324 Ry
     estimated scf accuracy    <       1.25447658 Ry

     iteration # 35     ecut=    30.00 Ry     beta=0.70
     Davidson diagonalization with overlap
     ethr =  1.84E-03,  avg # of iterations =  1.0

     total cpu time spent up to now is        6.9 secs

     total energy              =     -31.49176953 Ry
     Harris-Foulkes estimate   =     -31.49295030 Ry
     estimated scf accuracy    <       0.18105078 Ry

     iteration # 36     ecut=    30.00 Ry     beta=0.70
     Davidson diagonalization with overlap
     ethr =  1.84E-03,  avg # of iterations =  1.0

     total cpu time spent up to now is        7.0 secs

     total energy              =     -31.49269501 Ry
     Harris-Foulkes estimate   =     -31.49203561 Ry
     estimated scf accuracy    <       0.10111973 Ry

     iteration # 37     ecut=    30.00 Ry     beta=0.70
     Davidson diagonalization with overlap
     ethr =  1.26E-03,  avg # of iterations =  1.0

     total cpu time spent up to now is        7.0 secs

     total energy              =     -31.48512940 Ry
     Harris-Foulkes estimate   =     -31.49280433 Ry
     estimated scf accuracy    <       0.17512771 Ry

     iteration # 38     ecut=    30.00 Ry     beta=0.70
     Davidson diagonalization with overlap
     ethr =  1.26E-03,  avg # of iterations =  1.0

     total cpu time spent up to now is        7.0 secs

     total energy              =     -31.49044299 Ry
     Harris-Foulkes estimate   =     -31.49402768 Ry
     estimated scf accuracy    <       0.32436953 Ry

     iteration # 39     ecut=    30.00 Ry     beta=0.70
     Davidson diagonalization with overlap
     ethr =  1.26E-03,  avg # of iterations =  1.0

     total cpu time spent up to now is        7.1 secs

     total energy              =     -31.49093601 Ry
     Harris-Foulkes estimate   =     -31.49151508 Ry
     estimated scf accuracy    <       0.05203293 Ry

     iteration # 40     ecut=    30.00 Ry     beta=0.70
     Davidson diagonalization with overlap
     ethr =  6.50E-04,  avg # of iterations =  1.0

     total cpu time spent up to now is        7.1 secs

     total energy              =     -31.49144982 Ry
     Harris-Foulkes estimate   =     -31.49110702 Ry
     estimated scf accuracy    <       0.00935245 Ry

     iteration # 41     ecut=    30.00 Ry     beta=0.70
     Davidson diagonalization with overlap
     ethr =  1.17E-04,  avg # of iterations =  1.0

     total cpu time spent up to now is        7.1 secs

     total energy              =     -31.49037080 Ry
     Harris-Foulkes estimate   =     -31.49180726 Ry
     estimated scf accuracy    <       0.08607242 Ry

     iteration # 42     ecut=    30.00 Ry     beta=0.70
     Davidson diagonalization with overlap
     ethr =  1.17E-04,  avg # of iterations =  1.0

     total cpu time spent up to now is        7.2 secs

     total energy              =     -31.49100106 Ry
     Harris-Foulkes estimate   =     -31.49101889 Ry
     estimated scf accuracy    <       0.00081377 Ry

     iteration # 43     ecut=    30.00 Ry     beta=0.70
     Davidson diagonalization with overlap
     ethr =  1.02E-05,  avg # of iterations =  5.0

     total cpu time spent up to now is        7.2 secs

     total energy              =     -31.49101130 Ry
     Harris-Foulkes estimate   =     -31.49101178 Ry
     estimated scf accuracy    <       0.00002849 Ry

     iteration # 44     ecut=    30.00 Ry     beta=0.70
     Davidson diagonalization with overlap
     ethr =  3.56E-07,  avg # of iterations =  5.0

     total cpu time spent up to now is        7.2 secs

     total energy              =     -31.49101144 Ry
     Harris-Foulkes estimate   =     -31.49101146 Ry
     estimated scf accuracy    <       0.00000348 Ry

     iteration # 45     ecut=    30.00 Ry     beta=0.70
     Davidson diagonalization with overlap
     ethr =  4.35E-08,  avg # of iterations =  1.0

     total cpu time spent up to now is        7.3 secs

     total energy              =     -31.49101145 Ry
     Harris-Foulkes estimate   =     -31.49101145 Ry
     estimated scf accuracy    <       0.00000134 Ry

     iteration # 46     ecut=    30.00 Ry     beta=0.70
     Davidson diagonalization with overlap
     ethr =  1.68E-08,  avg # of iterations =  1.0

     total cpu time spent up to now is        7.3 secs

     total energy              =     -31.49101148 Ry
     Harris-Foulkes estimate   =     -31.49101146 Ry
     estimated scf accuracy    <       0.00000002 Ry

     iteration # 47     ecut=    30.00 Ry     beta=0.70
     Davidson diagonalization with overlap
     ethr =  2.30E-10,  avg # of iterations =  1.0

     total cpu time spent up to now is        7.3 secs

     End of self-consistent calculation

          k = 0.0000 0.0000 0.0000 ( 22119 PWs)   bands (ev):

   -23.6035  -7.0258  -7.0181  -7.0166  -6.9194  -6.8951  -0.2197   0.5829

     the Fermi energy is    -6.8824 ev

!    total energy              =     -31.49101150 Ry
     Harris-Foulkes estimate   =     -31.49101148 Ry
     estimated scf accuracy    <          7.0E-10 Ry

     convergence has been achieved in  47 iterations

     Forces acting on atoms (Ry/au):

     atom    1 type  1   force =     0.00008542    0.00001120    0.00038572
     atom    2 type  1   force =     0.00034312    0.00041221    0.00032841
     atom    3 type  2   force =    -0.00042854   -0.00042341   -0.00071413

     Total force =     0.001194     Total SCF correction =     0.000011

     Entering Dynamics:    iteration =     6
                           time      =   0.0290 pico-seconds


     Andersen thermostat:    3 collisions

ATOMIC_POSITIONS (bohr)
H       13.026421828   4.181517025  14.346588720
H        1.431416154   1.571073452  19.164720822
O        4.341611872  10.339093506  17.699103966


     kinetic energy (Ekin) =     0.03358791 Ry
     temperature           =  1767.70172953 K 
     Ekin + Etot (const)   =   -31.45742359 Ry
     Message from routine dynamics:
     Total linear momentum <> 0

     Linear momentum :    0.0271839412   -0.0722010692   -0.2133873842

     Writing output data file pwscf.save

     second order wave-functions extrapolation
     Check: negative starting charge=   -0.346580
     second order charge density extrapolation
     Check: negative starting charge=   -0.348034

     negative rho (up, down):  8.672E-02 0.000E+00

     total cpu time spent up to now is        7.7 secs

     per-process dynamical memory:    20.4 Mb

     Self-consistent Calculation

     iteration #  1     ecut=    30.00 Ry     beta=0.70
     Davidson diagonalization with overlap
     ethr =  1.00E-06,  avg # of iterations = 11.0

     negative rho (up, down):  1.942E-02 0.000E+00

     total cpu time spent up to now is        7.8 secs

     total energy              =     -11.99771129 Ry
     Harris-Foulkes estimate   =     -41.17835714 Ry
     estimated scf accuracy    <       5.43120547 Ry

     iteration #  2     ecut=    30.00 Ry     beta=0.70
     Davidson diagonalization with overlap
     ethr =  1.00E-02,  avg # of iterations =  4.0

     negative rho (up, down):  1.300E-02 0.000E+00

     total cpu time spent up to now is        7.8 secs

     total energy              =     -31.38121025 Ry
     Harris-Foulkes estimate   =     -35.07801447 Ry
     estimated scf accuracy    <       7.79599370 Ry

     iteration #  3     ecut=    30.00 Ry     beta=0.70
     Davidson diagonalization with overlap
     ethr =  1.00E-02,  avg # of iterations =  2.0

     negative rho (up, down):  2.215E-03 0.000E+00

     total cpu time spent up to now is        7.8 secs

     total energy              =     -31.77287383 Ry
     Harris-Foulkes estimate   =     -33.18285246 Ry
     estimated scf accuracy    <       4.70462837 Ry

     iteration #  4     ecut=    30.00 Ry     beta=0.70
     Davidson diagonalization with overlap
     ethr =  1.00E-02,  avg # of iterations =  3.0

     negative rho (up, down):  1.620E-03 0.000E+00

     total cpu time spent up to now is        7.9 secs

     total energy              =     -32.47777947 Ry
     Harris-Foulkes estimate   =     -32.18451928 Ry
     estimated scf accuracy    <       1.95605437 Ry

     iteration #  5     ecut=    30.00 Ry     beta=0.70
     Davidson diagonalization with overlap
     ethr =  1.00E-02,  avg # of iterations =  1.0

     negative rho (up, down):  2.491E-03 0.000E+00

     total cpu time spent up to now is        7.9 secs

     total energy              =     -31.81227212 Ry
     Harris-Foulkes estimate   =     -32.48092791 Ry
     estimated scf accuracy    <       2.39879574 Ry

     iteration #  6     ecut=    30.00 Ry     beta=0.70
     Davidson diagonalization with overlap
     ethr =  1.00E-02,  avg # of iterations =  1.0

     negative rho (up, down):  3.116E-02 0.000E+00

     total cpu time spent up to now is        7.9 secs

     total energy              =     -31.39237664 Ry
     Harris-Foulkes estimate   =     -31.91573815 Ry
     estimated scf accuracy    <       3.21671599 Ry

[...]

     total energy              =    -148.89683695 Ry
     Harris-Foulkes estimate   =    -619.57613998 Ry
     estimated scf accuracy    <      40.11967959 Ry

     iteration # 59     ecut=    30.00 Ry     beta=0.70
     Davidson diagonalization with overlap
     ethr =  1.00E-02,  avg # of iterations = 10.0

     negative rho (up, down):  1.007E+00 0.000E+00

     total cpu time spent up to now is       66.2 secs

     total energy              =      75.87569675 Ry
     Harris-Foulkes estimate   =   -5941.96464922 Ry
     estimated scf accuracy    <      35.76428321 Ry

     iteration # 60     ecut=    30.00 Ry     beta=0.70
     Davidson diagonalization with overlap
     ethr =  1.00E-02,  avg # of iterations =  8.0

     negative rho (up, down):  7.072E-01 0.000E+00

     total cpu time spent up to now is       66.3 secs

     total energy              =    -234.99416165 Ry
     Harris-Foulkes estimate   =   -3289.79990093 Ry
     estimated scf accuracy    <      31.80725621 Ry

     iteration # 61     ecut=    30.00 Ry     beta=0.70
     Davidson diagonalization with overlap
     ethr =  1.00E-02,  avg # of iterations =  9.0

     negative rho (up, down):  8.536E-01 0.000E+00

     total cpu time spent up to now is       66.3 secs

     total energy              =    -371.07025554 Ry
     Harris-Foulkes estimate   =   -3933.67671041 Ry
     estimated scf accuracy    <      34.46294946 Ry

     iteration # 62     ecut=    30.00 Ry     beta=0.70
     Davidson diagonalization with overlap
     ethr =  1.00E-02,  avg # of iterations =  5.0

     negative rho (up, down):  2.687E-01 0.000E+00

     total cpu time spent up to now is       66.4 secs

     total energy              =     103.69396476 Ry
     Harris-Foulkes estimate   =   -9691.16058698 Ry
     estimated scf accuracy    <      42.03487265 Ry

     iteration # 63     ecut=    30.00 Ry     beta=0.70
     Davidson diagonalization with overlap
     ethr =  1.00E-02,  avg # of iterations =  7.0

     negative rho (up, down):  1.795E-01 0.000E+00

     total cpu time spent up to now is       66.4 secs

     total energy              =     130.38762485 Ry
     Harris-Foulkes estimate   =    -711.56922712 Ry
     estimated scf accuracy    <      21.96443586 Ry

     iteration # 64     ecut=    30.00 Ry     beta=0.70
     Davidson diagonalization with overlap
     ethr =  1.00E-02,  avg # of iterations = 10.0

     negative rho (up, down):  3.016E-01 0.000E+00

     total cpu time spent up to now is       66.5 secs

     total energy              =     140.00749954 Ry
     Harris-Foulkes estimate   =   -1737.29240260 Ry
     estimated scf accuracy    <      17.75643371 Ry

     iteration # 65     ecut=    30.00 Ry     beta=0.70
     Davidson diagonalization with overlap
     ethr =  1.00E-02,  avg # of iterations = 11.0

     negative rho (up, down):  1.757E-01 0.000E+00

     total cpu time spent up to now is       66.6 secs

     total energy              =      81.87332745 Ry
     Harris-Foulkes estimate   =    -376.32688931 Ry
     estimated scf accuracy    <      19.68287150 Ry

     iteration # 66     ecut=    30.00 Ry     beta=0.70
     Davidson diagonalization with overlap
     ethr =  1.00E-02,  avg # of iterations =  9.0

     negative rho (up, down):  5.306E-02 0.000E+00

     total cpu time spent up to now is       66.6 secs

     total energy              =     129.08474661 Ry
     Harris-Foulkes estimate   =    -933.84780773 Ry
     estimated scf accuracy    <      19.11022777 Ry

     iteration # 67     ecut=    30.00 Ry     beta=0.70
     Davidson diagonalization with overlap
     ethr =  1.00E-02,  avg # of iterations =  6.0

     negative rho (up, down):  2.567E-03 0.000E+00

     total cpu time spent up to now is       66.7 secs

     total energy              =     -22.33252788 Ry
     Harris-Foulkes estimate   =    -202.11248142 Ry
     estimated scf accuracy    <      52.10986196 Ry

     iteration # 68     ecut=    30.00 Ry     beta=0.70
     Davidson diagonalization with overlap
     ethr =  1.00E-02,  avg # of iterations =  4.0

     negative rho (up, down):  2.925E-03 0.000E+00

     total cpu time spent up to now is       66.7 secs

     total energy              =     -68.67755832 Ry
     Harris-Foulkes estimate   =     -74.60233105 Ry
     estimated scf accuracy    <      57.44713667 Ry

     iteration # 69     ecut=    30.00 Ry     beta=0.70
     Davidson diagonalization with overlap
     ethr =  1.00E-02,  avg # of iterations =  1.0

     negative rho (up, down):  3.500E-02 0.000E+00

     total cpu time spent up to now is       66.7 secs

     total energy              =     -67.40742887 Ry
     Harris-Foulkes estimate   =     -68.69391471 Ry
     estimated scf accuracy    <      50.13121615 Ry

     iteration # 70     ecut=    30.00 Ry     beta=0.70
     Davidson diagonalization with overlap
     ethr =  1.00E-02,  avg # of iterations =  5.0

     negative rho (up, down):  1.404E-02 0.000E+00

     total cpu time spent up to now is       66.8 secs

     total energy              =     -24.73948883 Ry
     Harris-Foulkes estimate   =     -83.52749996 Ry
     estimated scf accuracy    <      29.79342754 Ry

     iteration # 71     ecut=    30.00 Ry     beta=0.70
     Davidson diagonalization with overlap
     ethr =  1.00E-02,  avg # of iterations =  3.0

     negative rho (up, down):  3.329E-02 0.000E+00

     total cpu time spent up to now is       66.8 secs

     total energy              =     -80.52246456 Ry
     Harris-Foulkes estimate   =     -70.64261527 Ry
     estimated scf accuracy    <      52.66726433 Ry

     iteration # 72     ecut=    30.00 Ry     beta=0.70
     Davidson diagonalization with overlap
     ethr =  1.00E-02,  avg # of iterations =  3.0

     negative rho (up, down):  6.533E-01 0.000E+00

     total cpu time spent up to now is       66.9 secs

     total energy              =     -72.78167388 Ry
     Harris-Foulkes estimate   =   -1757.48656453 Ry
     estimated scf accuracy    <      37.18379572 Ry

     iteration # 73     ecut=    30.00 Ry     beta=0.70
     Davidson diagonalization with overlap
     ethr =  1.00E-02,  avg # of iterations = 12.0

     negative rho (up, down):  7.664E-01 0.000E+00

     total cpu time spent up to now is       66.9 secs

     total energy              =    -336.09347983 Ry
     Harris-Foulkes estimate   =    -236.11480828 Ry
     estimated scf accuracy    <      26.70939563 Ry

     iteration # 74     ecut=    30.00 Ry     beta=0.70
     Davidson diagonalization with overlap
     ethr =  1.00E-02,  avg # of iterations =  7.0

     negative rho (up, down):  9.991E-01 0.000E+00

     total cpu time spent up to now is       67.0 secs

     total energy              =     -25.82405707 Ry
     Harris-Foulkes estimate   =   -4382.83907150 Ry
     estimated scf accuracy    <      26.33085410 Ry

     iteration # 75     ecut=    30.00 Ry     beta=0.70
     Davidson diagonalization with overlap
     ethr =  1.00E-02,  avg # of iterations =  5.0

     negative rho (up, down):  1.220E+00 0.000E+00

     total cpu time spent up to now is       67.0 secs

     total energy              =      58.54355292 Ry
     Harris-Foulkes estimate   =   -9609.93737424 Ry
     estimated scf accuracy    <      37.38574240 Ry

     iteration # 76     ecut=    30.00 Ry     beta=0.70
     Davidson diagonalization with overlap
     ethr =  1.00E-02,  avg # of iterations =  8.0

     negative rho (up, down):  1.602E-02 0.000E+00

     total cpu time spent up to now is       67.1 secs

     total energy              =     143.67528426 Ry
     Harris-Foulkes estimate   =   -1697.15631547 Ry
     estimated scf accuracy    <      60.66439907 Ry

     iteration # 77     ecut=    30.00 Ry     beta=0.70
     Davidson diagonalization with overlap
     ethr =  1.00E-02,  avg # of iterations = 12.0

     negative rho (up, down):  2.320E-02 0.000E+00

     total cpu time spent up to now is       67.2 secs

     total energy              =      27.99733536 Ry
     Harris-Foulkes estimate   =    -576.41155446 Ry
     estimated scf accuracy    <      12.07885646 Ry

     iteration # 78     ecut=    30.00 Ry     beta=0.70
     Davidson diagonalization with overlap
     ethr =  1.00E-02,  avg # of iterations =  7.0

     negative rho (up, down):  4.176E-02 0.000E+00

     total cpu time spent up to now is       67.2 secs

     total energy              =     -38.25173425 Ry
     Harris-Foulkes estimate   =     -44.90242523 Ry
     estimated scf accuracy    <      20.11325482 Ry

     iteration # 79     ecut=    30.00 Ry     beta=0.70
     Davidson diagonalization with overlap
     ethr =  1.00E-02,  avg # of iterations = 12.0

     negative rho (up, down):  2.111E-02 0.000E+00

     total cpu time spent up to now is       67.3 secs

     total energy              =      84.83627004 Ry
     Harris-Foulkes estimate   =    -146.07513840 Ry
     estimated scf accuracy    <      49.43772906 Ry

     iteration # 80     ecut=    30.00 Ry     beta=0.70
     Davidson diagonalization with overlap
     ethr =  1.00E-02,  avg # of iterations =  4.0

     negative rho (up, down):  8.160E-02 0.000E+00

     total cpu time spent up to now is       67.3 secs

     total energy              =     -34.57943929 Ry
     Harris-Foulkes estimate   =     -38.81335099 Ry
     estimated scf accuracy    <      12.23175294 Ry

     iteration # 81     ecut=    30.00 Ry     beta=0.70
     Davidson diagonalization with overlap
     ethr =  1.00E-02,  avg # of iterations = 10.0

     negative rho (up, down):  7.096E-02 0.000E+00

     total cpu time spent up to now is       67.4 secs

     total energy              =      25.00256323 Ry
     Harris-Foulkes estimate   =     -97.34187674 Ry
     estimated scf accuracy    <      52.79598952 Ry

     iteration # 82     ecut=    30.00 Ry     beta=0.70
     Davidson diagonalization with overlap
     ethr =  1.00E-02,  avg # of iterations = 10.0

     negative rho (up, down):  7.475E-02 0.000E+00

     total cpu time spent up to now is       67.5 secs

     total energy              =     -23.25278491 Ry
     Harris-Foulkes estimate   =     -68.15902070 Ry
     estimated scf accuracy    <      10.83382322 Ry

     iteration # 83     ecut=    30.00 Ry     beta=0.70
     Davidson diagonalization with overlap
     ethr =  1.00E-02,  avg # of iterations =  6.0

     negative rho (up, down):  7.307E-02 0.000E+00

     total cpu time spent up to now is       67.5 secs

     total energy              =     -98.31969192 Ry
     Harris-Foulkes estimate   =    -152.47547556 Ry
     estimated scf accuracy    <      58.36366681 Ry

     iteration # 84     ecut=    30.00 Ry     beta=0.70
     Davidson diagonalization with overlap
     ethr =  1.00E-02,  avg # of iterations = 11.0

     negative rho (up, down):  8.765E-02 0.000E+00

     total cpu time spent up to now is       67.6 secs

     total energy              =     -50.55866987 Ry
     Harris-Foulkes estimate   =    -477.10432416 Ry
     estimated scf accuracy    <      31.40996624 Ry

     iteration # 85     ecut=    30.00 Ry     beta=0.70
     Davidson diagonalization with overlap
     ethr =  1.00E-02,  avg # of iterations =  4.0

     negative rho (up, down):  1.134E-01 0.000E+00

     total cpu time spent up to now is       67.6 secs

     total energy              =      78.29170199 Ry
     Harris-Foulkes estimate   =    -769.54312481 Ry
     estimated scf accuracy    <      52.39151324 Ry

     iteration # 86     ecut=    30.00 Ry     beta=0.70
     Davidson diagonalization with overlap
     ethr =  1.00E-02,  avg # of iterations =  8.0

     negative rho (up, down):  1.355E-03 0.000E+00

     total cpu time spent up to now is       67.7 secs

     total energy              =      88.62523859 Ry
     Harris-Foulkes estimate   =    -403.67265112 Ry
     estimated scf accuracy    <      55.01858964 Ry

     iteration # 87     ecut=    30.00 Ry     beta=0.70
     Davidson diagonalization with overlap
     ethr =  1.00E-02,  avg # of iterations =  8.0

     negative rho (up, down):  2.656E-04 0.000E+00

     total cpu time spent up to now is       67.7 secs

     total energy              =     -35.03669671 Ry
     Harris-Foulkes estimate   =     -34.00581404 Ry
     estimated scf accuracy    <       5.29195669 Ry

     iteration # 88     ecut=    30.00 Ry     beta=0.70
     Davidson diagonalization with overlap
     ethr =  1.00E-02,  avg # of iterations =  5.0

     negative rho (up, down):  3.329E-03 0.000E+00

     total cpu time spent up to now is       67.8 secs

     total energy              =     -33.41750268 Ry
     Harris-Foulkes estimate   =     -35.95572439 Ry
     estimated scf accuracy    <       8.81555415 Ry

     iteration # 89     ecut=    30.00 Ry     beta=0.70
     Davidson diagonalization with overlap
     ethr =  1.00E-02,  avg # of iterations =  1.0

     negative rho (up, down):  3.465E-04 0.000E+00

     total cpu time spent up to now is       67.8 secs

     total energy              =     -33.68804041 Ry
     Harris-Foulkes estimate   =     -33.58103645 Ry
     estimated scf accuracy    <       4.18594553 Ry

     iteration # 90     ecut=    30.00 Ry     beta=0.70
     Davidson diagonalization with overlap
     ethr =  1.00E-02,  avg # of iterations =  4.0

     negative rho (up, down):  7.228E-07 0.000E+00

     total cpu time spent up to now is       67.8 secs

     total energy              =      -2.32555238 Ry
     Harris-Foulkes estimate   =     -79.60074390 Ry
     estimated scf accuracy    <       5.72427157 Ry

     iteration # 91     ecut=    30.00 Ry     beta=0.70
     Davidson diagonalization with overlap
     ethr =  1.00E-02,  avg # of iterations =  4.0

     negative rho (up, down):  6.014E-04 0.000E+00

     total cpu time spent up to now is       67.9 secs

     total energy              =     -33.07202721 Ry
     Harris-Foulkes estimate   =     -34.00625553 Ry
     estimated scf accuracy    <       6.22106591 Ry

     iteration # 92     ecut=    30.00 Ry     beta=0.70
     Davidson diagonalization with overlap
     ethr =  1.00E-02,  avg # of iterations =  1.0

     negative rho (up, down):  1.036E-02 0.000E+00

     total cpu time spent up to now is       67.9 secs

     total energy              =     -33.43362216 Ry
     Harris-Foulkes estimate   =     -33.22254187 Ry
     estimated scf accuracy    <       3.88441577 Ry

     iteration # 93     ecut=    30.00 Ry     beta=0.70
     Davidson diagonalization with overlap
     ethr =  1.00E-02,  avg # of iterations =  1.0

     negative rho (up, down):  3.770E-03 0.000E+00

     total cpu time spent up to now is       67.9 secs

     total energy              =     -32.68322406 Ry
     Harris-Foulkes estimate   =     -33.83559175 Ry
     estimated scf accuracy    <       6.00991054 Ry

     iteration # 94     ecut=    30.00 Ry     beta=0.70
     Davidson diagonalization with overlap
     ethr =  1.00E-02,  avg # of iterations =  1.0

     negative rho (up, down):  1.786E-02 0.000E+00

     total cpu time spent up to now is       68.0 secs

     total energy              =     -32.38935280 Ry
     Harris-Foulkes estimate   =     -32.89316640 Ry
     estimated scf accuracy    <       3.13031878 Ry

     iteration # 95     ecut=    30.00 Ry     beta=0.70
     Davidson diagonalization with overlap
     ethr =  1.00E-02,  avg # of iterations = 12.0

     negative rho (up, down):  1.468E-02 0.000E+00

     total cpu time spent up to now is       68.0 secs

     total energy              =     -16.75974501 Ry
     Harris-Foulkes estimate   =     -39.66981965 Ry
     estimated scf accuracy    <      19.39668111 Ry

     iteration # 96     ecut=    30.00 Ry     beta=0.70
     Davidson diagonalization with overlap
     ethr =  1.00E-02,  avg # of iterations =  5.0

     total cpu time spent up to now is       68.1 secs

     total energy              =      22.08892484 Ry
     Harris-Foulkes estimate   =     -87.03654292 Ry
     estimated scf accuracy    <      27.85986063 Ry

     iteration # 97     ecut=    30.00 Ry     beta=0.70
     Davidson diagonalization with overlap
     ethr =  1.00E-02,  avg # of iterations =  4.0

     negative rho (up, down):  1.960E-04 0.000E+00

     total cpu time spent up to now is       68.1 secs

     total energy              =     -32.54845133 Ry
     Harris-Foulkes estimate   =     -32.86318756 Ry
     estimated scf accuracy    <       3.09335823 Ry

     iteration # 98     ecut=    30.00 Ry     beta=0.70
     Davidson diagonalization with overlap
     ethr =  1.00E-02,  avg # of iterations =  1.0

     negative rho (up, down):  2.507E-03 0.000E+00

     total cpu time spent up to now is       68.2 secs

     total energy              =     -32.54987372 Ry
     Harris-Foulkes estimate   =     -32.55752661 Ry
     estimated scf accuracy    <       2.60692283 Ry

     iteration # 99     ecut=    30.00 Ry     beta=0.70
     Davidson diagonalization with overlap
     ethr =  1.00E-02,  avg # of iterations =  1.0

     negative rho (up, down):  2.831E-03 0.000E+00

     total cpu time spent up to now is       68.2 secs

     total energy              =     -32.53822739 Ry
     Harris-Foulkes estimate   =     -32.55096782 Ry
     estimated scf accuracy    <       2.57026732 Ry

     iteration #100     ecut=    30.00 Ry     beta=0.70
     Davidson diagonalization with overlap
     ethr =  1.00E-02,  avg # of iterations =  4.0

     negative rho (up, down):  3.362E-03 0.000E+00

     total cpu time spent up to now is       68.2 secs

     total energy              =     -32.58178823 Ry
     Harris-Foulkes estimate   =     -32.53845402 Ry
     estimated scf accuracy    <       2.54724245 Ry

     End of self-consistent calculation

     convergence NOT achieved after 100 iterations: stopping

     Writing output data file pwscf.save
 
     init_run     :      0.09s CPU      0.11s WALL (       1 calls)
     electrons    :     42.60s CPU     55.92s WALL (      44 calls)
     update_pot   :      5.71s CPU      8.17s WALL (      43 calls)
     forces       :      1.14s CPU      1.18s WALL (      43 calls)

     Called by init_run:
     wfcinit      :      0.01s CPU      0.02s WALL (       1 calls)
     potinit      :      0.02s CPU      0.03s WALL (       1 calls)

     Called by electrons:
     c_bands      :     17.40s CPU     19.20s WALL (    1354 calls)
     sum_band     :      3.95s CPU      4.44s WALL (    1354 calls)
     v_of_rho     :     10.08s CPU     10.89s WALL (    1398 calls)
     mix_rho      :      9.20s CPU     16.02s WALL (    1354 calls)

     Called by c_bands:
     init_us_2    :      0.13s CPU      0.16s WALL (    2709 calls)
     cegterg      :     17.09s CPU     18.43s WALL (    1354 calls)

     Called by sum_band:

     Called by *egterg:
     h_psi        :     14.54s CPU     15.69s WALL (    5029 calls)
     g_psi        :      0.12s CPU      0.13s WALL (    3674 calls)
     cdiaghg      :      0.90s CPU      0.95s WALL (    4985 calls)

     Called by h_psi:
     h_psi:pot    :     14.46s CPU     15.61s WALL (    5029 calls)
     h_psi:calbec :      0.36s CPU      0.44s WALL (    5029 calls)
     vloc_psi     :     14.03s CPU     15.10s WALL (    5029 calls)
     add_vuspsi   :      0.04s CPU      0.05s WALL (    5029 calls)

     General routines
     calbec       :      0.69s CPU      0.91s WALL (    5243 calls)
     fft          :      6.46s CPU      6.94s WALL (   15464 calls)
     fftw         :     15.08s CPU     16.51s WALL (   66386 calls)
     davcio       :      1.48s CPU      5.93s WALL (   23177 calls)
 
     Parallel routines
     fft_scatter  :      9.06s CPU     10.51s WALL (   81850 calls)
 
     PWSCF        :  0m50.65s CPU     1m 8.31s WALL

 
   This run was terminated on:   0:36:31  11Feb2018            

=------------------------------------------------------------------------------=
   JOB DONE.
=------------------------------------------------------------------------------=
