
     Program PWSCF v.6.0 (svn rev. 13079) starts on 11Feb2018 at  0:41:46 

     This program is part of the open-source Quantum ESPRESSO suite
     for quantum simulation of materials; please cite
         "P. Giannozzi et al., J. Phys.:Condens. Matter 21 395502 (2009);
          URL http://www.quantum-espresso.org", 
     in publications or presentations arising from this work. More details at
     http://www.quantum-espresso.org/quote

     Parallel version (MPI), running on    28 processors
     R & G space division:  proc/nbgrp/npool/nimage =      28
     Reading input from inputs/water-1-md/221.in

     Current dimensions of program PWSCF are:
     Max number of different atomic species (ntypx) = 10
     Max number of k-points (npk) =  40000
     Max angular momentum in pseudopotentials (lmaxx) =  3

     Subspace diagonalization in iterative solution of the eigenvalue problem:
     a serial algorithm will be used

 
     Parallelization info
     --------------------
     sticks:   dense  smooth     PW     G-vecs:    dense   smooth      PW
     Min         136     136     33                 6338     6338     787
     Max         137     137     34                 6341     6341     792
     Sum        3809    3809    949               177509   177509   22119
 


     bravais-lattice index     =            1
     lattice parameter (alat)  =      20.0000  a.u.
     unit-cell volume          =    8000.0000 (a.u.)^3
     number of atoms/cell      =            3
     number of atomic types    =            2
     number of electrons       =         8.00
     number of Kohn-Sham states=            8
     kinetic-energy cutoff     =      30.0000  Ry
     charge density cutoff     =     120.0000  Ry
     convergence threshold     =      1.0E-08
     mixing beta               =       0.7000
     number of iterations used =            8  plain     mixing
     Exchange-correlation      = BLYP ( 1  3  1  3 0 0)
     nstep                     =         5000


     celldm(1)=  20.000000  celldm(2)=   0.000000  celldm(3)=   0.000000
     celldm(4)=   0.000000  celldm(5)=   0.000000  celldm(6)=   0.000000

     crystal axes: (cart. coord. in units of alat)
               a(1) = (   1.000000   0.000000   0.000000 )  
               a(2) = (   0.000000   1.000000   0.000000 )  
               a(3) = (   0.000000   0.000000   1.000000 )  

     reciprocal axes: (cart. coord. in units 2 pi/alat)
               b(1) = (  1.000000  0.000000  0.000000 )  
               b(2) = (  0.000000  1.000000  0.000000 )  
               b(3) = (  0.000000  0.000000  1.000000 )  


     PseudoPot. # 1 for  H read from file:
     ./H.blyp-hgh.UPF
     MD5 check sum: c576e69559cde411e611be972c763230
     Pseudo is Norm-conserving, Zval =  1.0
     Generated in analytical, separable form
     Using radial grid of  929 points,  0 beta functions with: 

     PseudoPot. # 2 for  O read from file:
     ./O.blyp-hgh.UPF
     MD5 check sum: d0b7156309aa9befef28faac7bc56342
     Pseudo is Norm-conserving, Zval =  6.0
     Generated in analytical, separable form
     Using radial grid of 1095 points,  1 beta functions with: 
                l(1) =   0

     atomic species   valence    mass     pseudopotential
        H              1.00     1.01000      H( 1.00)
        O              6.00    16.00000      O( 1.00)

     No symmetry found



   Cartesian axes

     site n.     atom                  positions (alat units)
         1           H   tau(   1) = (   0.1084917   0.6301888   0.6129526  )
         2           H   tau(   2) = (   0.5703453   0.1628134   0.5284059  )
         3           O   tau(   3) = (   0.4379046   0.2611557   0.6764700  )

     number of k points=     1  Marzari-Vanderbilt smearing, width (Ry)=  0.0250
                       cart. coord. in units 2pi/alat
        k(    1) = (   0.0000000   0.0000000   0.0000000), wk =   2.0000000

     Dense  grid:   177509 G-vectors     FFT dimensions: (  72,  72,  72)

     Estimated max dynamical RAM per process >       6.09Mb

     Estimated total allocated dynamical RAM >     170.64Mb

     Initial potential from superposition of free atoms
     Check: negative starting charge=   -0.343169

     starting charge    7.99998, renormalised to    8.00000

     negative rho (up, down):  3.432E-01 0.000E+00
     Starting wfc are    6 randomized atomic wfcs +    2 random wfc

     total cpu time spent up to now is        0.2 secs

     per-process dynamical memory:    18.8 Mb

     Self-consistent Calculation

     iteration #  1     ecut=    30.00 Ry     beta=0.70
     Davidson diagonalization with overlap
     ethr =  1.00E-02,  avg # of iterations =  7.0

     negative rho (up, down):  8.420E-02 0.000E+00

     total cpu time spent up to now is        0.3 secs

     total energy              =     -29.36976645 Ry
     Harris-Foulkes estimate   =     -32.09909502 Ry
     estimated scf accuracy    <       3.13885733 Ry

     iteration #  2     ecut=    30.00 Ry     beta=0.70
     Davidson diagonalization with overlap
     ethr =  1.00E-02,  avg # of iterations =  3.0

     negative rho (up, down):  6.254E-02 0.000E+00

     total cpu time spent up to now is        0.3 secs

     total energy              =     -32.05740714 Ry
     Harris-Foulkes estimate   =     -35.90136725 Ry
     estimated scf accuracy    <       9.80335658 Ry

     iteration #  3     ecut=    30.00 Ry     beta=0.70
     Davidson diagonalization with overlap
     ethr =  1.00E-02,  avg # of iterations =  4.0

     negative rho (up, down):  6.593E-02 0.000E+00

     total cpu time spent up to now is        0.3 secs

     total energy              =     -32.58794915 Ry
     Harris-Foulkes estimate   =     -32.35884821 Ry
     estimated scf accuracy    <       3.42571203 Ry

     iteration #  4     ecut=    30.00 Ry     beta=0.70
     Davidson diagonalization with overlap
     ethr =  1.00E-02,  avg # of iterations =  1.0

     negative rho (up, down):  4.203E-02 0.000E+00

     total cpu time spent up to now is        0.4 secs

     total energy              =     -31.38102008 Ry
     Harris-Foulkes estimate   =     -32.59029100 Ry
     estimated scf accuracy    <       3.86310117 Ry

     iteration #  5     ecut=    30.00 Ry     beta=0.70
     Davidson diagonalization with overlap
     ethr =  1.00E-02,  avg # of iterations =  2.0

     negative rho (up, down):  3.586E-03 0.000E+00

     total cpu time spent up to now is        0.4 secs

     total energy              =     -32.47444673 Ry
     Harris-Foulkes estimate   =     -31.59398197 Ry
     estimated scf accuracy    <       1.62613251 Ry

     iteration #  6     ecut=    30.00 Ry     beta=0.70
     Davidson diagonalization with overlap
     ethr =  1.00E-02,  avg # of iterations =  2.0

     negative rho (up, down):  3.596E-03 0.000E+00

     total cpu time spent up to now is        0.4 secs

     total energy              =     -32.40298731 Ry
     Harris-Foulkes estimate   =     -32.83813333 Ry
     estimated scf accuracy    <       5.56721373 Ry

     iteration #  7     ecut=    30.00 Ry     beta=0.70
     Davidson diagonalization with overlap
     ethr =  1.00E-02,  avg # of iterations =  1.0

     negative rho (up, down):  1.051E-03 0.000E+00

     total cpu time spent up to now is        0.4 secs

     total energy              =     -32.13850622 Ry
     Harris-Foulkes estimate   =     -32.41266503 Ry
     estimated scf accuracy    <       4.65646886 Ry

     iteration #  8     ecut=    30.00 Ry     beta=0.70
     Davidson diagonalization with overlap
     ethr =  1.00E-02,  avg # of iterations =  1.0

     negative rho (up, down):  2.404E-04 0.000E+00

     total cpu time spent up to now is        0.5 secs

     total energy              =     -31.61826398 Ry
     Harris-Foulkes estimate   =     -32.14381119 Ry
     estimated scf accuracy    <       4.01081268 Ry

     iteration #  9     ecut=    30.00 Ry     beta=0.70
     Davidson diagonalization with overlap
     ethr =  1.00E-02,  avg # of iterations =  1.0

     negative rho (up, down):  5.513E-05 0.000E+00

     total cpu time spent up to now is        0.5 secs

     total energy              =     -31.50829668 Ry
     Harris-Foulkes estimate   =     -31.65585410 Ry
     estimated scf accuracy    <       2.49572984 Ry

     iteration # 10     ecut=    30.00 Ry     beta=0.70
     Davidson diagonalization with overlap
     ethr =  1.00E-02,  avg # of iterations =  1.0

     negative rho (up, down):  2.845E-03 0.000E+00

     total cpu time spent up to now is        0.5 secs

     total energy              =     -31.72823748 Ry
     Harris-Foulkes estimate   =     -31.63486468 Ry
     estimated scf accuracy    <       0.79228064 Ry

     iteration # 11     ecut=    30.00 Ry     beta=0.70
     Davidson diagonalization with overlap
     ethr =  9.90E-03,  avg # of iterations =  1.0

     total cpu time spent up to now is        0.6 secs

     total energy              =     -31.71475703 Ry
     Harris-Foulkes estimate   =     -31.75242190 Ry
     estimated scf accuracy    <       1.40264024 Ry

     iteration # 12     ecut=    30.00 Ry     beta=0.70
     Davidson diagonalization with overlap
     ethr =  9.90E-03,  avg # of iterations =  1.0

     negative rho (up, down):  1.687E-08 0.000E+00

     total cpu time spent up to now is        0.6 secs

     total energy              =     -31.69903566 Ry
     Harris-Foulkes estimate   =     -31.71767396 Ry
     estimated scf accuracy    <       1.14818156 Ry

     iteration # 13     ecut=    30.00 Ry     beta=0.70
     Davidson diagonalization with overlap
     ethr =  9.90E-03,  avg # of iterations =  1.0

     negative rho (up, down):  2.780E-05 0.000E+00

     total cpu time spent up to now is        0.7 secs

     total energy              =     -31.67132026 Ry
     Harris-Foulkes estimate   =     -31.69953241 Ry
     estimated scf accuracy    <       1.05155730 Ry

     iteration # 14     ecut=    30.00 Ry     beta=0.70
     Davidson diagonalization with overlap
     ethr =  9.90E-03,  avg # of iterations =  1.0

     negative rho (up, down):  8.859E-06 0.000E+00

     total cpu time spent up to now is        0.7 secs

     total energy              =     -31.65591634 Ry
     Harris-Foulkes estimate   =     -31.67147320 Ry
     estimated scf accuracy    <       0.98608484 Ry

     iteration # 15     ecut=    30.00 Ry     beta=0.70
     Davidson diagonalization with overlap
     ethr =  9.90E-03,  avg # of iterations =  1.0

     negative rho (up, down):  9.035E-06 0.000E+00

     total cpu time spent up to now is        0.8 secs

     total energy              =     -31.65551239 Ry
     Harris-Foulkes estimate   =     -31.65626061 Ry
     estimated scf accuracy    <       0.91807287 Ry

     iteration # 16     ecut=    30.00 Ry     beta=0.70
     Davidson diagonalization with overlap
     ethr =  9.90E-03,  avg # of iterations =  1.0

     negative rho (up, down):  1.360E-05 0.000E+00

     total cpu time spent up to now is        0.8 secs

     total energy              =     -31.65156814 Ry
     Harris-Foulkes estimate   =     -31.65551731 Ry
     estimated scf accuracy    <       0.91357875 Ry

     iteration # 17     ecut=    30.00 Ry     beta=0.70
     Davidson diagonalization with overlap
     ethr =  9.90E-03,  avg # of iterations =  1.0

     total cpu time spent up to now is        0.9 secs

     total energy              =     -31.66993840 Ry
     Harris-Foulkes estimate   =     -31.65157940 Ry
     estimated scf accuracy    <       0.90071952 Ry

     iteration # 18     ecut=    30.00 Ry     beta=0.70
     Davidson diagonalization with overlap
     ethr =  9.90E-03,  avg # of iterations =  1.0

     negative rho (up, down):  1.073E-01 0.000E+00

     total cpu time spent up to now is        0.9 secs

     total energy              =     -30.99360302 Ry
     Harris-Foulkes estimate   =     -31.67115238 Ry
     estimated scf accuracy    <       1.01942546 Ry

     iteration # 19     ecut=    30.00 Ry     beta=0.70
     Davidson diagonalization with overlap
     ethr =  9.90E-03,  avg # of iterations =  3.0

     negative rho (up, down):  1.481E-02 0.000E+00

     total cpu time spent up to now is        1.0 secs

     total energy              =     -31.81889852 Ry
     Harris-Foulkes estimate   =     -33.43185516 Ry
     estimated scf accuracy    <      11.49722425 Ry

     iteration # 20     ecut=    30.00 Ry     beta=0.70
     Davidson diagonalization with overlap
     ethr =  9.90E-03,  avg # of iterations =  1.0

     negative rho (up, down):  2.780E-03 0.000E+00

     total cpu time spent up to now is        1.0 secs

     total energy              =     -31.97186576 Ry
     Harris-Foulkes estimate   =     -32.36198510 Ry
     estimated scf accuracy    <       2.74272346 Ry

     iteration # 21     ecut=    30.00 Ry     beta=0.70
     Davidson diagonalization with overlap
     ethr =  9.90E-03,  avg # of iterations =  1.0

     negative rho (up, down):  1.452E-03 0.000E+00

     total cpu time spent up to now is        1.1 secs

     total energy              =     -31.84260508 Ry
     Harris-Foulkes estimate   =     -31.98897110 Ry
     estimated scf accuracy    <       2.05608053 Ry

     iteration # 22     ecut=    30.00 Ry     beta=0.70
     Davidson diagonalization with overlap
     ethr =  9.90E-03,  avg # of iterations =  1.0

     negative rho (up, down):  1.711E-04 0.000E+00

     total cpu time spent up to now is        1.1 secs

     total energy              =     -31.61050381 Ry
     Harris-Foulkes estimate   =     -31.84636314 Ry
     estimated scf accuracy    <       1.72280360 Ry

     iteration # 23     ecut=    30.00 Ry     beta=0.70
     Davidson diagonalization with overlap
     ethr =  9.90E-03,  avg # of iterations =  1.0

     negative rho (up, down):  6.555E-03 0.000E+00

     total cpu time spent up to now is        1.2 secs

     total energy              =     -31.48602304 Ry
     Harris-Foulkes estimate   =     -31.61326179 Ry
     estimated scf accuracy    <       1.25738205 Ry

     iteration # 24     ecut=    30.00 Ry     beta=0.70
     Davidson diagonalization with overlap
     ethr =  9.90E-03,  avg # of iterations =  1.0

     negative rho (up, down):  1.353E-02 0.000E+00

     total cpu time spent up to now is        1.2 secs

     total energy              =     -31.67676304 Ry
     Harris-Foulkes estimate   =     -31.66624644 Ry
     estimated scf accuracy    <       1.01658048 Ry

     iteration # 25     ecut=    30.00 Ry     beta=0.70
     Davidson diagonalization with overlap
     ethr =  9.90E-03,  avg # of iterations =  1.0

     negative rho (up, down):  1.110E-02 0.000E+00

     total cpu time spent up to now is        1.3 secs

     total energy              =     -31.68596348 Ry
     Harris-Foulkes estimate   =     -31.67693863 Ry
     estimated scf accuracy    <       1.02910779 Ry

     iteration # 26     ecut=    30.00 Ry     beta=0.70
     Davidson diagonalization with overlap
     ethr =  9.90E-03,  avg # of iterations =  1.0

     negative rho (up, down):  6.171E-03 0.000E+00

     total cpu time spent up to now is        1.3 secs

     total energy              =     -31.67597986 Ry
     Harris-Foulkes estimate   =     -31.68604157 Ry
     estimated scf accuracy    <       1.05868355 Ry

     iteration # 27     ecut=    30.00 Ry     beta=0.70
     Davidson diagonalization with overlap
     ethr =  9.90E-03,  avg # of iterations =  1.0

     negative rho (up, down):  5.404E-03 0.000E+00

     total cpu time spent up to now is        1.4 secs

     total energy              =     -31.67516335 Ry
     Harris-Foulkes estimate   =     -31.67602987 Ry
     estimated scf accuracy    <       1.02866360 Ry

     iteration # 28     ecut=    30.00 Ry     beta=0.70
     Davidson diagonalization with overlap
     ethr =  9.90E-03,  avg # of iterations =  1.0

     negative rho (up, down):  3.769E-04 0.000E+00

     total cpu time spent up to now is        1.4 secs

     total energy              =     -31.67090277 Ry
     Harris-Foulkes estimate   =     -31.67516646 Ry
     estimated scf accuracy    <       1.02603344 Ry

     iteration # 29     ecut=    30.00 Ry     beta=0.70
     Davidson diagonalization with overlap
     ethr =  9.90E-03,  avg # of iterations =  1.0

     negative rho (up, down):  3.027E-04 0.000E+00

     total cpu time spent up to now is        1.5 secs

     total energy              =     -31.65616262 Ry
     Harris-Foulkes estimate   =     -31.67090712 Ry
     estimated scf accuracy    <       1.01722329 Ry

     iteration # 30     ecut=    30.00 Ry     beta=0.70
     Davidson diagonalization with overlap
     ethr =  9.90E-03,  avg # of iterations =  1.0

     negative rho (up, down):  5.987E-04 0.000E+00

     total cpu time spent up to now is        1.5 secs

     total energy              =     -31.65633796 Ry
     Harris-Foulkes estimate   =     -31.65617290 Ry
     estimated scf accuracy    <       0.99180938 Ry

     iteration # 31     ecut=    30.00 Ry     beta=0.70
     Davidson diagonalization with overlap
     ethr =  9.90E-03,  avg # of iterations =  1.0

     negative rho (up, down):  3.252E-04 0.000E+00

     total cpu time spent up to now is        1.6 secs

     total energy              =     -31.62675129 Ry
     Harris-Foulkes estimate   =     -31.65635539 Ry
     estimated scf accuracy    <       0.99851123 Ry

     iteration # 32     ecut=    30.00 Ry     beta=0.70
     Davidson diagonalization with overlap
     ethr =  9.90E-03,  avg # of iterations =  1.0

     negative rho (up, down):  5.839E-05 0.000E+00

     total cpu time spent up to now is        1.6 secs

     total energy              =     -31.07168326 Ry
     Harris-Foulkes estimate   =     -31.62688595 Ry
     estimated scf accuracy    <       0.92157268 Ry

     iteration # 33     ecut=    30.00 Ry     beta=0.70
     Davidson diagonalization with overlap
     ethr =  9.90E-03,  avg # of iterations =  2.0

     negative rho (up, down):  8.639E-06 0.000E+00

     total cpu time spent up to now is        1.6 secs

     total energy              =     -32.03538244 Ry
     Harris-Foulkes estimate   =     -32.83548510 Ry
     estimated scf accuracy    <       3.91415372 Ry

     iteration # 34     ecut=    30.00 Ry     beta=0.70
     Davidson diagonalization with overlap
     ethr =  9.90E-03,  avg # of iterations =  1.0

     negative rho (up, down):  1.284E-04 0.000E+00

     total cpu time spent up to now is        1.7 secs

     total energy              =     -31.83391675 Ry
     Harris-Foulkes estimate   =     -32.06640483 Ry
     estimated scf accuracy    <       2.09961907 Ry

     iteration # 35     ecut=    30.00 Ry     beta=0.70
     Davidson diagonalization with overlap
     ethr =  9.90E-03,  avg # of iterations =  1.0

     negative rho (up, down):  3.658E-04 0.000E+00

     total cpu time spent up to now is        1.7 secs

     total energy              =     -31.60740195 Ry
     Harris-Foulkes estimate   =     -31.84001543 Ry
     estimated scf accuracy    <       1.63470595 Ry

     iteration # 36     ecut=    30.00 Ry     beta=0.70
     Davidson diagonalization with overlap
     ethr =  9.90E-03,  avg # of iterations =  1.0

     negative rho (up, down):  2.841E-04 0.000E+00

     total cpu time spent up to now is        1.8 secs

     total energy              =     -31.53750660 Ry
     Harris-Foulkes estimate   =     -31.60896959 Ry
     estimated scf accuracy    <       1.01076074 Ry

     iteration # 37     ecut=    30.00 Ry     beta=0.70
     Davidson diagonalization with overlap
     ethr =  9.90E-03,  avg # of iterations =  1.0

     negative rho (up, down):  1.728E-04 0.000E+00

     total cpu time spent up to now is        1.8 secs

     total energy              =     -31.61330014 Ry
     Harris-Foulkes estimate   =     -31.62490837 Ry
     estimated scf accuracy    <       0.90766033 Ry

     iteration # 38     ecut=    30.00 Ry     beta=0.70
     Davidson diagonalization with overlap
     ethr =  9.90E-03,  avg # of iterations =  1.0

     negative rho (up, down):  3.420E-05 0.000E+00

     total cpu time spent up to now is        1.8 secs

     total energy              =     -31.55010582 Ry
     Harris-Foulkes estimate   =     -31.61368598 Ry
     estimated scf accuracy    <       0.77028107 Ry

     iteration # 39     ecut=    30.00 Ry     beta=0.70
     Davidson diagonalization with overlap
     ethr =  9.63E-03,  avg # of iterations =  1.0

     negative rho (up, down):  5.728E-06 0.000E+00

     total cpu time spent up to now is        1.9 secs

     total energy              =     -31.63908323 Ry
     Harris-Foulkes estimate   =     -31.62492464 Ry
     estimated scf accuracy    <       1.57394846 Ry

     iteration # 40     ecut=    30.00 Ry     beta=0.70
     Davidson diagonalization with overlap
     ethr =  9.63E-03,  avg # of iterations =  1.0

     negative rho (up, down):  1.547E-06 0.000E+00

     total cpu time spent up to now is        1.9 secs

     total energy              =     -31.63157831 Ry
     Harris-Foulkes estimate   =     -31.63911510 Ry
     estimated scf accuracy    <       1.53482402 Ry

     iteration # 41     ecut=    30.00 Ry     beta=0.70
     Davidson diagonalization with overlap
     ethr =  9.63E-03,  avg # of iterations =  1.0

     negative rho (up, down):  3.675E-07 0.000E+00

     total cpu time spent up to now is        1.9 secs

     total energy              =     -31.61024872 Ry
     Harris-Foulkes estimate   =     -31.63146236 Ry
     estimated scf accuracy    <       1.60677982 Ry

     iteration # 42     ecut=    30.00 Ry     beta=0.70
     Davidson diagonalization with overlap
     ethr =  9.63E-03,  avg # of iterations =  1.0

     total cpu time spent up to now is        2.0 secs

     total energy              =     -31.61355244 Ry
     Harris-Foulkes estimate   =     -31.61124530 Ry
     estimated scf accuracy    <       1.11312580 Ry

     iteration # 43     ecut=    30.00 Ry     beta=0.70
     Davidson diagonalization with overlap
     ethr =  9.63E-03,  avg # of iterations =  1.0

     negative rho (up, down):  6.987E-08 0.000E+00

     total cpu time spent up to now is        2.0 secs

     total energy              =     -31.62059076 Ry
     Harris-Foulkes estimate   =     -31.61361295 Ry
     estimated scf accuracy    <       1.23163160 Ry

     iteration # 44     ecut=    30.00 Ry     beta=0.70
     Davidson diagonalization with overlap
     ethr =  9.63E-03,  avg # of iterations =  1.0

     total cpu time spent up to now is        2.0 secs

     total energy              =     -31.57155933 Ry
     Harris-Foulkes estimate   =     -31.62097067 Ry
     estimated scf accuracy    <       1.49768660 Ry

     iteration # 45     ecut=    30.00 Ry     beta=0.70
     Davidson diagonalization with overlap
     ethr =  9.63E-03,  avg # of iterations =  1.0

     negative rho (up, down):  4.070E-08 0.000E+00

     total cpu time spent up to now is        2.1 secs

     total energy              =     -31.59211626 Ry
     Harris-Foulkes estimate   =     -31.59577830 Ry
     estimated scf accuracy    <       0.02294286 Ry

     iteration # 46     ecut=    30.00 Ry     beta=0.70
     Davidson diagonalization with overlap
     ethr =  2.87E-04,  avg # of iterations =  1.0

     total cpu time spent up to now is        2.1 secs

     total energy              =     -31.61150749 Ry
     Harris-Foulkes estimate   =     -31.60489197 Ry
     estimated scf accuracy    <       0.72252189 Ry

     iteration # 47     ecut=    30.00 Ry     beta=0.70
     Davidson diagonalization with overlap
     ethr =  2.87E-04,  avg # of iterations =  1.0

     total cpu time spent up to now is        2.1 secs

     total energy              =     -31.62370259 Ry
     Harris-Foulkes estimate   =     -31.61244970 Ry
     estimated scf accuracy    <       1.17562089 Ry

     iteration # 48     ecut=    30.00 Ry     beta=0.70
     Davidson diagonalization with overlap
     ethr =  2.87E-04,  avg # of iterations =  1.0

     total cpu time spent up to now is        2.2 secs

     total energy              =     -31.61806290 Ry
     Harris-Foulkes estimate   =     -31.62470865 Ry
     estimated scf accuracy    <       1.57248145 Ry

     iteration # 49     ecut=    30.00 Ry     beta=0.70
     Davidson diagonalization with overlap
     ethr =  2.87E-04,  avg # of iterations =  1.0

     total cpu time spent up to now is        2.2 secs

     total energy              =     -31.61213788 Ry
     Harris-Foulkes estimate   =     -31.61819788 Ry
     estimated scf accuracy    <       1.41829881 Ry

     iteration # 50     ecut=    30.00 Ry     beta=0.70
     Davidson diagonalization with overlap
     ethr =  2.87E-04,  avg # of iterations =  1.0

     total cpu time spent up to now is        2.2 secs

     total energy              =     -31.57999763 Ry
     Harris-Foulkes estimate   =     -31.61238568 Ry
     estimated scf accuracy    <       1.17520003 Ry

     iteration # 51     ecut=    30.00 Ry     beta=0.70
     Davidson diagonalization with overlap
     ethr =  2.87E-04,  avg # of iterations =  1.0

     total cpu time spent up to now is        2.3 secs

     total energy              =     -31.59531140 Ry
     Harris-Foulkes estimate   =     -31.59547650 Ry
     estimated scf accuracy    <       0.00081622 Ry

     iteration # 52     ecut=    30.00 Ry     beta=0.70
     Davidson diagonalization with overlap
     ethr =  1.02E-05,  avg # of iterations = 13.0

     total cpu time spent up to now is        2.3 secs

     total energy              =     -31.59598635 Ry
     Harris-Foulkes estimate   =     -31.59604546 Ry
     estimated scf accuracy    <       0.04632021 Ry

     iteration # 53     ecut=    30.00 Ry     beta=0.70
     Davidson diagonalization with overlap
     ethr =  1.02E-05,  avg # of iterations =  1.0

     total cpu time spent up to now is        2.4 secs

     total energy              =     -31.59586652 Ry
     Harris-Foulkes estimate   =     -31.59598816 Ry
     estimated scf accuracy    <       0.04173555 Ry

     iteration # 54     ecut=    30.00 Ry     beta=0.70
     Davidson diagonalization with overlap
     ethr =  1.02E-05,  avg # of iterations =  1.0

     total cpu time spent up to now is        2.4 secs

     total energy              =     -31.59515717 Ry
     Harris-Foulkes estimate   =     -31.59587370 Ry
     estimated scf accuracy    <       0.03252164 Ry

     iteration # 55     ecut=    30.00 Ry     beta=0.70
     Davidson diagonalization with overlap
     ethr =  1.02E-05,  avg # of iterations =  1.0

     total cpu time spent up to now is        2.4 secs

     total energy              =     -31.59545736 Ry
     Harris-Foulkes estimate   =     -31.59547299 Ry
     estimated scf accuracy    <       0.00043104 Ry

     iteration # 56     ecut=    30.00 Ry     beta=0.70
     Davidson diagonalization with overlap
     ethr =  5.39E-06,  avg # of iterations =  1.0

     total cpu time spent up to now is        2.5 secs

     total energy              =     -31.59546938 Ry
     Harris-Foulkes estimate   =     -31.59546851 Ry
     estimated scf accuracy    <       0.00007849 Ry

     iteration # 57     ecut=    30.00 Ry     beta=0.70
     Davidson diagonalization with overlap
     ethr =  9.81E-07,  avg # of iterations =  1.0

     total cpu time spent up to now is        2.5 secs

     total energy              =     -31.59546914 Ry
     Harris-Foulkes estimate   =     -31.59546964 Ry
     estimated scf accuracy    <       0.00017629 Ry

     iteration # 58     ecut=    30.00 Ry     beta=0.70
     Davidson diagonalization with overlap
     ethr =  9.81E-07,  avg # of iterations =  1.0

     total cpu time spent up to now is        2.5 secs

     total energy              =     -31.59546499 Ry
     Harris-Foulkes estimate   =     -31.59546915 Ry
     estimated scf accuracy    <       0.00017265 Ry

     iteration # 59     ecut=    30.00 Ry     beta=0.70
     Davidson diagonalization with overlap
     ethr =  9.81E-07,  avg # of iterations =  1.0

     total cpu time spent up to now is        2.6 secs

     total energy              =     -31.59546645 Ry
     Harris-Foulkes estimate   =     -31.59546666 Ry
     estimated scf accuracy    <       0.00000272 Ry

     iteration # 60     ecut=    30.00 Ry     beta=0.70
     Davidson diagonalization with overlap
     ethr =  3.40E-08,  avg # of iterations =  1.0

     total cpu time spent up to now is        2.6 secs

     End of self-consistent calculation

          k = 0.0000 0.0000 0.0000 ( 22119 PWs)   bands (ev):

   -23.5731  -7.9166  -6.8970  -6.8961  -6.7588  -6.0649  -0.1406   0.7016

     the Fermi energy is    -6.7268 ev

!    total energy              =     -31.59546641 Ry
     Harris-Foulkes estimate   =     -31.59546649 Ry
     estimated scf accuracy    <          3.2E-09 Ry

     convergence has been achieved in  60 iterations

     Forces acting on atoms (Ry/au):

     atom    1 type  1   force =     0.00012488    0.00017614    0.00022402
     atom    2 type  1   force =    -0.05417812    0.04026838    0.06079887
     atom    3 type  2   force =     0.05405324   -0.04044452   -0.06102290

     Total force =     0.128587     Total SCF correction =     0.000032

     Molecular Dynamics Calculation

     Starting temperature  =  1000.00 K

     temperature is controlled by Andersen thermostat
     Collision frequency = 1.0000/timestep
     mass H                =     1.01
     mass O                =    16.00
     Time step             =   100.00 a.u.,  4.8378 femto-seconds

     Entering Dynamics:    iteration =     1
                           time      =   0.0048 pico-seconds


     Andersen thermostat:    3 collisions

ATOMIC_POSITIONS (bohr)
H        1.507176692  13.267322964  12.038949481
H       11.097557507   3.533034691  11.061926129
O        8.819449866   5.163756701  13.512122333


     kinetic energy (Ekin) =     0.04696799 Ry
     temperature           =  2471.88347530 K 
     Ekin + Etot (const)   =   -31.54849842 Ry

     Linear momentum :    0.0000000000   -0.0000000000    0.0000000000

     Writing output data file pwscf.save
     Check: negative starting charge=   -0.343169
     NEW-OLD atomic charge density approx. for the potential
     Check: negative starting charge=   -0.344850

     negative rho (up, down):  1.670E-01 0.000E+00

     total cpu time spent up to now is        2.9 secs

     per-process dynamical memory:    20.4 Mb

     Self-consistent Calculation

     iteration #  1     ecut=    30.00 Ry     beta=0.70
     Davidson diagonalization with overlap
     ethr =  1.00E-06,  avg # of iterations = 12.0

     negative rho (up, down):  3.782E-02 0.000E+00

     total cpu time spent up to now is        3.0 secs

     total energy              =      -3.45526768 Ry
     Harris-Foulkes estimate   =     -71.48422188 Ry
     estimated scf accuracy    <       5.77970361 Ry

     iteration #  2     ecut=    30.00 Ry     beta=0.70
     Davidson diagonalization with overlap
     ethr =  1.00E-02,  avg # of iterations =  4.0

     negative rho (up, down):  2.399E-02 0.000E+00

     total cpu time spent up to now is        3.0 secs

     total energy              =     -32.15584843 Ry
     Harris-Foulkes estimate   =     -35.11086872 Ry
     estimated scf accuracy    <       5.88184827 Ry

     iteration #  3     ecut=    30.00 Ry     beta=0.70
     Davidson diagonalization with overlap
     ethr =  1.00E-02,  avg # of iterations =  2.0

     negative rho (up, down):  1.906E-02 0.000E+00

     total cpu time spent up to now is        3.0 secs

     total energy              =     -32.10265705 Ry
     Harris-Foulkes estimate   =     -32.78333049 Ry
     estimated scf accuracy    <       3.00641914 Ry

     iteration #  4     ecut=    30.00 Ry     beta=0.70
     Davidson diagonalization with overlap
     ethr =  1.00E-02,  avg # of iterations =  1.0

     negative rho (up, down):  6.093E-03 0.000E+00

     total cpu time spent up to now is        3.1 secs

     total energy              =     -31.27940918 Ry
     Harris-Foulkes estimate   =     -32.22550798 Ry
     estimated scf accuracy    <       1.54603156 Ry

     iteration #  5     ecut=    30.00 Ry     beta=0.70
     Davidson diagonalization with overlap
     ethr =  1.00E-02,  avg # of iterations =  4.0

     negative rho (up, down):  1.194E-02 0.000E+00

     total cpu time spent up to now is        3.1 secs

     total energy              =     -31.51320242 Ry
     Harris-Foulkes estimate   =     -32.42510321 Ry
     estimated scf accuracy    <       2.37394766 Ry

     iteration #  6     ecut=    30.00 Ry     beta=0.70
     Davidson diagonalization with overlap
     ethr =  1.00E-02,  avg # of iterations =  1.0

     negative rho (up, down):  6.162E-03 0.000E+00

     total cpu time spent up to now is        3.1 secs

     total energy              =     -31.59305026 Ry
     Harris-Foulkes estimate   =     -31.96789843 Ry
     estimated scf accuracy    <       1.24717756 Ry

     iteration #  7     ecut=    30.00 Ry     beta=0.70
     Davidson diagonalization with overlap
     ethr =  1.00E-02,  avg # of iterations =  1.0

     negative rho (up, down):  5.981E-03 0.000E+00

     total cpu time spent up to now is        3.2 secs

     total energy              =     -31.76205781 Ry
     Harris-Foulkes estimate   =     -31.79939717 Ry
     estimated scf accuracy    <       1.60352221 Ry

     iteration #  8     ecut=    30.00 Ry     beta=0.70
     Davidson diagonalization with overlap
     ethr =  1.00E-02,  avg # of iterations =  1.0

     negative rho (up, down):  6.035E-03 0.000E+00

     total cpu time spent up to now is        3.2 secs

     total energy              =     -31.67911022 Ry
     Harris-Foulkes estimate   =     -31.76241164 Ry
     estimated scf accuracy    <       1.56663507 Ry

     iteration #  9     ecut=    30.00 Ry     beta=0.70
     Davidson diagonalization with overlap
     ethr =  1.00E-02,  avg # of iterations =  1.0

     negative rho (up, down):  2.472E-03 0.000E+00

     total cpu time spent up to now is        3.2 secs

     total energy              =     -31.64519315 Ry
     Harris-Foulkes estimate   =     -31.70050231 Ry
     estimated scf accuracy    <       0.18313687 Ry

     iteration # 10     ecut=    30.00 Ry     beta=0.70
     Davidson diagonalization with overlap
     ethr =  2.29E-03,  avg # of iterations =  1.0

     negative rho (up, down):  4.355E-06 0.000E+00

     total cpu time spent up to now is        3.3 secs

     total energy              =     -31.84393591 Ry
     Harris-Foulkes estimate   =     -31.73778761 Ry
     estimated scf accuracy    <       1.37594550 Ry

     iteration # 11     ecut=    30.00 Ry     beta=0.70
     Davidson diagonalization with overlap
     ethr =  2.29E-03,  avg # of iterations =  1.0

     negative rho (up, down):  1.485E-04 0.000E+00

     total cpu time spent up to now is        3.3 secs

     total energy              =     -31.56981639 Ry
     Harris-Foulkes estimate   =     -31.84895509 Ry
     estimated scf accuracy    <       1.43521551 Ry

     iteration # 12     ecut=    30.00 Ry     beta=0.70
     Davidson diagonalization with overlap
     ethr =  2.29E-03,  avg # of iterations =  1.0

     negative rho (up, down):  1.096E-04 0.000E+00

     total cpu time spent up to now is        3.3 secs

     total energy              =     -31.81939572 Ry
     Harris-Foulkes estimate   =     -31.73713751 Ry
     estimated scf accuracy    <       1.01624245 Ry

     iteration # 13     ecut=    30.00 Ry     beta=0.70
     Davidson diagonalization with overlap
     ethr =  2.29E-03,  avg # of iterations =  1.0

     negative rho (up, down):  4.025E-05 0.000E+00

     total cpu time spent up to now is        3.4 secs

     total energy              =     -31.71661665 Ry
     Harris-Foulkes estimate   =     -31.82001361 Ry
     estimated scf accuracy    <       1.16487771 Ry

     iteration # 14     ecut=    30.00 Ry     beta=0.70
     Davidson diagonalization with overlap
     ethr =  2.29E-03,  avg # of iterations =  1.0

     negative rho (up, down):  6.323E-07 0.000E+00

     total cpu time spent up to now is        3.4 secs

     total energy              =     -31.45231358 Ry
     Harris-Foulkes estimate   =     -31.71712502 Ry
     estimated scf accuracy    <       0.99363263 Ry

     iteration # 15     ecut=    30.00 Ry     beta=0.70
     Davidson diagonalization with overlap
     ethr =  2.29E-03,  avg # of iterations =  2.0

     negative rho (up, down):  3.176E-07 0.000E+00

     total cpu time spent up to now is        3.4 secs

     total energy              =     -31.85267665 Ry
     Harris-Foulkes estimate   =     -31.93673712 Ry
     estimated scf accuracy    <       1.64046677 Ry

     iteration # 16     ecut=    30.00 Ry     beta=0.70
     Davidson diagonalization with overlap
     ethr =  2.29E-03,  avg # of iterations =  1.0

     total cpu time spent up to now is        3.5 secs

     total energy              =     -31.73079516 Ry
     Harris-Foulkes estimate   =     -31.85322853 Ry
     estimated scf accuracy    <       1.49086891 Ry

     iteration # 17     ecut=    30.00 Ry     beta=0.70
     Davidson diagonalization with overlap
     ethr =  2.29E-03,  avg # of iterations =  1.0

     negative rho (up, down):  1.630E-07 0.000E+00

     total cpu time spent up to now is        3.5 secs

     total energy              =     -31.90765426 Ry
     Harris-Foulkes estimate   =     -31.73190975 Ry
     estimated scf accuracy    <       1.33862843 Ry

     iteration # 18     ecut=    30.00 Ry     beta=0.70
     Davidson diagonalization with overlap
     ethr =  2.29E-03,  avg # of iterations =  1.0

     negative rho (up, down):  2.805E-07 0.000E+00

     total cpu time spent up to now is        3.5 secs

     total energy              =     -31.89642843 Ry
     Harris-Foulkes estimate   =     -31.90546060 Ry
     estimated scf accuracy    <       1.58012569 Ry

     iteration # 19     ecut=    30.00 Ry     beta=0.70
     Davidson diagonalization with overlap
     ethr =  2.29E-03,  avg # of iterations =  1.0

     total cpu time spent up to now is        3.6 secs

     total energy              =     -31.90642702 Ry
     Harris-Foulkes estimate   =     -31.89652088 Ry
     estimated scf accuracy    <       1.56543914 Ry

     iteration # 20     ecut=    30.00 Ry     beta=0.70
     Davidson diagonalization with overlap
     ethr =  2.29E-03,  avg # of iterations =  1.0

     total cpu time spent up to now is        3.6 secs

     total energy              =     -31.88082159 Ry
     Harris-Foulkes estimate   =     -31.90644790 Ry
     estimated scf accuracy    <       1.58603081 Ry

     iteration # 21     ecut=    30.00 Ry     beta=0.70
     Davidson diagonalization with overlap
     ethr =  2.29E-03,  avg # of iterations =  1.0

     total cpu time spent up to now is        3.6 secs

     total energy              =     -31.86850758 Ry
     Harris-Foulkes estimate   =     -31.88086793 Ry
     estimated scf accuracy    <       1.53949188 Ry

     iteration # 22     ecut=    30.00 Ry     beta=0.70
     Davidson diagonalization with overlap
     ethr =  2.29E-03,  avg # of iterations =  1.0

     negative rho (up, down):  1.241E-06 0.000E+00

     total cpu time spent up to now is        3.7 secs

     total energy              =     -31.72974414 Ry
     Harris-Foulkes estimate   =     -31.86852497 Ry
     estimated scf accuracy    <       1.51454922 Ry

     iteration # 23     ecut=    30.00 Ry     beta=0.70
     Davidson diagonalization with overlap
     ethr =  2.29E-03,  avg # of iterations =  1.0

     negative rho (up, down):  2.010E-03 0.000E+00

     total cpu time spent up to now is        3.7 secs

     total energy              =     -31.36630335 Ry
     Harris-Foulkes estimate   =     -31.73122808 Ry
     estimated scf accuracy    <       1.33955760 Ry

     iteration # 24     ecut=    30.00 Ry     beta=0.70
     Davidson diagonalization with overlap
     ethr =  2.29E-03,  avg # of iterations =  1.0

     negative rho (up, down):  6.455E-07 0.000E+00

     total cpu time spent up to now is        3.8 secs

     total energy              =     -31.92814835 Ry
     Harris-Foulkes estimate   =     -31.89522086 Ry
     estimated scf accuracy    <       1.34211389 Ry

     iteration # 25     ecut=    30.00 Ry     beta=0.70
     Davidson diagonalization with overlap
     ethr =  2.29E-03,  avg # of iterations =  1.0

     negative rho (up, down):  7.596E-07 0.000E+00

     total cpu time spent up to now is        3.8 secs

     total energy              =     -31.74810932 Ry
     Harris-Foulkes estimate   =     -31.92995199 Ry
     estimated scf accuracy    <       1.32374701 Ry

     iteration # 26     ecut=    30.00 Ry     beta=0.70
     Davidson diagonalization with overlap
     ethr =  2.29E-03,  avg # of iterations =  1.0

     total cpu time spent up to now is        3.8 secs

     total energy              =     -31.60777740 Ry
     Harris-Foulkes estimate   =     -31.74949375 Ry
     estimated scf accuracy    <       1.03899028 Ry

     iteration # 27     ecut=    30.00 Ry     beta=0.70
     Davidson diagonalization with overlap
     ethr =  2.29E-03,  avg # of iterations =  1.0

     total cpu time spent up to now is        3.9 secs

     total energy              =     -31.73655092 Ry
     Harris-Foulkes estimate   =     -31.71431340 Ry
     estimated scf accuracy    <       1.54165081 Ry

     iteration # 28     ecut=    30.00 Ry     beta=0.70
     Davidson diagonalization with overlap
     ethr =  2.29E-03,  avg # of iterations =  1.0

     total cpu time spent up to now is        3.9 secs

     total energy              =     -31.69725813 Ry
     Harris-Foulkes estimate   =     -31.73554422 Ry
     estimated scf accuracy    <       1.31360188 Ry

     iteration # 29     ecut=    30.00 Ry     beta=0.70
     Davidson diagonalization with overlap
     ethr =  2.29E-03,  avg # of iterations =  1.0

     total cpu time spent up to now is        3.9 secs

     total energy              =     -31.69360821 Ry
     Harris-Foulkes estimate   =     -31.69446255 Ry
     estimated scf accuracy    <       1.44386466 Ry

     iteration # 30     ecut=    30.00 Ry     beta=0.70
     Davidson diagonalization with overlap
     ethr =  2.29E-03,  avg # of iterations =  1.0

     total cpu time spent up to now is        4.0 secs

     total energy              =     -31.61275170 Ry
     Harris-Foulkes estimate   =     -31.69361715 Ry
     estimated scf accuracy    <       1.41519252 Ry

     iteration # 31     ecut=    30.00 Ry     beta=0.70
     Davidson diagonalization with overlap
     ethr =  2.29E-03,  avg # of iterations =  1.0

     total cpu time spent up to now is        4.0 secs

     total energy              =     -31.69571460 Ry
     Harris-Foulkes estimate   =     -31.69020023 Ry
     estimated scf accuracy    <       0.79794223 Ry

     iteration # 32     ecut=    30.00 Ry     beta=0.70
     Davidson diagonalization with overlap
     ethr =  2.29E-03,  avg # of iterations =  1.0

     total cpu time spent up to now is        4.0 secs

     total energy              =     -31.69619077 Ry
     Harris-Foulkes estimate   =     -31.69588324 Ry
     estimated scf accuracy    <       0.88733932 Ry

     iteration # 33     ecut=    30.00 Ry     beta=0.70
     Davidson diagonalization with overlap
     ethr =  2.29E-03,  avg # of iterations =  1.0

     total cpu time spent up to now is        4.1 secs

     total energy              =     -31.69235597 Ry
     Harris-Foulkes estimate   =     -31.69619314 Ry
     estimated scf accuracy    <       0.89036078 Ry

     iteration # 34     ecut=    30.00 Ry     beta=0.70
     Davidson diagonalization with overlap
     ethr =  2.29E-03,  avg # of iterations =  1.0

     total cpu time spent up to now is        4.1 secs

     total energy              =     -31.66213280 Ry
     Harris-Foulkes estimate   =     -31.69240048 Ry
     estimated scf accuracy    <       0.84127653 Ry

     iteration # 35     ecut=    30.00 Ry     beta=0.70
     Davidson diagonalization with overlap
     ethr =  2.29E-03,  avg # of iterations =  1.0

     total cpu time spent up to now is        4.1 secs

     total energy              =     -31.66842363 Ry
     Harris-Foulkes estimate   =     -31.67151123 Ry
     estimated scf accuracy    <       0.02632391 Ry

     iteration # 36     ecut=    30.00 Ry     beta=0.70
     Davidson diagonalization with overlap
     ethr =  3.29E-04,  avg # of iterations =  1.0

     total cpu time spent up to now is        4.2 secs

     total energy              =     -31.66879715 Ry
     Harris-Foulkes estimate   =     -31.67597485 Ry
     estimated scf accuracy    <       0.38896606 Ry

     iteration # 37     ecut=    30.00 Ry     beta=0.70
     Davidson diagonalization with overlap
     ethr =  3.29E-04,  avg # of iterations =  1.0

     total cpu time spent up to now is        4.2 secs

     total energy              =     -31.67005584 Ry
     Harris-Foulkes estimate   =     -31.67145604 Ry
     estimated scf accuracy    <       0.02398527 Ry

     iteration # 38     ecut=    30.00 Ry     beta=0.70
     Davidson diagonalization with overlap
     ethr =  3.00E-04,  avg # of iterations =  1.0

     total cpu time spent up to now is        4.2 secs

     total energy              =     -31.67113993 Ry
     Harris-Foulkes estimate   =     -31.67172428 Ry
     estimated scf accuracy    <       0.04169627 Ry

     iteration # 39     ecut=    30.00 Ry     beta=0.70
     Davidson diagonalization with overlap
     ethr =  3.00E-04,  avg # of iterations =  1.0

     total cpu time spent up to now is        4.3 secs

     total energy              =     -31.67104196 Ry
     Harris-Foulkes estimate   =     -31.67128910 Ry
     estimated scf accuracy    <       0.00958292 Ry

     iteration # 40     ecut=    30.00 Ry     beta=0.70
     Davidson diagonalization with overlap
     ethr =  1.20E-04,  avg # of iterations =  1.0

     total cpu time spent up to now is        4.3 secs

     total energy              =     -31.67116469 Ry
     Harris-Foulkes estimate   =     -31.67116496 Ry
     estimated scf accuracy    <       0.00000085 Ry

     iteration # 41     ecut=    30.00 Ry     beta=0.70
     Davidson diagonalization with overlap
     ethr =  1.06E-08,  avg # of iterations = 13.0

     total cpu time spent up to now is        4.4 secs

     total energy              =     -31.67120138 Ry
     Harris-Foulkes estimate   =     -31.67119708 Ry
     estimated scf accuracy    <       0.00251392 Ry

     iteration # 42     ecut=    30.00 Ry     beta=0.70
     Davidson diagonalization with overlap
     ethr =  1.06E-08,  avg # of iterations =  1.0

     total cpu time spent up to now is        4.4 secs

     total energy              =     -31.67118842 Ry
     Harris-Foulkes estimate   =     -31.67120153 Ry
     estimated scf accuracy    <       0.00285530 Ry

     iteration # 43     ecut=    30.00 Ry     beta=0.70
     Davidson diagonalization with overlap
     ethr =  1.06E-08,  avg # of iterations =  1.0

     total cpu time spent up to now is        4.4 secs

     total energy              =     -31.67114638 Ry
     Harris-Foulkes estimate   =     -31.67118955 Ry
     estimated scf accuracy    <       0.00194503 Ry

     iteration # 44     ecut=    30.00 Ry     beta=0.70
     Davidson diagonalization with overlap
     ethr =  1.06E-08,  avg # of iterations =  2.0

     total cpu time spent up to now is        4.5 secs

     total energy              =     -31.67116337 Ry
     Harris-Foulkes estimate   =     -31.67116482 Ry
     estimated scf accuracy    <       0.00003532 Ry

     iteration # 45     ecut=    30.00 Ry     beta=0.70
     Davidson diagonalization with overlap
     ethr =  1.06E-08,  avg # of iterations =  1.0

     total cpu time spent up to now is        4.5 secs

     total energy              =     -31.67116387 Ry
     Harris-Foulkes estimate   =     -31.67116409 Ry
     estimated scf accuracy    <       0.00000243 Ry

     iteration # 46     ecut=    30.00 Ry     beta=0.70
     Davidson diagonalization with overlap
     ethr =  1.06E-08,  avg # of iterations =  1.0

     total cpu time spent up to now is        4.5 secs

     total energy              =     -31.67116394 Ry
     Harris-Foulkes estimate   =     -31.67116391 Ry
     estimated scf accuracy    <       0.00000002 Ry

     iteration # 47     ecut=    30.00 Ry     beta=0.70
     Davidson diagonalization with overlap
     ethr =  2.28E-10,  avg # of iterations =  1.0

     total cpu time spent up to now is        4.6 secs

     End of self-consistent calculation

          k = 0.0000 0.0000 0.0000 ( 22119 PWs)   bands (ev):

   -23.5719  -8.3651  -6.8926  -6.8923  -6.7567  -5.1665  -0.1218   0.7323

     the Fermi energy is    -6.7233 ev

!    total energy              =     -31.67116394 Ry
     Harris-Foulkes estimate   =     -31.67116394 Ry
     estimated scf accuracy    <          2.7E-10 Ry

     convergence has been achieved in  47 iterations

     Forces acting on atoms (Ry/au):

     atom    1 type  1   force =     0.00024701    0.00006614    0.00014944
     atom    2 type  1   force =    -0.08255457    0.05970170    0.08899187
     atom    3 type  2   force =     0.08230756   -0.05976784   -0.08914131

     Total force =     0.191291     Total SCF correction =     0.000031

     Entering Dynamics:    iteration =     2
                           time      =   0.0097 pico-seconds


     Andersen thermostat:    3 collisions

ATOMIC_POSITIONS (bohr)
H        1.558518379  13.101647959  11.966713424
H       10.580041076   4.482967298  12.287610167
O        8.848877147   5.114250439  13.439310930


     kinetic energy (Ekin) =     0.04776696 Ry
     temperature           =  2513.93230405 K 
     Ekin + Etot (const)   =   -31.62339699 Ry
     Message from routine dynamics:
     Total linear momentum <> 0

     Linear momentum :   -0.0078391091   -0.2253908344   -0.0049964228

     Writing output data file pwscf.save

     first order wave-functions extrapolation
     Check: negative starting charge=   -0.344850
     first order charge density extrapolation
     Check: negative starting charge=   -0.349150

     negative rho (up, down):  2.547E-01 0.000E+00

     total cpu time spent up to now is        4.9 secs

     per-process dynamical memory:    20.4 Mb

     Self-consistent Calculation

     iteration #  1     ecut=    30.00 Ry     beta=0.70
     Davidson diagonalization with overlap
     c_bands:  1 eigenvalues not converged
     ethr =  1.00E-06,  avg # of iterations = 20.0

     negative rho (up, down):  4.990E-02 0.000E+00

     total cpu time spent up to now is        5.0 secs

     total energy              =     -30.49336495 Ry
     Harris-Foulkes estimate   =     -32.12978194 Ry
     estimated scf accuracy    <       0.87465301 Ry

     iteration #  2     ecut=    30.00 Ry     beta=0.70
     Davidson diagonalization with overlap
     ethr =  1.00E-02,  avg # of iterations =  3.0

     negative rho (up, down):  5.367E-03 0.000E+00

     total cpu time spent up to now is        5.0 secs

     total energy              =     -31.06322700 Ry
     Harris-Foulkes estimate   =     -33.48769074 Ry
     estimated scf accuracy    <       9.40341905 Ry

     iteration #  3     ecut=    30.00 Ry     beta=0.70
     Davidson diagonalization with overlap
     ethr =  1.00E-02,  avg # of iterations =  2.0

     negative rho (up, down):  1.262E-02 0.000E+00

     total cpu time spent up to now is        5.0 secs

     total energy              =     -31.95773625 Ry
     Harris-Foulkes estimate   =     -32.17152495 Ry
     estimated scf accuracy    <       1.59921674 Ry

     iteration #  4     ecut=    30.00 Ry     beta=0.70
     Davidson diagonalization with overlap
     ethr =  1.00E-02,  avg # of iterations =  1.0

     negative rho (up, down):  3.556E-02 0.000E+00

     total cpu time spent up to now is        5.1 secs

     total energy              =     -31.82597346 Ry
     Harris-Foulkes estimate   =     -31.96861385 Ry
     estimated scf accuracy    <       1.60135158 Ry

     iteration #  5     ecut=    30.00 Ry     beta=0.70
     Davidson diagonalization with overlap
     ethr =  1.00E-02,  avg # of iterations =  1.0

     negative rho (up, down):  7.118E-03 0.000E+00

     total cpu time spent up to now is        5.1 secs

     total energy              =     -31.89263864 Ry
     Harris-Foulkes estimate   =     -31.94977615 Ry
     estimated scf accuracy    <       1.05244588 Ry

     iteration #  6     ecut=    30.00 Ry     beta=0.70
     Davidson diagonalization with overlap
     ethr =  1.00E-02,  avg # of iterations =  1.0

     negative rho (up, down):  5.811E-02 0.000E+00

     total cpu time spent up to now is        5.1 secs

     total energy              =     -31.83392060 Ry
     Harris-Foulkes estimate   =     -31.93460156 Ry
     estimated scf accuracy    <       0.56480744 Ry

     iteration #  7     ecut=    30.00 Ry     beta=0.70
     Davidson diagonalization with overlap
     ethr =  7.06E-03,  avg # of iterations =  1.0

     negative rho (up, down):  2.631E-02 0.000E+00

     total cpu time spent up to now is        5.2 secs

     total energy              =     -31.97667727 Ry
     Harris-Foulkes estimate   =     -31.99487268 Ry
     estimated scf accuracy    <       1.01774233 Ry

     iteration #  8     ecut=    30.00 Ry     beta=0.70
     Davidson diagonalization with overlap
     ethr =  7.06E-03,  avg # of iterations =  1.0

     total cpu time spent up to now is        5.2 secs

     total energy              =     -31.86248834 Ry
     Harris-Foulkes estimate   =     -31.97695347 Ry
     estimated scf accuracy    <       0.97176552 Ry

     iteration #  9     ecut=    30.00 Ry     beta=0.70
     Davidson diagonalization with overlap
     ethr =  7.06E-03,  avg # of iterations =  1.0

     total cpu time spent up to now is        5.2 secs

     total energy              =     -31.94724681 Ry
     Harris-Foulkes estimate   =     -31.99376861 Ry
     estimated scf accuracy    <       1.34598290 Ry

     iteration # 10     ecut=    30.00 Ry     beta=0.70
     Davidson diagonalization with overlap
     ethr =  7.06E-03,  avg # of iterations =  1.0

     total cpu time spent up to now is        5.3 secs

     total energy              =     -31.91989884 Ry
     Harris-Foulkes estimate   =     -31.94621139 Ry
     estimated scf accuracy    <       0.81780164 Ry

     iteration # 11     ecut=    30.00 Ry     beta=0.70
     Davidson diagonalization with overlap
     ethr =  7.06E-03,  avg # of iterations =  1.0

     total cpu time spent up to now is        5.4 secs

     total energy              =     -31.93691927 Ry
     Harris-Foulkes estimate   =     -31.93627155 Ry
     estimated scf accuracy    <       0.05027993 Ry

     iteration # 12     ecut=    30.00 Ry     beta=0.70
     Davidson diagonalization with overlap
     ethr =  6.28E-04,  avg # of iterations =  3.0

     total cpu time spent up to now is        5.4 secs

     total energy              =     -31.93513800 Ry
     Harris-Foulkes estimate   =     -31.93704560 Ry
     estimated scf accuracy    <       0.09961664 Ry

     iteration # 13     ecut=    30.00 Ry     beta=0.70
     Davidson diagonalization with overlap
     ethr =  6.28E-04,  avg # of iterations =  1.0

     total cpu time spent up to now is        5.4 secs

     total energy              =     -31.93535981 Ry
     Harris-Foulkes estimate   =     -31.93576459 Ry
     estimated scf accuracy    <       0.01030105 Ry

     iteration # 14     ecut=    30.00 Ry     beta=0.70
     Davidson diagonalization with overlap
     ethr =  1.29E-04,  avg # of iterations =  3.0

     total cpu time spent up to now is        5.5 secs

     total energy              =     -31.93565540 Ry
     Harris-Foulkes estimate   =     -31.93565428 Ry
     estimated scf accuracy    <       0.00249734 Ry

     iteration # 15     ecut=    30.00 Ry     beta=0.70
     Davidson diagonalization with overlap
     ethr =  3.12E-05,  avg # of iterations =  1.0

     total cpu time spent up to now is        5.5 secs

     total energy              =     -31.93561690 Ry
     Harris-Foulkes estimate   =     -31.93565549 Ry
     estimated scf accuracy    <       0.00258953 Ry

     iteration # 16     ecut=    30.00 Ry     beta=0.70
     Davidson diagonalization with overlap
     ethr =  3.12E-05,  avg # of iterations =  1.0

     total cpu time spent up to now is        5.5 secs

     total energy              =     -31.93561197 Ry
     Harris-Foulkes estimate   =     -31.93562846 Ry
     estimated scf accuracy    <       0.00043226 Ry

     iteration # 17     ecut=    30.00 Ry     beta=0.70
     Davidson diagonalization with overlap
     ethr =  5.40E-06,  avg # of iterations =  5.0

     total cpu time spent up to now is        5.6 secs

     total energy              =     -31.93562113 Ry
     Harris-Foulkes estimate   =     -31.93562466 Ry
     estimated scf accuracy    <       0.00011525 Ry

     iteration # 18     ecut=    30.00 Ry     beta=0.70
     Davidson diagonalization with overlap
     ethr =  1.44E-06,  avg # of iterations =  3.0

     total cpu time spent up to now is        5.6 secs

     total energy              =     -31.93562288 Ry
     Harris-Foulkes estimate   =     -31.93562294 Ry
     estimated scf accuracy    <       0.00000134 Ry

     iteration # 19     ecut=    30.00 Ry     beta=0.70
     Davidson diagonalization with overlap
     ethr =  1.68E-08,  avg # of iterations =  1.0

     total cpu time spent up to now is        5.6 secs

     End of self-consistent calculation

          k = 0.0000 0.0000 0.0000 ( 22119 PWs)   bands (ev):

   -24.3692 -10.3241  -6.9828  -6.9822  -6.8432  -0.9687   0.2344   0.8120

     the Fermi energy is    -6.8122 ev

!    total energy              =     -31.93562288 Ry
     Harris-Foulkes estimate   =     -31.93562290 Ry
     estimated scf accuracy    <          3.0E-09 Ry

     convergence has been achieved in  19 iterations

     Forces acting on atoms (Ry/au):

     atom    1 type  1   force =     0.00014944   -0.00039469   -0.00032171
     atom    2 type  1   force =    -0.09731773    0.03529141    0.06354337
     atom    3 type  2   force =     0.09716829   -0.03489672   -0.06322166

     Total force =     0.171495     Total SCF correction =     0.000068

     Entering Dynamics:    iteration =     3
                           time      =   0.0145 pico-seconds


     Andersen thermostat:    3 collisions

ATOMIC_POSITIONS (bohr)
H        1.492891183  13.053183651  11.812560915
H        9.459313271   5.046172768  12.926928885
O        8.923765806   5.081757404  13.408684813


     kinetic energy (Ekin) =     0.03017132 Ry
     temperature           =  1587.88985408 K 
     Ekin + Etot (const)   =   -31.90545156 Ry
     Message from routine dynamics:
     Total linear momentum <> 0

     Linear momentum :    0.1951321101    0.0082996710   -0.1386521312

     Writing output data file pwscf.save

     second order wave-functions extrapolation
     Check: negative starting charge=   -0.349150
     second order charge density extrapolation
     Check: negative starting charge=   -0.351071

     negative rho (up, down):  2.635E-01 0.000E+00

     total cpu time spent up to now is        5.9 secs

     per-process dynamical memory:    20.4 Mb

     Self-consistent Calculation

     iteration #  1     ecut=    30.00 Ry     beta=0.70
     Davidson diagonalization with overlap
     c_bands:  1 eigenvalues not converged
     ethr =  1.00E-06,  avg # of iterations = 20.0

     negative rho (up, down):  5.579E-02 0.000E+00

     total cpu time spent up to now is        6.0 secs

     total energy              =      -5.33771668 Ry
     Harris-Foulkes estimate   =     -39.83932317 Ry
     estimated scf accuracy    <       6.91592100 Ry

     iteration #  2     ecut=    30.00 Ry     beta=0.70
     Davidson diagonalization with overlap
     ethr =  1.00E-02,  avg # of iterations =  3.0

     negative rho (up, down):  3.282E-02 0.000E+00

     total cpu time spent up to now is        6.1 secs

     total energy              =     -27.56846624 Ry
     Harris-Foulkes estimate   =     -30.18717868 Ry
     estimated scf accuracy    <       5.37879092 Ry

     iteration #  3     ecut=    30.00 Ry     beta=0.70
     Davidson diagonalization with overlap
     ethr =  1.00E-02,  avg # of iterations =  2.0

     negative rho (up, down):  2.793E-02 0.000E+00

     total cpu time spent up to now is        6.1 secs

     total energy              =     -27.94098523 Ry
     Harris-Foulkes estimate   =     -28.78973772 Ry
     estimated scf accuracy    <       3.46175724 Ry

     iteration #  4     ecut=    30.00 Ry     beta=0.70
     Davidson diagonalization with overlap
     ethr =  1.00E-02,  avg # of iterations =  1.0

     negative rho (up, down):  1.750E-02 0.000E+00

     total cpu time spent up to now is        6.1 secs

     total energy              =     -27.21634595 Ry
     Harris-Foulkes estimate   =     -27.96419700 Ry
     estimated scf accuracy    <       2.13713547 Ry

     iteration #  5     ecut=    30.00 Ry     beta=0.70
     Davidson diagonalization with overlap
     ethr =  1.00E-02,  avg # of iterations =  1.0

     negative rho (up, down):  3.927E-03 0.000E+00

     total cpu time spent up to now is        6.2 secs

     total energy              =     -27.31394370 Ry
     Harris-Foulkes estimate   =     -28.00967119 Ry
     estimated scf accuracy    <       2.59520934 Ry

     iteration #  6     ecut=    30.00 Ry     beta=0.70
     Davidson diagonalization with overlap
     ethr =  1.00E-02,  avg # of iterations =  1.0

     negative rho (up, down):  3.441E-03 0.000E+00

     total cpu time spent up to now is        6.2 secs

     total energy              =     -27.23496677 Ry
     Harris-Foulkes estimate   =     -27.33333409 Ry
     estimated scf accuracy    <       1.52904626 Ry

     iteration #  7     ecut=    30.00 Ry     beta=0.70
     Davidson diagonalization with overlap
     ethr =  1.00E-02,  avg # of iterations =  1.0

     negative rho (up, down):  1.483E-03 0.000E+00

     total cpu time spent up to now is        6.2 secs

     total energy              =     -27.18894912 Ry
     Harris-Foulkes estimate   =     -27.23966689 Ry
     estimated scf accuracy    <       0.19164794 Ry

     iteration #  8     ecut=    30.00 Ry     beta=0.70
     Davidson diagonalization with overlap
     ethr =  2.40E-03,  avg # of iterations =  1.0

     negative rho (up, down):  2.746E-04 0.000E+00

     total cpu time spent up to now is        6.3 secs

     total energy              =     -27.24463690 Ry
     Harris-Foulkes estimate   =     -27.33485172 Ry
     estimated scf accuracy    <       0.99108111 Ry

     iteration #  9     ecut=    30.00 Ry     beta=0.70
     Davidson diagonalization with overlap
     ethr =  2.40E-03,  avg # of iterations =  1.0

     negative rho (up, down):  2.262E-05 0.000E+00

     total cpu time spent up to now is        6.3 secs

     total energy              =     -27.15514941 Ry
     Harris-Foulkes estimate   =     -27.24767458 Ry
     estimated scf accuracy    <       0.54311802 Ry

     iteration # 10     ecut=    30.00 Ry     beta=0.70
     Davidson diagonalization with overlap
     ethr =  2.40E-03,  avg # of iterations =  1.0

     total cpu time spent up to now is        6.3 secs

     total energy              =     -27.30026349 Ry
     Harris-Foulkes estimate   =     -27.36118231 Ry
     estimated scf accuracy    <       1.53401162 Ry

     iteration # 11     ecut=    30.00 Ry     beta=0.70
     Davidson diagonalization with overlap
     ethr =  2.40E-03,  avg # of iterations =  1.0

     total cpu time spent up to now is        6.4 secs

     total energy              =     -27.22285781 Ry
     Harris-Foulkes estimate   =     -27.30012889 Ry
     estimated scf accuracy    <       1.57946828 Ry

     iteration # 12     ecut=    30.00 Ry     beta=0.70
     Davidson diagonalization with overlap
     ethr =  2.40E-03,  avg # of iterations =  1.0

     total cpu time spent up to now is        6.4 secs

     total energy              =     -27.24157361 Ry
     Harris-Foulkes estimate   =     -27.24082448 Ry
     estimated scf accuracy    <       0.00091260 Ry

     iteration # 13     ecut=    30.00 Ry     beta=0.70
     Davidson diagonalization with overlap
     ethr =  1.14E-05,  avg # of iterations =  8.0

     total cpu time spent up to now is        6.5 secs

     total energy              =     -27.22868589 Ry
     Harris-Foulkes estimate   =     -27.24939264 Ry
     estimated scf accuracy    <       0.46985282 Ry

     iteration # 14     ecut=    30.00 Ry     beta=0.70
     Davidson diagonalization with overlap
     ethr =  1.14E-05,  avg # of iterations =  8.0

     total cpu time spent up to now is        6.5 secs

     total energy              =     -27.24042251 Ry
     Harris-Foulkes estimate   =     -27.24213061 Ry
     estimated scf accuracy    <       0.10971275 Ry

     iteration # 15     ecut=    30.00 Ry     beta=0.70
     Davidson diagonalization with overlap
     ethr =  1.14E-05,  avg # of iterations =  1.0

     total cpu time spent up to now is        6.5 secs

     total energy              =     -27.24101147 Ry
     Harris-Foulkes estimate   =     -27.24097468 Ry
     estimated scf accuracy    <       0.01354454 Ry

     iteration # 16     ecut=    30.00 Ry     beta=0.70
     Davidson diagonalization with overlap
     ethr =  1.14E-05,  avg # of iterations =  1.0

     total cpu time spent up to now is        6.6 secs

     total energy              =     -27.24052562 Ry
     Harris-Foulkes estimate   =     -27.24101375 Ry
     estimated scf accuracy    <       0.01668850 Ry

     iteration # 17     ecut=    30.00 Ry     beta=0.70
     Davidson diagonalization with overlap
     ethr =  1.14E-05,  avg # of iterations =  1.0

     total cpu time spent up to now is        6.6 secs

     total energy              =     -27.24078540 Ry
     Harris-Foulkes estimate   =     -27.24081582 Ry
     estimated scf accuracy    <       0.00056724 Ry

     iteration # 18     ecut=    30.00 Ry     beta=0.70
     Davidson diagonalization with overlap
     ethr =  7.09E-06,  avg # of iterations =  1.0

     total cpu time spent up to now is        6.6 secs

     total energy              =     -27.24080490 Ry
     Harris-Foulkes estimate   =     -27.24081688 Ry
     estimated scf accuracy    <       0.00069628 Ry

     iteration # 19     ecut=    30.00 Ry     beta=0.70
     Davidson diagonalization with overlap
     ethr =  7.09E-06,  avg # of iterations =  1.0

     total cpu time spent up to now is        6.7 secs

     total energy              =     -27.24080854 Ry
     Harris-Foulkes estimate   =     -27.24080874 Ry
     estimated scf accuracy    <       0.00007840 Ry

     iteration # 20     ecut=    30.00 Ry     beta=0.70
     Davidson diagonalization with overlap
     ethr =  9.80E-07,  avg # of iterations =  1.0

     total cpu time spent up to now is        6.7 secs

     total energy              =     -27.24080688 Ry
     Harris-Foulkes estimate   =     -27.24080855 Ry
     estimated scf accuracy    <       0.00006633 Ry

     iteration # 21     ecut=    30.00 Ry     beta=0.70
     Davidson diagonalization with overlap
     ethr =  8.29E-07,  avg # of iterations =  1.0

     total cpu time spent up to now is        6.7 secs

     total energy              =     -27.24080748 Ry
     Harris-Foulkes estimate   =     -27.24080755 Ry
     estimated scf accuracy    <       0.00000064 Ry

     iteration # 22     ecut=    30.00 Ry     beta=0.70
     Davidson diagonalization with overlap
     ethr =  8.04E-09,  avg # of iterations =  1.0

     total cpu time spent up to now is        6.8 secs

     total energy              =     -27.24080744 Ry
     Harris-Foulkes estimate   =     -27.24080748 Ry
     estimated scf accuracy    <       0.00000065 Ry

     iteration # 23     ecut=    30.00 Ry     beta=0.70
     Davidson diagonalization with overlap
     ethr =  8.04E-09,  avg # of iterations =  1.0

     total cpu time spent up to now is        6.8 secs

     End of self-consistent calculation

          k = 0.0000 0.0000 0.0000 ( 22119 PWs)   bands (ev):

   -31.2469 -11.8020  -7.5383  -7.5373  -7.3772  -0.3073   0.6823   0.7746

     the Fermi energy is    -7.3602 ev

!    total energy              =     -27.24080745 Ry
     Harris-Foulkes estimate   =     -27.24080745 Ry
     estimated scf accuracy    <          1.2E-10 Ry

     convergence has been achieved in  23 iterations

     Forces acting on atoms (Ry/au):

     atom    1 type  1   force =     0.00063396   -0.00034470   -0.00073375
     atom    2 type  1   force =    13.92432125   -0.92609852  -12.52659912
     atom    3 type  2   force =   -13.92495521    0.92644322   12.52733287

     Total force =    26.520875     Total SCF correction =     0.000003

     Entering Dynamics:    iteration =     4
                           time      =   0.0194 pico-seconds


     Andersen thermostat:    3 collisions

ATOMIC_POSITIONS (bohr)
H        1.805523777  13.123761739  11.812948829
H      161.031658007  -5.359405727-122.681642646
O       -0.663973388   5.734154304  21.968951404


     kinetic energy (Ekin) =   507.18822234 Ry
     temperature           = ************** K 
     Ekin + Etot (const)   =   479.94741489 Ry
     Message from routine dynamics:
     Total linear momentum <> 0

     Linear momentum :   -0.5321489576    0.3050016088   -0.0684092955

     Writing output data file pwscf.save

     second order wave-functions extrapolation
     Check: negative starting charge=   -0.351071
     second order charge density extrapolation
     Check: negative starting charge=   -0.354788

     negative rho (up, down):  1.077E+02 0.000E+00

     total cpu time spent up to now is        7.1 secs

     per-process dynamical memory:    20.4 Mb

     Self-consistent Calculation

     iteration #  1     ecut=    30.00 Ry     beta=0.70
     Davidson diagonalization with overlap
     c_bands:  4 eigenvalues not converged
     ethr =  1.00E-06,  avg # of iterations = 20.0

     negative rho (up, down):  3.167E+01 0.000E+00

     total cpu time spent up to now is        7.2 secs

     total energy              =    -329.21454377 Ry
     Harris-Foulkes estimate   =  -26138.35851826 Ry
     estimated scf accuracy    <    4328.46012925 Ry

     iteration #  2     ecut=    30.00 Ry     beta=0.70
     Davidson diagonalization with overlap
     c_bands:  2 eigenvalues not converged
     ethr =  1.00E-02,  avg # of iterations = 20.0

     negative rho (up, down):  5.396E-01 0.000E+00

     total cpu time spent up to now is        7.3 secs

     total energy              =     144.27684925 Ry
     Harris-Foulkes estimate   =   -2137.34476203 Ry
     estimated scf accuracy    <     419.12658423 Ry

     iteration #  3     ecut=    30.00 Ry     beta=0.70
     Davidson diagonalization with overlap
     ethr =  1.00E-02,  avg # of iterations = 11.0

     negative rho (up, down):  1.072E-01 0.000E+00

     total cpu time spent up to now is        7.4 secs

     total energy              =      77.45628017 Ry
     Harris-Foulkes estimate   =    -269.57965515 Ry
     estimated scf accuracy    <      48.12933575 Ry

     iteration #  4     ecut=    30.00 Ry     beta=0.70
     Davidson diagonalization with overlap
     ethr =  1.00E-02,  avg # of iterations =  9.0

     negative rho (up, down):  6.740E-02 0.000E+00

     total cpu time spent up to now is        7.5 secs

     total energy              =      24.32071874 Ry
     Harris-Foulkes estimate   =    -188.36378028 Ry
     estimated scf accuracy    <      31.30753594 Ry

     iteration #  5     ecut=    30.00 Ry     beta=0.70
     Davidson diagonalization with overlap
     ethr =  1.00E-02,  avg # of iterations =  3.0

     negative rho (up, down):  8.191E-03 0.000E+00

     total cpu time spent up to now is        7.5 secs

     total energy              =      -8.88636597 Ry
     Harris-Foulkes estimate   =   -1219.75964176 Ry
     estimated scf accuracy    <      27.78573043 Ry

     iteration #  6     ecut=    30.00 Ry     beta=0.70
     Davidson diagonalization with overlap
     ethr =  1.00E-02,  avg # of iterations =  6.0

     negative rho (up, down):  1.186E-01 0.000E+00

     total cpu time spent up to now is        7.5 secs

     total energy              =      28.77629650 Ry
     Harris-Foulkes estimate   =    -103.85420281 Ry
     estimated scf accuracy    <      18.23503389 Ry

     iteration #  7     ecut=    30.00 Ry     beta=0.70
     Davidson diagonalization with overlap
     ethr =  1.00E-02,  avg # of iterations =  9.0

     negative rho (up, down):  1.067E-04 0.000E+00

     total cpu time spent up to now is        7.6 secs

     total energy              =      77.51808949 Ry
     Harris-Foulkes estimate   =    -156.04798545 Ry
     estimated scf accuracy    <      15.58784603 Ry

     iteration #  8     ecut=    30.00 Ry     beta=0.70
     Davidson diagonalization with overlap
     ethr =  1.00E-02,  avg # of iterations =  9.0

     negative rho (up, down):  7.487E-01 0.000E+00

     total cpu time spent up to now is        7.6 secs

     total energy              =     -56.95445707 Ry
     Harris-Foulkes estimate   =     -62.44782049 Ry
     estimated scf accuracy    <      43.51022925 Ry

     iteration #  9     ecut=    30.00 Ry     beta=0.70
     Davidson diagonalization with overlap
     ethr =  1.00E-02,  avg # of iterations =  9.0

     negative rho (up, down):  1.069E+00 0.000E+00

     total cpu time spent up to now is        7.7 secs

     total energy              =   -7058.38069507 Ry
     Harris-Foulkes estimate   =   -1438.80934307 Ry
     estimated scf accuracy    <      48.17358245 Ry

     iteration # 10     ecut=    30.00 Ry     beta=0.70
     Davidson diagonalization with overlap
     ethr =  1.00E-02,  avg # of iterations =  9.0

     negative rho (up, down):  9.037E-01 0.000E+00

     total cpu time spent up to now is        7.8 secs

     total energy              =    -374.69399750 Ry
     Harris-Foulkes estimate   =  -25763.69330357 Ry
     estimated scf accuracy    <      41.91175661 Ry

     iteration # 11     ecut=    30.00 Ry     beta=0.70
     Davidson diagonalization with overlap
     ethr =  1.00E-02,  avg # of iterations =  7.0

     negative rho (up, down):  5.696E-01 0.000E+00

     total cpu time spent up to now is        7.8 secs

     total energy              =    -547.09454326 Ry
     Harris-Foulkes estimate   =   -5422.45578612 Ry
     estimated scf accuracy    <      40.47155611 Ry

     iteration # 12     ecut=    30.00 Ry     beta=0.70
     Davidson diagonalization with overlap
     ethr =  1.00E-02,  avg # of iterations =  9.0

     negative rho (up, down):  3.137E-01 0.000E+00

     total cpu time spent up to now is        7.9 secs

     total energy              =     128.54762588 Ry
     Harris-Foulkes estimate   =   -1680.18527743 Ry
     estimated scf accuracy    <      34.53057441 Ry

     iteration # 13     ecut=    30.00 Ry     beta=0.70
     Davidson diagonalization with overlap
     ethr =  1.00E-02,  avg # of iterations = 11.0

     negative rho (up, down):  1.747E-01 0.000E+00

     total cpu time spent up to now is        7.9 secs

     total energy              =    -241.36279530 Ry
     Harris-Foulkes estimate   =     -80.36928817 Ry
     estimated scf accuracy    <      16.09835495 Ry

     iteration # 14     ecut=    30.00 Ry     beta=0.70
     Davidson diagonalization with overlap
     ethr =  1.00E-02,  avg # of iterations =  5.0

     negative rho (up, down):  1.857E-01 0.000E+00

     total cpu time spent up to now is        8.0 secs

     total energy              =     -46.11864965 Ry
     Harris-Foulkes estimate   =   -1861.86557672 Ry
     estimated scf accuracy    <      17.50998955 Ry

     iteration # 15     ecut=    30.00 Ry     beta=0.70
     Davidson diagonalization with overlap
     ethr =  1.00E-02,  avg # of iterations =  5.0

     negative rho (up, down):  5.528E-02 0.000E+00

     total cpu time spent up to now is        8.0 secs

     total energy              =   -1815.97561680 Ry
     Harris-Foulkes estimate   =   -1322.75888747 Ry
     estimated scf accuracy    <      42.50401678 Ry

     iteration # 16     ecut=    30.00 Ry     beta=0.70
     Davidson diagonalization with overlap
     ethr =  1.00E-02,  avg # of iterations =  5.0

     negative rho (up, down):  4.236E-02 0.000E+00

     total cpu time spent up to now is        8.1 secs

     total energy              =      45.82551215 Ry
     Harris-Foulkes estimate   =   -3044.57608694 Ry
     estimated scf accuracy    <       8.62414567 Ry

     iteration # 17     ecut=    30.00 Ry     beta=0.70
     Davidson diagonalization with overlap
     ethr =  1.00E-02,  avg # of iterations =  7.0

     negative rho (up, down):  8.261E-02 0.000E+00

     total cpu time spent up to now is        8.1 secs

     total energy              =     -73.36104881 Ry
     Harris-Foulkes estimate   =    -229.58267215 Ry
     estimated scf accuracy    <      20.21421706 Ry

     iteration # 18     ecut=    30.00 Ry     beta=0.70
     Davidson diagonalization with overlap
     ethr =  1.00E-02,  avg # of iterations =  5.0

     negative rho (up, down):  1.151E-01 0.000E+00

     total cpu time spent up to now is        8.2 secs

     total energy              =      86.99696468 Ry
     Harris-Foulkes estimate   =   -2564.55402033 Ry
     estimated scf accuracy    <      16.03979292 Ry

     iteration # 19     ecut=    30.00 Ry     beta=0.70
     Davidson diagonalization with overlap
     ethr =  1.00E-02,  avg # of iterations =  7.0

     negative rho (up, down):  6.417E-02 0.000E+00

     total cpu time spent up to now is        8.2 secs

     total energy              =      72.60266324 Ry
     Harris-Foulkes estimate   =    -290.43560557 Ry
     estimated scf accuracy    <      22.48694414 Ry

     iteration # 20     ecut=    30.00 Ry     beta=0.70
     Davidson diagonalization with overlap
     ethr =  1.00E-02,  avg # of iterations =  7.0

     negative rho (up, down):  1.902E-01 0.000E+00

     total cpu time spent up to now is        8.3 secs

     total energy              =     -10.59817843 Ry
     Harris-Foulkes estimate   =   -1139.84389419 Ry
     estimated scf accuracy    <      12.83059858 Ry

     iteration # 21     ecut=    30.00 Ry     beta=0.70
     Davidson diagonalization with overlap
     ethr =  1.00E-02,  avg # of iterations =  9.0

     negative rho (up, down):  8.163E-02 0.000E+00

     total cpu time spent up to now is        8.3 secs

     total energy              =      37.72110340 Ry
     Harris-Foulkes estimate   =   -1912.88572997 Ry
     estimated scf accuracy    <      41.75314986 Ry

     iteration # 22     ecut=    30.00 Ry     beta=0.70
     Davidson diagonalization with overlap
     ethr =  1.00E-02,  avg # of iterations = 15.0

     negative rho (up, down):  8.881E-02 0.000E+00

     total cpu time spent up to now is        8.4 secs

     total energy              =      19.02907134 Ry
     Harris-Foulkes estimate   =  -15089.32560188 Ry
     estimated scf accuracy    <      10.57963563 Ry

     iteration # 23     ecut=    30.00 Ry     beta=0.70
     Davidson diagonalization with overlap
     ethr =  1.00E-02,  avg # of iterations =  7.0

     negative rho (up, down):  1.171E-02 0.000E+00

     total cpu time spent up to now is        8.5 secs

     total energy              =      35.57080126 Ry
     Harris-Foulkes estimate   =   -2332.40976488 Ry
     estimated scf accuracy    <       7.54264227 Ry

     iteration # 24     ecut=    30.00 Ry     beta=0.70
     Davidson diagonalization with overlap
[...]
     Harris-Foulkes estimate   =   -5614.87085786 Ry
     estimated scf accuracy    <      21.23257507 Ry

     iteration # 59     ecut=    30.00 Ry     beta=0.70
     Davidson diagonalization with overlap
     ethr =  1.00E-02,  avg # of iterations =  6.0

     negative rho (up, down):  8.794E-02 0.000E+00

     total cpu time spent up to now is       10.4 secs

     total energy              =     -35.03102402 Ry
     Harris-Foulkes estimate   =    -111.05340713 Ry
     estimated scf accuracy    <      38.71962616 Ry

     iteration # 60     ecut=    30.00 Ry     beta=0.70
     Davidson diagonalization with overlap
     ethr =  1.00E-02,  avg # of iterations =  7.0

     negative rho (up, down):  1.076E-01 0.000E+00

     total cpu time spent up to now is       10.5 secs

     total energy              =    -144.85307829 Ry
     Harris-Foulkes estimate   =    -715.56968965 Ry
     estimated scf accuracy    <      18.19687607 Ry

     iteration # 61     ecut=    30.00 Ry     beta=0.70
     Davidson diagonalization with overlap
     ethr =  1.00E-02,  avg # of iterations =  7.0

     negative rho (up, down):  1.045E-01 0.000E+00

     total cpu time spent up to now is       10.5 secs

     total energy              =       6.81533754 Ry
     Harris-Foulkes estimate   =    -846.58322394 Ry
     estimated scf accuracy    <      28.46975810 Ry

     iteration # 62     ecut=    30.00 Ry     beta=0.70
     Davidson diagonalization with overlap
     ethr =  1.00E-02,  avg # of iterations =  4.0

     negative rho (up, down):  4.261E-01 0.000E+00

     total cpu time spent up to now is       10.5 secs

     total energy              =     -49.40750399 Ry
     Harris-Foulkes estimate   =    -174.31990249 Ry
     estimated scf accuracy    <      35.61035496 Ry

     iteration # 63     ecut=    30.00 Ry     beta=0.70
     Davidson diagonalization with overlap
     ethr =  1.00E-02,  avg # of iterations =  5.0

     negative rho (up, down):  5.746E-01 0.000E+00

     total cpu time spent up to now is       10.6 secs

     total energy              =    -220.98956004 Ry
     Harris-Foulkes estimate   =    -189.48797468 Ry
     estimated scf accuracy    <      33.09822271 Ry

     iteration # 64     ecut=    30.00 Ry     beta=0.70
     Davidson diagonalization with overlap
     ethr =  1.00E-02,  avg # of iterations =  6.0

     negative rho (up, down):  5.295E-01 0.000E+00

     total cpu time spent up to now is       10.6 secs

     total energy              =     130.04210800 Ry
     Harris-Foulkes estimate   =  -17531.31832400 Ry
     estimated scf accuracy    <      39.71919715 Ry

     iteration # 65     ecut=    30.00 Ry     beta=0.70
     Davidson diagonalization with overlap
     ethr =  1.00E-02,  avg # of iterations =  8.0

     negative rho (up, down):  3.386E-01 0.000E+00

     total cpu time spent up to now is       10.7 secs

     total energy              =     108.36861854 Ry
     Harris-Foulkes estimate   =    -664.82335313 Ry
     estimated scf accuracy    <      27.79916451 Ry

     iteration # 66     ecut=    30.00 Ry     beta=0.70
     Davidson diagonalization with overlap
     ethr =  1.00E-02,  avg # of iterations = 11.0

     negative rho (up, down):  3.529E-02 0.000E+00

     total cpu time spent up to now is       10.8 secs

     total energy              =     -58.13577044 Ry
     Harris-Foulkes estimate   =     -92.87003019 Ry
     estimated scf accuracy    <      53.06612730 Ry

     iteration # 67     ecut=    30.00 Ry     beta=0.70
     Davidson diagonalization with overlap
     ethr =  1.00E-02,  avg # of iterations =  7.0

     negative rho (up, down):  5.868E-02 0.000E+00

     total cpu time spent up to now is       10.8 secs

     total energy              =      34.68729920 Ry
     Harris-Foulkes estimate   =   -3674.06481620 Ry
     estimated scf accuracy    <      19.92174189 Ry

     iteration # 68     ecut=    30.00 Ry     beta=0.70
     Davidson diagonalization with overlap
     ethr =  1.00E-02,  avg # of iterations = 10.0

     negative rho (up, down):  2.673E-01 0.000E+00

     total cpu time spent up to now is       10.9 secs

     total energy              =       0.00510405 Ry
     Harris-Foulkes estimate   =    -662.85148101 Ry
     estimated scf accuracy    <      17.53210867 Ry

     iteration # 69     ecut=    30.00 Ry     beta=0.70
     Davidson diagonalization with overlap
     ethr =  1.00E-02,  avg # of iterations = 12.0

     negative rho (up, down):  2.245E-01 0.000E+00

     total cpu time spent up to now is       10.9 secs

     total energy              =     108.60406528 Ry
     Harris-Foulkes estimate   =   -1186.19908768 Ry
     estimated scf accuracy    <      17.93720919 Ry

     iteration # 70     ecut=    30.00 Ry     beta=0.70
     Davidson diagonalization with overlap
     ethr =  1.00E-02,  avg # of iterations =  7.0

     negative rho (up, down):  1.718E-03 0.000E+00

     total cpu time spent up to now is       11.0 secs

     total energy              =       9.42581006 Ry
     Harris-Foulkes estimate   =    -108.47539504 Ry
     estimated scf accuracy    <      27.76672556 Ry

     iteration # 71     ecut=    30.00 Ry     beta=0.70
     Davidson diagonalization with overlap
     ethr =  1.00E-02,  avg # of iterations =  5.0

     negative rho (up, down):  1.205E-02 0.000E+00

     total cpu time spent up to now is       11.0 secs

     total energy              =     -10.68791841 Ry
     Harris-Foulkes estimate   =    -314.65925090 Ry
     estimated scf accuracy    <      22.69933328 Ry

     iteration # 72     ecut=    30.00 Ry     beta=0.70
     Davidson diagonalization with overlap
     ethr =  1.00E-02,  avg # of iterations =  4.0

     negative rho (up, down):  4.044E-02 0.000E+00

     total cpu time spent up to now is       11.1 secs

     total energy              =    -169.25023971 Ry
     Harris-Foulkes estimate   =     -71.65878675 Ry
     estimated scf accuracy    <      40.07074436 Ry

     iteration # 73     ecut=    30.00 Ry     beta=0.70
     Davidson diagonalization with overlap
     ethr =  1.00E-02,  avg # of iterations =  3.0

     negative rho (up, down):  5.497E-02 0.000E+00

     total cpu time spent up to now is       11.1 secs

     total energy              =     -35.29544850 Ry
     Harris-Foulkes estimate   =    -752.04320387 Ry
     estimated scf accuracy    <      37.18483560 Ry

     iteration # 74     ecut=    30.00 Ry     beta=0.70
     Davidson diagonalization with overlap
     ethr =  1.00E-02,  avg # of iterations = 11.0

     negative rho (up, down):  6.955E-02 0.000E+00

     total cpu time spent up to now is       11.2 secs

     total energy              =      -2.40538956 Ry
     Harris-Foulkes estimate   =    -103.86109131 Ry
     estimated scf accuracy    <      26.59482611 Ry

     iteration # 75     ecut=    30.00 Ry     beta=0.70
     Davidson diagonalization with overlap
     ethr =  1.00E-02,  avg # of iterations =  7.0

     negative rho (up, down):  2.186E-02 0.000E+00

     total cpu time spent up to now is       11.2 secs

     total energy              =     -14.79149202 Ry
     Harris-Foulkes estimate   =    -130.82214291 Ry
     estimated scf accuracy    <      18.47821446 Ry

     iteration # 76     ecut=    30.00 Ry     beta=0.70
     Davidson diagonalization with overlap
     ethr =  1.00E-02,  avg # of iterations =  4.0

     negative rho (up, down):  1.155E-02 0.000E+00

     total cpu time spent up to now is       11.3 secs

     total energy              =      31.32817463 Ry
     Harris-Foulkes estimate   =    -641.29195998 Ry
     estimated scf accuracy    <      50.21997372 Ry

     iteration # 77     ecut=    30.00 Ry     beta=0.70
     Davidson diagonalization with overlap
     ethr =  1.00E-02,  avg # of iterations =  6.0

     negative rho (up, down):  9.466E-02 0.000E+00

     total cpu time spent up to now is       11.3 secs

     total energy              =     -41.92777840 Ry
     Harris-Foulkes estimate   =    -794.30092852 Ry
     estimated scf accuracy    <      15.73081048 Ry

     iteration # 78     ecut=    30.00 Ry     beta=0.70
     Davidson diagonalization with overlap
     ethr =  1.00E-02,  avg # of iterations =  4.0

     negative rho (up, down):  4.724E-01 0.000E+00

     total cpu time spent up to now is       11.4 secs

     total energy              =   -1074.35954424 Ry
     Harris-Foulkes estimate   =   -1789.28190507 Ry
     estimated scf accuracy    <      26.82891611 Ry

     iteration # 79     ecut=    30.00 Ry     beta=0.70
     Davidson diagonalization with overlap
     ethr =  1.00E-02,  avg # of iterations =  8.0

     negative rho (up, down):  1.534E-01 0.000E+00

     total cpu time spent up to now is       11.4 secs

     total energy              =      63.62493441 Ry
     Harris-Foulkes estimate   =   -3055.62747190 Ry
     estimated scf accuracy    <      26.72198317 Ry

     iteration # 80     ecut=    30.00 Ry     beta=0.70
     Davidson diagonalization with overlap
     ethr =  1.00E-02,  avg # of iterations =  6.0

     negative rho (up, down):  3.119E-01 0.000E+00

     total cpu time spent up to now is       11.5 secs

     total energy              =    -161.92121482 Ry
     Harris-Foulkes estimate   =    -680.43169555 Ry
     estimated scf accuracy    <      27.34922560 Ry

     iteration # 81     ecut=    30.00 Ry     beta=0.70
     Davidson diagonalization with overlap
     ethr =  1.00E-02,  avg # of iterations = 14.0

     negative rho (up, down):  4.616E-01 0.000E+00

     total cpu time spent up to now is       11.5 secs

     total energy              =      49.52665102 Ry
     Harris-Foulkes estimate   =   -1807.19408496 Ry
     estimated scf accuracy    <      35.29396500 Ry

     iteration # 82     ecut=    30.00 Ry     beta=0.70
     Davidson diagonalization with overlap
     ethr =  1.00E-02,  avg # of iterations =  8.0

     negative rho (up, down):  1.833E-01 0.000E+00

     total cpu time spent up to now is       11.6 secs

     total energy              =     -18.93473907 Ry
     Harris-Foulkes estimate   =    -165.39650538 Ry
     estimated scf accuracy    <      24.53020479 Ry

     iteration # 83     ecut=    30.00 Ry     beta=0.70
     Davidson diagonalization with overlap
     ethr =  1.00E-02,  avg # of iterations =  8.0

     negative rho (up, down):  4.773E-01 0.000E+00

     total cpu time spent up to now is       11.7 secs

     total energy              =       4.82872086 Ry
     Harris-Foulkes estimate   =   -1082.11198308 Ry
     estimated scf accuracy    <      31.08020657 Ry

     iteration # 84     ecut=    30.00 Ry     beta=0.70
     Davidson diagonalization with overlap
     ethr =  1.00E-02,  avg # of iterations =  5.0

     negative rho (up, down):  5.357E-01 0.000E+00

     total cpu time spent up to now is       11.7 secs

     total energy              =      16.24091791 Ry
     Harris-Foulkes estimate   =    -396.57521167 Ry
     estimated scf accuracy    <      35.35050809 Ry

     iteration # 85     ecut=    30.00 Ry     beta=0.70
     Davidson diagonalization with overlap
     ethr =  1.00E-02,  avg # of iterations =  8.0

     negative rho (up, down):  1.908E-01 0.000E+00

     total cpu time spent up to now is       11.8 secs

     total energy              =      25.59173230 Ry
     Harris-Foulkes estimate   =    -334.41901728 Ry
     estimated scf accuracy    <      41.25006587 Ry

     iteration # 86     ecut=    30.00 Ry     beta=0.70
     Davidson diagonalization with overlap
     ethr =  1.00E-02,  avg # of iterations =  9.0

     negative rho (up, down):  1.607E-01 0.000E+00

     total cpu time spent up to now is       11.8 secs

     total energy              =      47.34638779 Ry
     Harris-Foulkes estimate   =    -394.01969193 Ry
     estimated scf accuracy    <      22.15579171 Ry

     iteration # 87     ecut=    30.00 Ry     beta=0.70
     Davidson diagonalization with overlap
     ethr =  1.00E-02,  avg # of iterations =  7.0

     negative rho (up, down):  3.377E-01 0.000E+00

     total cpu time spent up to now is       11.9 secs

     total energy              =      17.01555782 Ry
     Harris-Foulkes estimate   =   -1543.65948936 Ry
     estimated scf accuracy    <      30.00665557 Ry

     iteration # 88     ecut=    30.00 Ry     beta=0.70
     Davidson diagonalization with overlap
     ethr =  1.00E-02,  avg # of iterations =  8.0

     negative rho (up, down):  4.879E-01 0.000E+00

     total cpu time spent up to now is       12.0 secs

     total energy              =    -315.75236233 Ry
     Harris-Foulkes estimate   =    -153.58405804 Ry
     estimated scf accuracy    <      33.83419228 Ry

     iteration # 89     ecut=    30.00 Ry     beta=0.70
     Davidson diagonalization with overlap
     ethr =  1.00E-02,  avg # of iterations =  7.0

     negative rho (up, down):  4.363E-01 0.000E+00

     total cpu time spent up to now is       12.0 secs

     total energy              =   -3848.47921884 Ry
     Harris-Foulkes estimate   =   -3584.46672481 Ry
     estimated scf accuracy    <      31.50582909 Ry

     iteration # 90     ecut=    30.00 Ry     beta=0.70
     Davidson diagonalization with overlap
     ethr =  1.00E-02,  avg # of iterations =  9.0

     negative rho (up, down):  2.917E-01 0.000E+00

     total cpu time spent up to now is       12.1 secs

     total energy              =      80.09613532 Ry
     Harris-Foulkes estimate   =   -6303.43537503 Ry
     estimated scf accuracy    <      24.79778622 Ry

     iteration # 91     ecut=    30.00 Ry     beta=0.70
     Davidson diagonalization with overlap
     ethr =  1.00E-02,  avg # of iterations =  8.0

     negative rho (up, down):  2.972E-01 0.000E+00

     total cpu time spent up to now is       12.1 secs

     total energy              =      66.28721135 Ry
     Harris-Foulkes estimate   =    -266.33599743 Ry
     estimated scf accuracy    <      37.72570218 Ry

     iteration # 92     ecut=    30.00 Ry     beta=0.70
     Davidson diagonalization with overlap
     ethr =  1.00E-02,  avg # of iterations =  5.0

     negative rho (up, down):  2.476E-01 0.000E+00

     total cpu time spent up to now is       12.2 secs

     total energy              =      90.99113634 Ry
     Harris-Foulkes estimate   =    -556.75988694 Ry
     estimated scf accuracy    <      27.03051052 Ry

     iteration # 93     ecut=    30.00 Ry     beta=0.70
     Davidson diagonalization with overlap
     ethr =  1.00E-02,  avg # of iterations =  8.0

     negative rho (up, down):  1.382E-01 0.000E+00

     total cpu time spent up to now is       12.3 secs

     total energy              =      92.53217672 Ry
     Harris-Foulkes estimate   =    -700.81839923 Ry
     estimated scf accuracy    <      22.82014029 Ry

     iteration # 94     ecut=    30.00 Ry     beta=0.70
     Davidson diagonalization with overlap
     ethr =  1.00E-02,  avg # of iterations =  7.0

     negative rho (up, down):  1.358E-01 0.000E+00

     total cpu time spent up to now is       12.3 secs

     total energy              =      70.66654738 Ry
     Harris-Foulkes estimate   =    -340.50438175 Ry
     estimated scf accuracy    <      27.25356675 Ry

     iteration # 95     ecut=    30.00 Ry     beta=0.70
     Davidson diagonalization with overlap
     ethr =  1.00E-02,  avg # of iterations =  7.0

     negative rho (up, down):  1.264E-01 0.000E+00

     total cpu time spent up to now is       12.4 secs

     total energy              =    -375.35931292 Ry
     Harris-Foulkes estimate   =    -197.02321275 Ry
     estimated scf accuracy    <      23.92480646 Ry

     iteration # 96     ecut=    30.00 Ry     beta=0.70
     Davidson diagonalization with overlap
     ethr =  1.00E-02,  avg # of iterations =  5.0

     negative rho (up, down):  2.495E-01 0.000E+00

     total cpu time spent up to now is       12.4 secs

     total energy              =      56.82609770 Ry
     Harris-Foulkes estimate   =    -946.32612345 Ry
     estimated scf accuracy    <      16.61792793 Ry

     iteration # 97     ecut=    30.00 Ry     beta=0.70
     Davidson diagonalization with overlap
     ethr =  1.00E-02,  avg # of iterations =  7.0

     negative rho (up, down):  9.628E-02 0.000E+00

     total cpu time spent up to now is       12.5 secs

     total energy              =      51.15696879 Ry
     Harris-Foulkes estimate   =    -331.72512485 Ry
     estimated scf accuracy    <      14.17574762 Ry

     iteration # 98     ecut=    30.00 Ry     beta=0.70
     Davidson diagonalization with overlap
     ethr =  1.00E-02,  avg # of iterations =  7.0

     negative rho (up, down):  2.117E-02 0.000E+00

     total cpu time spent up to now is       12.5 secs

     total energy              =       4.65782868 Ry
     Harris-Foulkes estimate   =   -1140.50290285 Ry
     estimated scf accuracy    <      16.96079088 Ry

     iteration # 99     ecut=    30.00 Ry     beta=0.70
     Davidson diagonalization with overlap
     ethr =  1.00E-02,  avg # of iterations =  5.0

     negative rho (up, down):  1.630E-02 0.000E+00

     total cpu time spent up to now is       12.6 secs

     total energy              =      43.71354615 Ry
     Harris-Foulkes estimate   =    -343.24968764 Ry
     estimated scf accuracy    <      17.75864598 Ry

     iteration #100     ecut=    30.00 Ry     beta=0.70
     Davidson diagonalization with overlap
     ethr =  1.00E-02,  avg # of iterations =  5.0

     negative rho (up, down):  4.909E-02 0.000E+00

     total cpu time spent up to now is       12.7 secs

     total energy              =     -15.81033654 Ry
     Harris-Foulkes estimate   =     -49.26278009 Ry
     estimated scf accuracy    <      12.73621651 Ry

     End of self-consistent calculation

     convergence NOT achieved after 100 iterations: stopping

     Writing output data file pwscf.save
 
     init_run     :      0.09s CPU      0.11s WALL (       1 calls)
     electrons    :      9.28s CPU     11.52s WALL (       5 calls)
     update_pot   :      0.45s CPU      0.64s WALL (       4 calls)
     forces       :      0.10s CPU      0.11s WALL (       4 calls)

     Called by init_run:
     wfcinit      :      0.01s CPU      0.02s WALL (       1 calls)
     potinit      :      0.03s CPU      0.03s WALL (       1 calls)

     Called by electrons:
     c_bands      :      4.63s CPU      4.86s WALL (     249 calls)
     sum_band     :      0.77s CPU      0.86s WALL (     249 calls)
     v_of_rho     :      1.98s CPU      2.09s WALL (     254 calls)
     mix_rho      :      1.64s CPU      3.00s WALL (     249 calls)

     Called by c_bands:
     init_us_2    :      0.02s CPU      0.03s WALL (     499 calls)
     cegterg      :      4.58s CPU      4.73s WALL (     249 calls)

     Called by sum_band:

     Called by *egterg:
     h_psi        :      3.82s CPU      3.93s WALL (    1277 calls)
     g_psi        :      0.04s CPU      0.04s WALL (    1027 calls)
     cdiaghg      :      0.30s CPU      0.32s WALL (    1272 calls)

     Called by h_psi:
     h_psi:pot    :      3.80s CPU      3.91s WALL (    1277 calls)
     h_psi:calbec :      0.14s CPU      0.15s WALL (    1277 calls)
     vloc_psi     :      3.64s CPU      3.74s WALL (    1277 calls)
     add_vuspsi   :      0.01s CPU      0.01s WALL (    1277 calls)

     General routines
     calbec       :      0.16s CPU      0.18s WALL (    1296 calls)
     fft          :      1.37s CPU      1.45s WALL (    2802 calls)
     fftw         :      3.76s CPU      3.92s WALL (   16346 calls)
     davcio       :      0.26s CPU      1.17s WALL (    4548 calls)
 
     Parallel routines
     fft_scatter  :      2.18s CPU      2.34s WALL (   19148 calls)
 
     PWSCF        :    10.11s CPU        12.74s WALL

 
   This run was terminated on:   0:41:59  11Feb2018            

=------------------------------------------------------------------------------=
   JOB DONE.
=------------------------------------------------------------------------------=
