
     Program PWSCF v.6.0 (svn rev. 13079) starts on 11Feb2018 at  0:44:40 

     This program is part of the open-source Quantum ESPRESSO suite
     for quantum simulation of materials; please cite
         "P. Giannozzi et al., J. Phys.:Condens. Matter 21 395502 (2009);
          URL http://www.quantum-espresso.org", 
     in publications or presentations arising from this work. More details at
     http://www.quantum-espresso.org/quote

     Parallel version (MPI), running on    28 processors
     R & G space division:  proc/nbgrp/npool/nimage =      28
     Reading input from inputs/water-1-md/227.in

     Current dimensions of program PWSCF are:
     Max number of different atomic species (ntypx) = 10
     Max number of k-points (npk) =  40000
     Max angular momentum in pseudopotentials (lmaxx) =  3

     Subspace diagonalization in iterative solution of the eigenvalue problem:
     a serial algorithm will be used

 
     Parallelization info
     --------------------
     sticks:   dense  smooth     PW     G-vecs:    dense   smooth      PW
     Min         136     136     33                 6338     6338     787
     Max         137     137     34                 6341     6341     792
     Sum        3809    3809    949               177509   177509   22119
 


     bravais-lattice index     =            1
     lattice parameter (alat)  =      20.0000  a.u.
     unit-cell volume          =    8000.0000 (a.u.)^3
     number of atoms/cell      =            3
     number of atomic types    =            2
     number of electrons       =         8.00
     number of Kohn-Sham states=            8
     kinetic-energy cutoff     =      30.0000  Ry
     charge density cutoff     =     120.0000  Ry
     convergence threshold     =      1.0E-08
     mixing beta               =       0.7000
     number of iterations used =            8  plain     mixing
     Exchange-correlation      = BLYP ( 1  3  1  3 0 0)
     nstep                     =         5000


     celldm(1)=  20.000000  celldm(2)=   0.000000  celldm(3)=   0.000000
     celldm(4)=   0.000000  celldm(5)=   0.000000  celldm(6)=   0.000000

     crystal axes: (cart. coord. in units of alat)
               a(1) = (   1.000000   0.000000   0.000000 )  
               a(2) = (   0.000000   1.000000   0.000000 )  
               a(3) = (   0.000000   0.000000   1.000000 )  

     reciprocal axes: (cart. coord. in units 2 pi/alat)
               b(1) = (  1.000000  0.000000  0.000000 )  
               b(2) = (  0.000000  1.000000  0.000000 )  
               b(3) = (  0.000000  0.000000  1.000000 )  


     PseudoPot. # 1 for  H read from file:
     ./H.blyp-hgh.UPF
     MD5 check sum: c576e69559cde411e611be972c763230
     Pseudo is Norm-conserving, Zval =  1.0
     Generated in analytical, separable form
     Using radial grid of  929 points,  0 beta functions with: 

     PseudoPot. # 2 for  O read from file:
     ./O.blyp-hgh.UPF
     MD5 check sum: d0b7156309aa9befef28faac7bc56342
     Pseudo is Norm-conserving, Zval =  6.0
     Generated in analytical, separable form
     Using radial grid of 1095 points,  1 beta functions with: 
                l(1) =   0

     atomic species   valence    mass     pseudopotential
        H              1.00     1.01000      H( 1.00)
        O              6.00    16.00000      O( 1.00)

     No symmetry found



   Cartesian axes

     site n.     atom                  positions (alat units)
         1           H   tau(   1) = (   0.6045772   0.5731999   0.5902101  )
         2           H   tau(   2) = (   0.2428635   0.4455024   0.7650997  )
         3           O   tau(   3) = (   0.9134475   0.2448235   0.2502052  )

     number of k points=     1  Marzari-Vanderbilt smearing, width (Ry)=  0.0250
                       cart. coord. in units 2pi/alat
        k(    1) = (   0.0000000   0.0000000   0.0000000), wk =   2.0000000

     Dense  grid:   177509 G-vectors     FFT dimensions: (  72,  72,  72)

     Estimated max dynamical RAM per process >       6.09Mb

     Estimated total allocated dynamical RAM >     170.64Mb

     Initial potential from superposition of free atoms
     Check: negative starting charge=   -0.352364

     starting charge    7.99998, renormalised to    8.00000

     negative rho (up, down):  3.524E-01 0.000E+00
     Starting wfc are    6 randomized atomic wfcs +    2 random wfc

     total cpu time spent up to now is        0.2 secs

     per-process dynamical memory:    18.8 Mb

     Self-consistent Calculation

     iteration #  1     ecut=    30.00 Ry     beta=0.70
     Davidson diagonalization with overlap
     ethr =  1.00E-02,  avg # of iterations =  8.0

     negative rho (up, down):  8.634E-02 0.000E+00

     total cpu time spent up to now is        0.3 secs

     total energy              =     -28.01985246 Ry
     Harris-Foulkes estimate   =     -32.07961170 Ry
     estimated scf accuracy    <       4.65412781 Ry

     iteration #  2     ecut=    30.00 Ry     beta=0.70
     Davidson diagonalization with overlap
     ethr =  1.00E-02,  avg # of iterations =  4.0

     negative rho (up, down):  6.321E-02 0.000E+00

     total cpu time spent up to now is        0.3 secs

     total energy              =     -32.69362714 Ry
     Harris-Foulkes estimate   =     -38.07982862 Ry
     estimated scf accuracy    <      13.10727811 Ry

     iteration #  3     ecut=    30.00 Ry     beta=0.70
     Davidson diagonalization with overlap
     ethr =  1.00E-02,  avg # of iterations =  2.0

     negative rho (up, down):  6.518E-02 0.000E+00

     total cpu time spent up to now is        0.4 secs

     total energy              =     -33.23752041 Ry
     Harris-Foulkes estimate   =     -33.03179218 Ry
     estimated scf accuracy    <       5.11489052 Ry

     iteration #  4     ecut=    30.00 Ry     beta=0.70
     Davidson diagonalization with overlap
     ethr =  1.00E-02,  avg # of iterations =  1.0

     negative rho (up, down):  2.597E-02 0.000E+00

     total cpu time spent up to now is        0.4 secs

     total energy              =     -30.17151350 Ry
     Harris-Foulkes estimate   =     -33.23804589 Ry
     estimated scf accuracy    <       5.41523989 Ry

     iteration #  5     ecut=    30.00 Ry     beta=0.70
     Davidson diagonalization with overlap
     ethr =  1.00E-02,  avg # of iterations =  5.0

     negative rho (up, down):  2.570E-02 0.000E+00

     total cpu time spent up to now is        0.4 secs

     total energy              =     -33.32367583 Ry
     Harris-Foulkes estimate   =     -33.32890158 Ry
     estimated scf accuracy    <      13.75063436 Ry

     iteration #  6     ecut=    30.00 Ry     beta=0.70
     Davidson diagonalization with overlap
     ethr =  1.00E-02,  avg # of iterations =  1.0

     negative rho (up, down):  4.747E-02 0.000E+00

     total cpu time spent up to now is        0.5 secs

     total energy              =     -33.31792743 Ry
     Harris-Foulkes estimate   =     -33.32816863 Ry
     estimated scf accuracy    <      13.79076087 Ry

     iteration #  7     ecut=    30.00 Ry     beta=0.70
     Davidson diagonalization with overlap
     ethr =  1.00E-02,  avg # of iterations =  1.0

     negative rho (up, down):  1.791E-01 0.000E+00

     total cpu time spent up to now is        0.5 secs

     total energy              =     -32.48333746 Ry
     Harris-Foulkes estimate   =     -33.32212736 Ry
     estimated scf accuracy    <      13.50543306 Ry

     iteration #  8     ecut=    30.00 Ry     beta=0.70
     Davidson diagonalization with overlap
     ethr =  1.00E-02,  avg # of iterations =  1.0

     negative rho (up, down):  5.814E-02 0.000E+00

     total cpu time spent up to now is        0.5 secs

     total energy              =     -32.39668592 Ry
     Harris-Foulkes estimate   =     -32.69192271 Ry
     estimated scf accuracy    <       5.70182998 Ry

     iteration #  9     ecut=    30.00 Ry     beta=0.70
     Davidson diagonalization with overlap
     ethr =  1.00E-02,  avg # of iterations =  1.0

     negative rho (up, down):  6.746E-02 0.000E+00

     total cpu time spent up to now is        0.6 secs

     total energy              =     -31.63788057 Ry
     Harris-Foulkes estimate   =     -32.40213848 Ry
     estimated scf accuracy    <       5.17740998 Ry

     iteration # 10     ecut=    30.00 Ry     beta=0.70
     Davidson diagonalization with overlap
     ethr =  1.00E-02,  avg # of iterations =  1.0

     negative rho (up, down):  1.065E-01 0.000E+00

     total cpu time spent up to now is        0.6 secs

     total energy              =     -31.56725609 Ry
     Harris-Foulkes estimate   =     -31.65751514 Ry
     estimated scf accuracy    <       3.94352873 Ry

     iteration # 11     ecut=    30.00 Ry     beta=0.70
     Davidson diagonalization with overlap
     ethr =  1.00E-02,  avg # of iterations =  1.0

     negative rho (up, down):  5.326E-03 0.000E+00

     total cpu time spent up to now is        0.6 secs

     total energy              =     -31.63350427 Ry
     Harris-Foulkes estimate   =     -31.56611180 Ry
     estimated scf accuracy    <       4.79378831 Ry

     iteration # 12     ecut=    30.00 Ry     beta=0.70
     Davidson diagonalization with overlap
     ethr =  1.00E-02,  avg # of iterations =  1.0

     negative rho (up, down):  3.397E-01 0.000E+00

     total cpu time spent up to now is        0.7 secs

     total energy              =     -30.88380669 Ry
     Harris-Foulkes estimate   =     -31.63021192 Ry
     estimated scf accuracy    <       3.98653455 Ry

     iteration # 13     ecut=    30.00 Ry     beta=0.70
     Davidson diagonalization with overlap
     ethr =  1.00E-02,  avg # of iterations =  1.0

     negative rho (up, down):  4.502E-01 0.000E+00

     total cpu time spent up to now is        0.7 secs

     total energy              =     -31.66224353 Ry
     Harris-Foulkes estimate   =     -31.96290930 Ry
     estimated scf accuracy    <       3.54052107 Ry

     iteration # 14     ecut=    30.00 Ry     beta=0.70
     Davidson diagonalization with overlap
     ethr =  1.00E-02,  avg # of iterations =  1.0

     negative rho (up, down):  1.267E-02 0.000E+00

     total cpu time spent up to now is        0.7 secs

     total energy              =     -31.01850304 Ry
     Harris-Foulkes estimate   =     -31.66422437 Ry
     estimated scf accuracy    <       3.12751110 Ry

     iteration # 15     ecut=    30.00 Ry     beta=0.70
     Davidson diagonalization with overlap
     ethr =  1.00E-02,  avg # of iterations =  1.0

     negative rho (up, down):  9.308E-06 0.000E+00

     total cpu time spent up to now is        0.8 secs

     total energy              =     -32.03871047 Ry
     Harris-Foulkes estimate   =     -32.00356500 Ry
     estimated scf accuracy    <       4.42509812 Ry

     iteration # 16     ecut=    30.00 Ry     beta=0.70
     Davidson diagonalization with overlap
     ethr =  1.00E-02,  avg # of iterations =  1.0

     negative rho (up, down):  2.810E-03 0.000E+00

     total cpu time spent up to now is        0.8 secs

     total energy              =     -31.68601814 Ry
     Harris-Foulkes estimate   =     -32.03958689 Ry
     estimated scf accuracy    <       4.48247385 Ry

     iteration # 17     ecut=    30.00 Ry     beta=0.70
     Davidson diagonalization with overlap
     ethr =  1.00E-02,  avg # of iterations =  1.0

     negative rho (up, down):  3.648E-03 0.000E+00

     total cpu time spent up to now is        0.8 secs

     total energy              =     -31.80514812 Ry
     Harris-Foulkes estimate   =     -31.68851710 Ry
     estimated scf accuracy    <       3.95946894 Ry

     iteration # 18     ecut=    30.00 Ry     beta=0.70
     Davidson diagonalization with overlap
     ethr =  1.00E-02,  avg # of iterations =  1.0

     negative rho (up, down):  1.078E-02 0.000E+00

     total cpu time spent up to now is        0.9 secs

     total energy              =     -31.47523246 Ry
     Harris-Foulkes estimate   =     -31.80537734 Ry
     estimated scf accuracy    <       4.11277934 Ry

     iteration # 19     ecut=    30.00 Ry     beta=0.70
     Davidson diagonalization with overlap
     ethr =  1.00E-02,  avg # of iterations =  1.0

     negative rho (up, down):  1.315E-02 0.000E+00

     total cpu time spent up to now is        0.9 secs

     total energy              =     -31.49694022 Ry
     Harris-Foulkes estimate   =     -31.49287047 Ry
     estimated scf accuracy    <       0.20073350 Ry

     iteration # 20     ecut=    30.00 Ry     beta=0.70
     Davidson diagonalization with overlap
     ethr =  2.51E-03,  avg # of iterations =  1.0

     negative rho (up, down):  8.868E-03 0.000E+00

     total cpu time spent up to now is        0.9 secs

     total energy              =     -31.50176608 Ry
     Harris-Foulkes estimate   =     -31.50250290 Ry
     estimated scf accuracy    <       0.53668560 Ry

     iteration # 21     ecut=    30.00 Ry     beta=0.70
     Davidson diagonalization with overlap
     ethr =  2.51E-03,  avg # of iterations =  1.0

     negative rho (up, down):  4.078E-03 0.000E+00

     total cpu time spent up to now is        1.0 secs

     total energy              =     -31.52531633 Ry
     Harris-Foulkes estimate   =     -31.61199568 Ry
     estimated scf accuracy    <       4.12683442 Ry

     iteration # 22     ecut=    30.00 Ry     beta=0.70
     Davidson diagonalization with overlap
     ethr =  2.51E-03,  avg # of iterations =  1.0

     negative rho (up, down):  4.212E-03 0.000E+00

     total cpu time spent up to now is        1.0 secs

     total energy              =     -31.40336026 Ry
     Harris-Foulkes estimate   =     -31.52354020 Ry
     estimated scf accuracy    <       2.91557302 Ry

     iteration # 23     ecut=    30.00 Ry     beta=0.70
     Davidson diagonalization with overlap
     ethr =  2.51E-03,  avg # of iterations =  1.0

     negative rho (up, down):  2.337E-03 0.000E+00

     total cpu time spent up to now is        1.0 secs

     total energy              =     -31.47940012 Ry
     Harris-Foulkes estimate   =     -31.53043098 Ry
     estimated scf accuracy    <       1.77180987 Ry

     iteration # 24     ecut=    30.00 Ry     beta=0.70
     Davidson diagonalization with overlap
     ethr =  2.51E-03,  avg # of iterations =  1.0

     negative rho (up, down):  1.709E-03 0.000E+00

     total cpu time spent up to now is        1.1 secs

     total energy              =     -31.48980455 Ry
     Harris-Foulkes estimate   =     -31.49243884 Ry
     estimated scf accuracy    <       0.13333479 Ry

     iteration # 25     ecut=    30.00 Ry     beta=0.70
     Davidson diagonalization with overlap
     ethr =  1.67E-03,  avg # of iterations =  1.0

     negative rho (up, down):  9.932E-04 0.000E+00

     total cpu time spent up to now is        1.1 secs

     total energy              =     -31.49125532 Ry
     Harris-Foulkes estimate   =     -31.49069347 Ry
     estimated scf accuracy    <       0.02893458 Ry

     iteration # 26     ecut=    30.00 Ry     beta=0.70
     Davidson diagonalization with overlap
     ethr =  3.62E-04,  avg # of iterations =  1.0

     negative rho (up, down):  4.403E-04 0.000E+00

     total cpu time spent up to now is        1.1 secs

     total energy              =     -31.49324429 Ry
     Harris-Foulkes estimate   =     -31.49153579 Ry
     estimated scf accuracy    <       0.11224221 Ry

     iteration # 27     ecut=    30.00 Ry     beta=0.70
     Davidson diagonalization with overlap
     ethr =  3.62E-04,  avg # of iterations =  1.0

     negative rho (up, down):  6.745E-05 0.000E+00

     total cpu time spent up to now is        1.2 secs

     total energy              =     -31.48357911 Ry
     Harris-Foulkes estimate   =     -31.49422228 Ry
     estimated scf accuracy    <       0.38387960 Ry

     iteration # 28     ecut=    30.00 Ry     beta=0.70
     Davidson diagonalization with overlap
     ethr =  3.62E-04,  avg # of iterations =  1.0

     negative rho (up, down):  2.984E-06 0.000E+00

     total cpu time spent up to now is        1.2 secs

     total energy              =     -31.49028519 Ry
     Harris-Foulkes estimate   =     -31.49131991 Ry
     estimated scf accuracy    <       0.09386187 Ry

     iteration # 29     ecut=    30.00 Ry     beta=0.70
     Davidson diagonalization with overlap
     ethr =  3.62E-04,  avg # of iterations =  1.0

     negative rho (up, down):  2.932E-07 0.000E+00

     total cpu time spent up to now is        1.2 secs

     total energy              =     -31.49038516 Ry
     Harris-Foulkes estimate   =     -31.49056529 Ry
     estimated scf accuracy    <       0.01914833 Ry

     iteration # 30     ecut=    30.00 Ry     beta=0.70
     Davidson diagonalization with overlap
     ethr =  2.39E-04,  avg # of iterations =  1.0

     total cpu time spent up to now is        1.3 secs

     total energy              =     -31.49034067 Ry
     Harris-Foulkes estimate   =     -31.49042547 Ry
     estimated scf accuracy    <       0.00566707 Ry

     iteration # 31     ecut=    30.00 Ry     beta=0.70
     Davidson diagonalization with overlap
     ethr =  7.08E-05,  avg # of iterations =  1.0

     total cpu time spent up to now is        1.3 secs

     total energy              =     -31.49036051 Ry
     Harris-Foulkes estimate   =     -31.49036931 Ry
     estimated scf accuracy    <       0.00055285 Ry

     iteration # 32     ecut=    30.00 Ry     beta=0.70
     Davidson diagonalization with overlap
     ethr =  6.91E-06,  avg # of iterations = 12.0

     total cpu time spent up to now is        1.3 secs

     total energy              =     -31.49036161 Ry
     Harris-Foulkes estimate   =     -31.49036333 Ry
     estimated scf accuracy    <       0.00006727 Ry

     iteration # 33     ecut=    30.00 Ry     beta=0.70
     Davidson diagonalization with overlap
     ethr =  8.41E-07,  avg # of iterations =  1.0

     total cpu time spent up to now is        1.4 secs

     total energy              =     -31.49036249 Ry
     Harris-Foulkes estimate   =     -31.49036253 Ry
     estimated scf accuracy    <       0.00000028 Ry

     iteration # 34     ecut=    30.00 Ry     beta=0.70
     Davidson diagonalization with overlap
     ethr =  3.56E-09,  avg # of iterations =  1.0

     total cpu time spent up to now is        1.4 secs

     total energy              =     -31.49036243 Ry
     Harris-Foulkes estimate   =     -31.49036249 Ry
     estimated scf accuracy    <       0.00000010 Ry

     iteration # 35     ecut=    30.00 Ry     beta=0.70
     Davidson diagonalization with overlap
     ethr =  1.26E-09,  avg # of iterations =  1.0

     total cpu time spent up to now is        1.4 secs

     End of self-consistent calculation

          k = 0.0000 0.0000 0.0000 ( 22119 PWs)   bands (ev):

   -23.6483  -7.0552  -7.0547  -7.0542  -6.9908  -6.9078  -0.2397   0.5779

     the Fermi energy is    -6.9204 ev

!    total energy              =     -31.49036241 Ry
     Harris-Foulkes estimate   =     -31.49036244 Ry
     estimated scf accuracy    <          3.6E-09 Ry

     convergence has been achieved in  35 iterations

     Forces acting on atoms (Ry/au):

     atom    1 type  1   force =     0.00001682    0.00015912    0.00009903
     atom    2 type  1   force =     0.00079463    0.00051174   -0.00020877
     atom    3 type  2   force =    -0.00081145   -0.00067086    0.00010974

     Total force =     0.001447     Total SCF correction =     0.000050

     Molecular Dynamics Calculation

     Starting temperature  =  1000.00 K

     temperature is controlled by Andersen thermostat
     Collision frequency = 1.0000/timestep
     mass H                =     1.01
     mass O                =    16.00
     Time step             =   100.00 a.u.,  4.8378 femto-seconds

     Entering Dynamics:    iteration =     1
                           time      =   0.0048 pico-seconds


     Andersen thermostat:    3 collisions

ATOMIC_POSITIONS (bohr)
H       12.323193456  11.741402430  11.606612045
H        4.868117410   9.141841523  15.111963937
O       18.253642385   4.864326879   5.028572514


     kinetic energy (Ekin) =     0.01319564 Ry
     temperature           =   694.47456190 K 
     Ekin + Etot (const)   =   -31.47716678 Ry

     Linear momentum :   -0.0000000000    0.0000000000    0.0000000000

     Writing output data file pwscf.save
     Check: negative starting charge=   -0.352364
     NEW-OLD atomic charge density approx. for the potential
     Check: negative starting charge=   -0.352752

     negative rho (up, down):  8.165E-02 0.000E+00

     total cpu time spent up to now is        1.7 secs

     per-process dynamical memory:    20.4 Mb

     Self-consistent Calculation

     iteration #  1     ecut=    30.00 Ry     beta=0.70
     Davidson diagonalization with overlap
     c_bands:  1 eigenvalues not converged
     ethr =  1.00E-06,  avg # of iterations = 20.0

     negative rho (up, down):  1.891E-02 0.000E+00

     total cpu time spent up to now is        1.8 secs

     total energy              =     -31.44438302 Ry
     Harris-Foulkes estimate   =     -31.42760713 Ry
     estimated scf accuracy    <       0.03587813 Ry

     iteration #  2     ecut=    30.00 Ry     beta=0.70
     Davidson diagonalization with overlap
     ethr =  4.48E-04,  avg # of iterations =  2.0

     negative rho (up, down):  1.758E-02 0.000E+00

     total cpu time spent up to now is        1.8 secs

     total energy              =     -31.46691003 Ry
     Harris-Foulkes estimate   =     -31.88290448 Ry
     estimated scf accuracy    <       4.29527373 Ry

     iteration #  3     ecut=    30.00 Ry     beta=0.70
     Davidson diagonalization with overlap
     ethr =  4.48E-04,  avg # of iterations =  2.0

     negative rho (up, down):  1.706E-02 0.000E+00

     total cpu time spent up to now is        1.8 secs

     total energy              =     -31.46260979 Ry
     Harris-Foulkes estimate   =     -31.50784353 Ry
     estimated scf accuracy    <       1.15618714 Ry

     iteration #  4     ecut=    30.00 Ry     beta=0.70
     Davidson diagonalization with overlap
     ethr =  4.48E-04,  avg # of iterations =  1.0

     negative rho (up, down):  6.808E-03 0.000E+00

     total cpu time spent up to now is        1.9 secs

     total energy              =     -31.43211702 Ry
     Harris-Foulkes estimate   =     -31.47840693 Ry
     estimated scf accuracy    <       0.49893985 Ry

     iteration #  5     ecut=    30.00 Ry     beta=0.70
     Davidson diagonalization with overlap
     ethr =  4.48E-04,  avg # of iterations =  1.0

     negative rho (up, down):  2.868E-03 0.000E+00

     total cpu time spent up to now is        1.9 secs

     total energy              =     -31.46163507 Ry
     Harris-Foulkes estimate   =     -31.56551697 Ry
     estimated scf accuracy    <       2.84044434 Ry

     iteration #  6     ecut=    30.00 Ry     beta=0.70
     Davidson diagonalization with overlap
     ethr =  4.48E-04,  avg # of iterations =  1.0

     negative rho (up, down):  7.343E-04 0.000E+00

     total cpu time spent up to now is        1.9 secs

     total energy              =     -31.49019145 Ry
     Harris-Foulkes estimate   =     -31.48888427 Ry
     estimated scf accuracy    <       0.04870057 Ry

     iteration #  7     ecut=    30.00 Ry     beta=0.70
     Davidson diagonalization with overlap
     ethr =  4.48E-04,  avg # of iterations =  7.0

     negative rho (up, down):  4.121E-04 0.000E+00

     total cpu time spent up to now is        2.0 secs

     total energy              =     -31.49010126 Ry
     Harris-Foulkes estimate   =     -31.49053232 Ry
     estimated scf accuracy    <       0.03367431 Ry

     iteration #  8     ecut=    30.00 Ry     beta=0.70
     Davidson diagonalization with overlap
     ethr =  4.21E-04,  avg # of iterations =  1.0

     negative rho (up, down):  4.694E-06 0.000E+00

     total cpu time spent up to now is        2.0 secs

     total energy              =     -31.49027947 Ry
     Harris-Foulkes estimate   =     -31.49030221 Ry
     estimated scf accuracy    <       0.00174420 Ry

     iteration #  9     ecut=    30.00 Ry     beta=0.70
     Davidson diagonalization with overlap
     ethr =  2.18E-05,  avg # of iterations = 12.0

     negative rho (up, down):  2.335E-08 0.000E+00

     total cpu time spent up to now is        2.1 secs

     total energy              =     -31.49029038 Ry
     Harris-Foulkes estimate   =     -31.49033277 Ry
     estimated scf accuracy    <       0.00152489 Ry

     iteration # 10     ecut=    30.00 Ry     beta=0.70
     Davidson diagonalization with overlap
     ethr =  1.91E-05,  avg # of iterations =  1.0

     total cpu time spent up to now is        2.1 secs

     total energy              =     -31.49028901 Ry
     Harris-Foulkes estimate   =     -31.49032835 Ry
     estimated scf accuracy    <       0.00171952 Ry

     iteration # 11     ecut=    30.00 Ry     beta=0.70
     Davidson diagonalization with overlap
     ethr =  1.91E-05,  avg # of iterations =  1.0

     total cpu time spent up to now is        2.1 secs

     total energy              =     -31.49031674 Ry
     Harris-Foulkes estimate   =     -31.49031541 Ry
     estimated scf accuracy    <       0.00022946 Ry

     iteration # 12     ecut=    30.00 Ry     beta=0.70
     Davidson diagonalization with overlap
     ethr =  2.87E-06,  avg # of iterations =  1.0

     total cpu time spent up to now is        2.2 secs

     total energy              =     -31.49030459 Ry
     Harris-Foulkes estimate   =     -31.49031768 Ry
     estimated scf accuracy    <       0.00053126 Ry

     iteration # 13     ecut=    30.00 Ry     beta=0.70
     Davidson diagonalization with overlap
     ethr =  2.87E-06,  avg # of iterations =  1.0

     total cpu time spent up to now is        2.2 secs

     total energy              =     -31.49031154 Ry
     Harris-Foulkes estimate   =     -31.49031266 Ry
     estimated scf accuracy    <       0.00003391 Ry

     iteration # 14     ecut=    30.00 Ry     beta=0.70
     Davidson diagonalization with overlap
     ethr =  4.24E-07,  avg # of iterations =  1.0

     total cpu time spent up to now is        2.2 secs

     total energy              =     -31.49031219 Ry
     Harris-Foulkes estimate   =     -31.49031257 Ry
     estimated scf accuracy    <       0.00001967 Ry

     iteration # 15     ecut=    30.00 Ry     beta=0.70
     Davidson diagonalization with overlap
     ethr =  2.46E-07,  avg # of iterations =  1.0

     total cpu time spent up to now is        2.2 secs

     End of self-consistent calculation

          k = 0.0000 0.0000 0.0000 ( 22119 PWs)   bands (ev):

   -23.6446  -7.0520  -7.0513  -7.0509  -6.9821  -6.9105  -0.2395   0.5706

     the Fermi energy is    -6.9171 ev

!    total energy              =     -31.49031239 Ry
     Harris-Foulkes estimate   =     -31.49031238 Ry
     estimated scf accuracy    <          2.4E-10 Ry

     convergence has been achieved in  15 iterations

     Forces acting on atoms (Ry/au):

     atom    1 type  1   force =    -0.00000114   -0.00021670    0.00001994
     atom    2 type  1   force =     0.00053854    0.00001849   -0.00016861
     atom    3 type  2   force =    -0.00053740    0.00019821    0.00014868

     Total force =     0.000846     Total SCF correction =     0.000457
     SCF correction compared to forces is large: reduce conv_thr to get better values

     Entering Dynamics:    iteration =     2
                           time      =   0.0097 pico-seconds


     Andersen thermostat:    3 collisions

ATOMIC_POSITIONS (bohr)
H       12.375594727  11.915198306  11.751959298
H        4.937224018   8.988191717  15.286373498
O       18.245972201   4.863055159   5.008387865


     kinetic energy (Ekin) =     0.00845772 Ry
     temperature           =   445.12232162 K 
     Ekin + Etot (const)   =   -31.48185467 Ry
     Message from routine dynamics:
     Total linear momentum <> 0

     Linear momentum :   -0.0482643422    0.4839037204    0.0463385468

     Writing output data file pwscf.save

     first order wave-functions extrapolation
     Check: negative starting charge=   -0.352752
     first order charge density extrapolation
     Check: negative starting charge=   -0.352812

     negative rho (up, down):  1.122E-01 0.000E+00

     total cpu time spent up to now is        2.5 secs

     per-process dynamical memory:    20.4 Mb

     Self-consistent Calculation

     iteration #  1     ecut=    30.00 Ry     beta=0.70
     Davidson diagonalization with overlap
     c_bands:  1 eigenvalues not converged
     ethr =  1.00E-06,  avg # of iterations = 20.0

     negative rho (up, down):  2.647E-02 0.000E+00

     total cpu time spent up to now is        2.7 secs

     total energy              =     -31.40925676 Ry
     Harris-Foulkes estimate   =     -31.41381989 Ry
     estimated scf accuracy    <       0.07132755 Ry

     iteration #  2     ecut=    30.00 Ry     beta=0.70
     Davidson diagonalization with overlap
     ethr =  8.92E-04,  avg # of iterations =  2.0

     negative rho (up, down):  2.397E-02 0.000E+00

     total cpu time spent up to now is        2.7 secs

     total energy              =     -31.47760847 Ry
     Harris-Foulkes estimate   =     -32.05848216 Ry
     estimated scf accuracy    <       4.60228097 Ry

     iteration #  3     ecut=    30.00 Ry     beta=0.70
     Davidson diagonalization with overlap
     ethr =  8.92E-04,  avg # of iterations =  2.0

     negative rho (up, down):  2.272E-02 0.000E+00

     total cpu time spent up to now is        2.7 secs

     total energy              =     -31.46768498 Ry
     Harris-Foulkes estimate   =     -31.53779434 Ry
     estimated scf accuracy    <       1.02509343 Ry

     iteration #  4     ecut=    30.00 Ry     beta=0.70
     Davidson diagonalization with overlap
     ethr =  8.92E-04,  avg # of iterations =  1.0

     negative rho (up, down):  2.101E-02 0.000E+00

     total cpu time spent up to now is        2.8 secs

     total energy              =     -31.39623268 Ry
     Harris-Foulkes estimate   =     -31.48823151 Ry
     estimated scf accuracy    <       2.03035315 Ry

     iteration #  5     ecut=    30.00 Ry     beta=0.70
     Davidson diagonalization with overlap
     ethr =  8.92E-04,  avg # of iterations =  1.0

     negative rho (up, down):  7.791E-03 0.000E+00

     total cpu time spent up to now is        2.8 secs

     total energy              =     -31.47757070 Ry
     Harris-Foulkes estimate   =     -31.50305676 Ry
     estimated scf accuracy    <       2.02715592 Ry

     iteration #  6     ecut=    30.00 Ry     beta=0.70
     Davidson diagonalization with overlap
     ethr =  8.92E-04,  avg # of iterations =  1.0

     negative rho (up, down):  2.075E-03 0.000E+00

     total cpu time spent up to now is        2.9 secs

     total energy              =     -31.48484407 Ry
     Harris-Foulkes estimate   =     -31.48706529 Ry
     estimated scf accuracy    <       0.34629999 Ry

     iteration #  7     ecut=    30.00 Ry     beta=0.70
     Davidson diagonalization with overlap
     ethr =  8.92E-04,  avg # of iterations =  1.0

     negative rho (up, down):  3.125E-04 0.000E+00

     total cpu time spent up to now is        2.9 secs

     total energy              =     -31.49009993 Ry
     Harris-Foulkes estimate   =     -31.48904371 Ry
     estimated scf accuracy    <       0.00171913 Ry

     iteration #  8     ecut=    30.00 Ry     beta=0.70
     Davidson diagonalization with overlap
     ethr =  2.15E-05,  avg # of iterations = 13.0

     negative rho (up, down):  1.699E-06 0.000E+00

     total cpu time spent up to now is        3.0 secs

     total energy              =     -31.49064791 Ry
     Harris-Foulkes estimate   =     -31.49051248 Ry
     estimated scf accuracy    <       0.02612718 Ry

     iteration #  9     ecut=    30.00 Ry     beta=0.70
     Davidson diagonalization with overlap
     ethr =  2.15E-05,  avg # of iterations =  1.0

     negative rho (up, down):  1.301E-07 0.000E+00

     total cpu time spent up to now is        3.0 secs

     total energy              =     -31.49003602 Ry
     Harris-Foulkes estimate   =     -31.49074075 Ry
     estimated scf accuracy    <       0.05062242 Ry

     iteration # 10     ecut=    30.00 Ry     beta=0.70
     Davidson diagonalization with overlap
     ethr =  2.15E-05,  avg # of iterations =  1.0

     total cpu time spent up to now is        3.0 secs

     total energy              =     -31.49017561 Ry
     Harris-Foulkes estimate   =     -31.49029871 Ry
     estimated scf accuracy    <       0.00322442 Ry

     iteration # 11     ecut=    30.00 Ry     beta=0.70
     Davidson diagonalization with overlap
     ethr =  2.15E-05,  avg # of iterations =  1.0

     total cpu time spent up to now is        3.1 secs

     total energy              =     -31.49024629 Ry
     Harris-Foulkes estimate   =     -31.49031171 Ry
     estimated scf accuracy    <       0.00469605 Ry

     iteration # 12     ecut=    30.00 Ry     beta=0.70
     Davidson diagonalization with overlap
     ethr =  2.15E-05,  avg # of iterations =  1.0

     total cpu time spent up to now is        3.1 secs

     total energy              =     -31.49026244 Ry
     Harris-Foulkes estimate   =     -31.49027109 Ry
     estimated scf accuracy    <       0.00027584 Ry

     iteration # 13     ecut=    30.00 Ry     beta=0.70
     Davidson diagonalization with overlap
     ethr =  3.45E-06,  avg # of iterations =  1.0

     total cpu time spent up to now is        3.1 secs

     total energy              =     -31.49026650 Ry
     Harris-Foulkes estimate   =     -31.49026780 Ry
     estimated scf accuracy    <       0.00003811 Ry

     iteration # 14     ecut=    30.00 Ry     beta=0.70
     Davidson diagonalization with overlap
     ethr =  4.76E-07,  avg # of iterations =  3.0

     total cpu time spent up to now is        3.2 secs

     total energy              =     -31.49026728 Ry
     Harris-Foulkes estimate   =     -31.49026741 Ry
     estimated scf accuracy    <       0.00000889 Ry

     iteration # 15     ecut=    30.00 Ry     beta=0.70
     Davidson diagonalization with overlap
     ethr =  1.11E-07,  avg # of iterations =  1.0

     total cpu time spent up to now is        3.2 secs

     total energy              =     -31.49026734 Ry
     Harris-Foulkes estimate   =     -31.49026737 Ry
     estimated scf accuracy    <       0.00000001 Ry

     iteration # 16     ecut=    30.00 Ry     beta=0.70
     Davidson diagonalization with overlap
     ethr =  1.83E-10,  avg # of iterations =  1.0

     total cpu time spent up to now is        3.2 secs

     End of self-consistent calculation

          k = 0.0000 0.0000 0.0000 ( 22119 PWs)   bands (ev):

   -23.6428  -7.0499  -7.0496  -7.0491  -6.9781  -6.9114  -0.2403   0.5752

     the Fermi energy is    -6.9153 ev

!    total energy              =     -31.49026721 Ry
     Harris-Foulkes estimate   =     -31.49026734 Ry
     estimated scf accuracy    <          3.5E-09 Ry

     convergence has been achieved in  16 iterations

     Forces acting on atoms (Ry/au):

     atom    1 type  1   force =     0.00010884   -0.00025983    0.00015352
     atom    2 type  1   force =     0.00053267   -0.00003398   -0.00000112
     atom    3 type  2   force =    -0.00064151    0.00029381   -0.00015239

     Total force =     0.000953     Total SCF correction =     0.000570
     SCF correction compared to forces is large: reduce conv_thr to get better values

     Entering Dynamics:    iteration =     3
                           time      =   0.0145 pico-seconds


     Andersen thermostat:    3 collisions

ATOMIC_POSITIONS (bohr)
H       12.598389554  11.629656592  11.842074625
H        5.086367563   9.060379647  15.625311460
O       18.222493591   4.876523116   4.981303876


     kinetic energy (Ekin) =     0.01677792 Ry
     temperature           =   883.00682787 K 
     Ekin + Etot (const)   =   -31.47348929 Ry
     Message from routine dynamics:
     Total linear momentum <> 0

     Linear momentum :    0.3047675616   -0.3500624036   -0.1369358232

     Writing output data file pwscf.save

     second order wave-functions extrapolation
     Check: negative starting charge=   -0.352812
     second order charge density extrapolation
     Check: negative starting charge=   -0.352829

     negative rho (up, down):  7.260E-02 0.000E+00

     total cpu time spent up to now is        3.5 secs

     per-process dynamical memory:    20.4 Mb

     Self-consistent Calculation

     iteration #  1     ecut=    30.00 Ry     beta=0.70
     Davidson diagonalization with overlap
     c_bands:  1 eigenvalues not converged
     ethr =  1.00E-06,  avg # of iterations = 20.0

     negative rho (up, down):  1.657E-02 0.000E+00

     total cpu time spent up to now is        3.6 secs

     total energy              =     -31.43732652 Ry
     Harris-Foulkes estimate   =     -31.43160986 Ry
     estimated scf accuracy    <       0.04646015 Ry

     iteration #  2     ecut=    30.00 Ry     beta=0.70
     Davidson diagonalization with overlap
     ethr =  5.81E-04,  avg # of iterations =  2.0

     negative rho (up, down):  1.523E-02 0.000E+00

     total cpu time spent up to now is        3.6 secs

     total energy              =     -31.48364489 Ry
     Harris-Foulkes estimate   =     -31.97639952 Ry
     estimated scf accuracy    <       4.44727154 Ry

     iteration #  3     ecut=    30.00 Ry     beta=0.70
     Davidson diagonalization with overlap
     ethr =  5.81E-04,  avg # of iterations =  2.0

     negative rho (up, down):  1.466E-02 0.000E+00

     total cpu time spent up to now is        3.7 secs

     total energy              =     -31.47233696 Ry
     Harris-Foulkes estimate   =     -31.48880510 Ry
     estimated scf accuracy    <       1.43869181 Ry

     iteration #  4     ecut=    30.00 Ry     beta=0.70
     Davidson diagonalization with overlap
     ethr =  5.81E-04,  avg # of iterations =  1.0

     negative rho (up, down):  9.198E-03 0.000E+00

     total cpu time spent up to now is        3.7 secs

     total energy              =     -31.44813342 Ry
     Harris-Foulkes estimate   =     -31.47868628 Ry
     estimated scf accuracy    <       0.24363706 Ry

     iteration #  5     ecut=    30.00 Ry     beta=0.70
     Davidson diagonalization with overlap
     ethr =  5.81E-04,  avg # of iterations =  1.0

     negative rho (up, down):  3.138E-03 0.000E+00

     total cpu time spent up to now is        3.7 secs

     total energy              =     -31.45860140 Ry
     Harris-Foulkes estimate   =     -31.56920176 Ry
     estimated scf accuracy    <       2.88413403 Ry

     iteration #  6     ecut=    30.00 Ry     beta=0.70
     Davidson diagonalization with overlap
     ethr =  5.81E-04,  avg # of iterations =  1.0

     negative rho (up, down):  8.162E-04 0.000E+00

     total cpu time spent up to now is        3.8 secs

     total energy              =     -31.49059882 Ry
     Harris-Foulkes estimate   =     -31.48807455 Ry
     estimated scf accuracy    <       0.01423858 Ry

     iteration #  7     ecut=    30.00 Ry     beta=0.70
     Davidson diagonalization with overlap
     ethr =  1.78E-04,  avg # of iterations =  4.0

     negative rho (up, down):  4.761E-04 0.000E+00

     total cpu time spent up to now is        3.8 secs

     total energy              =     -31.49073098 Ry
     Harris-Foulkes estimate   =     -31.49088572 Ry
     estimated scf accuracy    <       0.07622744 Ry

     iteration #  8     ecut=    30.00 Ry     beta=0.70
     Davidson diagonalization with overlap
     ethr =  1.78E-04,  avg # of iterations =  1.0

     negative rho (up, down):  1.150E-06 0.000E+00

     total cpu time spent up to now is        3.8 secs

     total energy              =     -31.48965638 Ry
     Harris-Foulkes estimate   =     -31.49075544 Ry
     estimated scf accuracy    <       0.05281584 Ry

     iteration #  9     ecut=    30.00 Ry     beta=0.70
     Davidson diagonalization with overlap
     ethr =  1.78E-04,  avg # of iterations =  1.0

     total cpu time spent up to now is        3.9 secs

     total energy              =     -31.49038301 Ry
     Harris-Foulkes estimate   =     -31.49030288 Ry
     estimated scf accuracy    <       0.00129404 Ry

     iteration # 10     ecut=    30.00 Ry     beta=0.70
     Davidson diagonalization with overlap
     ethr =  1.62E-05,  avg # of iterations = 12.0

     total cpu time spent up to now is        3.9 secs

     total energy              =     -31.48979389 Ry
     Harris-Foulkes estimate   =     -31.49051523 Ry
     estimated scf accuracy    <       0.02475968 Ry

     iteration # 11     ecut=    30.00 Ry     beta=0.70
     Davidson diagonalization with overlap
     ethr =  1.62E-05,  avg # of iterations =  1.0

     total cpu time spent up to now is        3.9 secs

     total energy              =     -31.49029171 Ry
     Harris-Foulkes estimate   =     -31.49037955 Ry
     estimated scf accuracy    <       0.00946477 Ry

     iteration # 12     ecut=    30.00 Ry     beta=0.70
     Davidson diagonalization with overlap
     ethr =  1.62E-05,  avg # of iterations =  1.0

     total cpu time spent up to now is        4.0 secs

     total energy              =     -31.49027042 Ry
     Harris-Foulkes estimate   =     -31.49031395 Ry
     estimated scf accuracy    <       0.00230378 Ry

     iteration # 13     ecut=    30.00 Ry     beta=0.70
     Davidson diagonalization with overlap
     ethr =  1.62E-05,  avg # of iterations =  1.0

     total cpu time spent up to now is        4.0 secs

     total energy              =     -31.49029320 Ry
     Harris-Foulkes estimate   =     -31.49029308 Ry
     estimated scf accuracy    <       0.00000429 Ry

     iteration # 14     ecut=    30.00 Ry     beta=0.70
     Davidson diagonalization with overlap
     ethr =  5.36E-08,  avg # of iterations =  1.0

     total cpu time spent up to now is        4.1 secs

     total energy              =     -31.49029300 Ry
     Harris-Foulkes estimate   =     -31.49029324 Ry
     estimated scf accuracy    <       0.00001529 Ry

     iteration # 15     ecut=    30.00 Ry     beta=0.70
     Davidson diagonalization with overlap
     ethr =  5.36E-08,  avg # of iterations =  1.0

     total cpu time spent up to now is        4.1 secs

     total energy              =     -31.49029317 Ry
     Harris-Foulkes estimate   =     -31.49029313 Ry
     estimated scf accuracy    <       0.00000002 Ry

     iteration # 16     ecut=    30.00 Ry     beta=0.70
     Davidson diagonalization with overlap
     ethr =  2.25E-10,  avg # of iterations =  1.0

     total cpu time spent up to now is        4.1 secs

     End of self-consistent calculation

          k = 0.0000 0.0000 0.0000 ( 22119 PWs)   bands (ev):

   -23.6413  -7.0490  -7.0485  -7.0480  -6.9757  -6.9113  -0.2397   0.5697

     the Fermi energy is    -6.9141 ev

!    total energy              =     -31.49029316 Ry
     Harris-Foulkes estimate   =     -31.49029317 Ry
     estimated scf accuracy    <          4.7E-10 Ry

     convergence has been achieved in  16 iterations

     Forces acting on atoms (Ry/au):

     atom    1 type  1   force =    -0.00001646   -0.00001488    0.00011872
     atom    2 type  1   force =     0.00039697    0.00018263   -0.00002711
     atom    3 type  2   force =    -0.00038051   -0.00016775   -0.00009161

     Total force =     0.000623     Total SCF correction =     0.000115
     SCF correction compared to forces is large: reduce conv_thr to get better values

     Entering Dynamics:    iteration =     4
                           time      =   0.0194 pico-seconds


     Andersen thermostat:    3 collisions

ATOMIC_POSITIONS (bohr)
H       12.586628030  11.493359068  11.752419497
H        4.893842669   8.727544014  15.429516432
O       18.235389171   4.906137147   4.999322917


     kinetic energy (Ekin) =     0.01973565 Ry
     temperature           =  1038.66963791 K 
     Ekin + Etot (const)   =   -31.47055751 Ry
     Message from routine dynamics:
     Total linear momentum <> 0

     Linear momentum :    0.6585480540    0.4524520681   -0.2987964083

     Writing output data file pwscf.save

     second order wave-functions extrapolation
     Check: negative starting charge=   -0.352829
     second order charge density extrapolation
     Check: negative starting charge=   -0.351912

     negative rho (up, down):  6.132E-02 0.000E+00

     total cpu time spent up to now is        4.4 secs

     per-process dynamical memory:    20.4 Mb

     Self-consistent Calculation

     iteration #  1     ecut=    30.00 Ry     beta=0.70
     Davidson diagonalization with overlap
     c_bands:  1 eigenvalues not converged
     ethr =  1.00E-06,  avg # of iterations = 20.0

     negative rho (up, down):  1.392E-02 0.000E+00

     total cpu time spent up to now is        4.6 secs

     total energy              =     -31.45673758 Ry
     Harris-Foulkes estimate   =     -31.43970462 Ry
     estimated scf accuracy    <       0.02611069 Ry

     iteration #  2     ecut=    30.00 Ry     beta=0.70
     Davidson diagonalization with overlap
     ethr =  3.26E-04,  avg # of iterations =  2.0

     negative rho (up, down):  1.308E-02 0.000E+00

     total cpu time spent up to now is        4.6 secs

     total energy              =     -31.46300477 Ry
     Harris-Foulkes estimate   =     -31.81204799 Ry
     estimated scf accuracy    <       4.15986014 Ry

     iteration #  3     ecut=    30.00 Ry     beta=0.70
     Davidson diagonalization with overlap
     ethr =  3.26E-04,  avg # of iterations =  2.0

     negative rho (up, down):  1.266E-02 0.000E+00

     total cpu time spent up to now is        4.6 secs

     total energy              =     -31.46289752 Ry
     Harris-Foulkes estimate   =     -31.51486279 Ry
     estimated scf accuracy    <       1.18482301 Ry

     iteration #  4     ecut=    30.00 Ry     beta=0.70
     Davidson diagonalization with overlap
     ethr =  3.26E-04,  avg # of iterations =  1.0

     negative rho (up, down):  3.641E-03 0.000E+00

     total cpu time spent up to now is        4.7 secs

     total energy              =     -31.46601052 Ry
     Harris-Foulkes estimate   =     -31.48029382 Ry
     estimated scf accuracy    <       0.22966500 Ry

     iteration #  5     ecut=    30.00 Ry     beta=0.70
     Davidson diagonalization with overlap
     ethr =  3.26E-04,  avg # of iterations =  1.0

     negative rho (up, down):  1.820E-03 0.000E+00

     total cpu time spent up to now is        4.7 secs

     total energy              =     -31.46574192 Ry
     Harris-Foulkes estimate   =     -31.52167488 Ry
     estimated scf accuracy    <       1.99528443 Ry

     iteration #  6     ecut=    30.00 Ry     beta=0.70
     Davidson diagonalization with overlap
     ethr =  3.26E-04,  avg # of iterations =  3.0

     negative rho (up, down):  3.601E-04 0.000E+00

     total cpu time spent up to now is        4.7 secs

     total energy              =     -31.48987189 Ry
     Harris-Foulkes estimate   =     -31.48944206 Ry
     estimated scf accuracy    <       0.01386485 Ry

     iteration #  7     ecut=    30.00 Ry     beta=0.70
     Davidson diagonalization with overlap
     ethr =  1.73E-04,  avg # of iterations =  8.0

     negative rho (up, down):  6.878E-05 0.000E+00

     total cpu time spent up to now is        4.8 secs

     total energy              =     -31.49018868 Ry
     Harris-Foulkes estimate   =     -31.49036699 Ry
     estimated scf accuracy    <       0.01592809 Ry

     iteration #  8     ecut=    30.00 Ry     beta=0.70
     Davidson diagonalization with overlap
     ethr =  1.73E-04,  avg # of iterations =  1.0

     negative rho (up, down):  2.211E-05 0.000E+00

     total cpu time spent up to now is        4.8 secs

     total energy              =     -31.49016883 Ry
     Harris-Foulkes estimate   =     -31.49025471 Ry
     estimated scf accuracy    <       0.00337308 Ry

     iteration #  9     ecut=    30.00 Ry     beta=0.70
     Davidson diagonalization with overlap
     ethr =  4.22E-05,  avg # of iterations =  1.0

     total cpu time spent up to now is        4.8 secs

     total energy              =     -31.49023589 Ry
     Harris-Foulkes estimate   =     -31.49024461 Ry
     estimated scf accuracy    <       0.00087184 Ry

     iteration # 10     ecut=    30.00 Ry     beta=0.70
     Davidson diagonalization with overlap
     ethr =  1.09E-05,  avg # of iterations = 12.0

     total cpu time spent up to now is        4.9 secs

     total energy              =     -31.49025076 Ry
     Harris-Foulkes estimate   =     -31.49025327 Ry
     estimated scf accuracy    <       0.00032181 Ry

     iteration # 11     ecut=    30.00 Ry     beta=0.70
     Davidson diagonalization with overlap
     ethr =  4.02E-06,  avg # of iterations =  1.0

     total cpu time spent up to now is        4.9 secs

     total energy              =     -31.49024812 Ry
     Harris-Foulkes estimate   =     -31.49025168 Ry
     estimated scf accuracy    <       0.00015220 Ry

     iteration # 12     ecut=    30.00 Ry     beta=0.70
     Davidson diagonalization with overlap
     ethr =  1.90E-06,  avg # of iterations =  1.0

     total cpu time spent up to now is        4.9 secs

     total energy              =     -31.49025119 Ry
     Harris-Foulkes estimate   =     -31.49025201 Ry
     estimated scf accuracy    <       0.00007270 Ry

     iteration # 13     ecut=    30.00 Ry     beta=0.70
     Davidson diagonalization with overlap
     ethr =  9.09E-07,  avg # of iterations =  1.0

     total cpu time spent up to now is        5.0 secs

     total energy              =     -31.49025108 Ry
     Harris-Foulkes estimate   =     -31.49025138 Ry
     estimated scf accuracy    <       0.00001958 Ry

     iteration # 14     ecut=    30.00 Ry     beta=0.70
     Davidson diagonalization with overlap
     ethr =  2.45E-07,  avg # of iterations =  1.0

     total cpu time spent up to now is        5.0 secs

     total energy              =     -31.49025122 Ry
     Harris-Foulkes estimate   =     -31.49025115 Ry
     estimated scf accuracy    <       0.00000404 Ry

     iteration # 15     ecut=    30.00 Ry     beta=0.70
     Davidson diagonalization with overlap
     ethr =  5.04E-08,  avg # of iterations =  1.0

     total cpu time spent up to now is        5.0 secs

     End of self-consistent calculation

          k = 0.0000 0.0000 0.0000 ( 22119 PWs)   bands (ev):

   -23.6375  -7.0455  -7.0451  -7.0446  -6.9684  -6.9118  -0.2388   0.5624

     the Fermi energy is    -6.9107 ev

!    total energy              =     -31.49025136 Ry
     Harris-Foulkes estimate   =     -31.49025126 Ry
     estimated scf accuracy    <          4.1E-10 Ry

     convergence has been achieved in  15 iterations

     Forces acting on atoms (Ry/au):

     atom    1 type  1   force =     0.00023301    0.00039934    0.00002251
     atom    2 type  1   force =     0.00051557    0.00052819   -0.00006167
     atom    3 type  2   force =    -0.00074859   -0.00092754    0.00003916

     Total force =     0.001478     Total SCF correction =     0.000471
     SCF correction compared to forces is large: reduce conv_thr to get better values

     Entering Dynamics:    iteration =     5
                           time      =   0.0242 pico-seconds


     Andersen thermostat:    3 collisions

ATOMIC_POSITIONS (bohr)
H       12.405848651  11.791092431  12.057585894
H        4.364789167   8.948767116  15.150262150
O       18.280197371   4.873378020   4.997687215


     kinetic energy (Ekin) =     0.03197906 Ry
     temperature           =  1683.02921798 K 
     Ekin + Etot (const)   =   -31.45827230 Ry
     Message from routine dynamics:
     Total linear momentum <> 0

     Linear momentum :    0.2555715914    0.0401351917   -0.1541686132

     Writing output data file pwscf.save

     second order wave-functions extrapolation
     Check: negative starting charge=   -0.351912
     second order charge density extrapolation
     Check: negative starting charge=   -0.352145

     negative rho (up, down):  6.815E-02 0.000E+00

     total cpu time spent up to now is        5.4 secs

     per-process dynamical memory:    20.4 Mb

     Self-consistent Calculation

     iteration #  1     ecut=    30.00 Ry     beta=0.70
     Davidson diagonalization with overlap
     c_bands:  1 eigenvalues not converged
     ethr =  1.00E-06,  avg # of iterations = 20.0

     negative rho (up, down):  1.512E-02 0.000E+00

     total cpu time spent up to now is        5.5 secs

     total energy              =     -31.44098590 Ry
     Harris-Foulkes estimate   =     -31.44067726 Ry
     estimated scf accuracy    <       0.04704046 Ry

     iteration #  2     ecut=    30.00 Ry     beta=0.70
     Davidson diagonalization with overlap
     ethr =  5.88E-04,  avg # of iterations =  2.0

     negative rho (up, down):  1.318E-02 0.000E+00

     total cpu time spent up to now is        5.5 secs

     total energy              =     -31.48530518 Ry
     Harris-Foulkes estimate   =     -31.69108576 Ry
     estimated scf accuracy    <       1.29281796 Ry

     iteration #  3     ecut=    30.00 Ry     beta=0.70
     Davidson diagonalization with overlap
     ethr =  5.88E-04,  avg # of iterations =  2.0

     negative rho (up, down):  1.284E-02 0.000E+00

     total cpu time spent up to now is        5.5 secs

     total energy              =     -31.46317500 Ry
     Harris-Foulkes estimate   =     -31.56949387 Ry
     estimated scf accuracy    <       2.84142906 Ry

     iteration #  4     ecut=    30.00 Ry     beta=0.70
     Davidson diagonalization with overlap
     ethr =  5.88E-04,  avg # of iterations =  1.0

     negative rho (up, down):  1.158E-02 0.000E+00

     total cpu time spent up to now is        5.6 secs

     total energy              =     -31.45729818 Ry
     Harris-Foulkes estimate   =     -31.49320218 Ry
     estimated scf accuracy    <       0.53182894 Ry

     iteration #  5     ecut=    30.00 Ry     beta=0.70
     Davidson diagonalization with overlap
     ethr =  5.88E-04,  avg # of iterations =  1.0

     negative rho (up, down):  2.524E-03 0.000E+00

     total cpu time spent up to now is        5.6 secs

     total energy              =     -31.48791716 Ry
     Harris-Foulkes estimate   =     -31.48244486 Ry
     estimated scf accuracy    <       0.23100856 Ry

     iteration #  6     ecut=    30.00 Ry     beta=0.70
     Davidson diagonalization with overlap
     ethr =  5.88E-04,  avg # of iterations =  1.0

     negative rho (up, down):  1.065E-03 0.000E+00

     total cpu time spent up to now is        5.6 secs

     total energy              =     -31.48932786 Ry
     Harris-Foulkes estimate   =     -31.48920886 Ry
     estimated scf accuracy    <       0.04362044 Ry

     iteration #  7     ecut=    30.00 Ry     beta=0.70
     Davidson diagonalization with overlap
     ethr =  5.45E-04,  avg # of iterations =  1.0

     negative rho (up, down):  6.912E-05 0.000E+00

     total cpu time spent up to now is        5.7 secs

     total energy              =     -31.48988322 Ry
     Harris-Foulkes estimate   =     -31.48989827 Ry
     estimated scf accuracy    <       0.00217512 Ry

     iteration #  8     ecut=    30.00 Ry     beta=0.70
     Davidson diagonalization with overlap
     ethr =  2.72E-05,  avg # of iterations = 14.0

     negative rho (up, down):  1.855E-07 0.000E+00

     total cpu time spent up to now is        5.7 secs

     total energy              =     -31.48939840 Ry
     Harris-Foulkes estimate   =     -31.49092529 Ry
     estimated scf accuracy    <       0.04335069 Ry

     iteration #  9     ecut=    30.00 Ry     beta=0.70
     Davidson diagonalization with overlap
     ethr =  2.72E-05,  avg # of iterations =  1.0

     total cpu time spent up to now is        5.7 secs

     total energy              =     -31.49016669 Ry
     Harris-Foulkes estimate   =     -31.49016705 Ry
     estimated scf accuracy    <       0.00008558 Ry

     iteration # 10     ecut=    30.00 Ry     beta=0.70
     Davidson diagonalization with overlap
     ethr =  1.07E-06,  avg # of iterations =  3.0

     total cpu time spent up to now is        5.8 secs

     total energy              =     -31.49016546 Ry
     Harris-Foulkes estimate   =     -31.49016814 Ry
     estimated scf accuracy    <       0.00009410 Ry

     iteration # 11     ecut=    30.00 Ry     beta=0.70
     Davidson diagonalization with overlap
     ethr =  1.07E-06,  avg # of iterations =  1.0

     total cpu time spent up to now is        5.8 secs

     total energy              =     -31.49016569 Ry
     Harris-Foulkes estimate   =     -31.49016624 Ry
     estimated scf accuracy    <       0.00001479 Ry

     iteration # 12     ecut=    30.00 Ry     beta=0.70
     Davidson diagonalization with overlap
     ethr =  1.85E-07,  avg # of iterations =  1.0

     total cpu time spent up to now is        5.8 secs

     total energy              =     -31.49016565 Ry
     Harris-Foulkes estimate   =     -31.49016591 Ry
     estimated scf accuracy    <       0.00000355 Ry

     iteration # 13     ecut=    30.00 Ry     beta=0.70
     Davidson diagonalization with overlap
     ethr =  4.44E-08,  avg # of iterations =  1.0

     total cpu time spent up to now is        5.9 secs

     total energy              =     -31.49016558 Ry
     Harris-Foulkes estimate   =     -31.49016578 Ry
     estimated scf accuracy    <       0.00000218 Ry

     iteration # 14     ecut=    30.00 Ry     beta=0.70
     Davidson diagonalization with overlap
     ethr =  2.73E-08,  avg # of iterations =  1.0

     total cpu time spent up to now is        5.9 secs

     total energy              =     -31.49016559 Ry
     Harris-Foulkes estimate   =     -31.49016561 Ry
     estimated scf accuracy    <       0.00000003 Ry

     iteration # 15     ecut=    30.00 Ry     beta=0.70
     Davidson diagonalization with overlap
     ethr =  3.63E-10,  avg # of iterations =  1.0

     total cpu time spent up to now is        5.9 secs

     End of self-consistent calculation

          k = 0.0000 0.0000 0.0000 ( 22119 PWs)   bands (ev):

   -23.6386  -7.0462  -7.0456  -7.0453  -6.9674  -6.9150  -0.2400   0.5473

     the Fermi energy is    -6.9114 ev

!    total energy              =     -31.49016555 Ry
     Harris-Foulkes estimate   =     -31.49016559 Ry
     estimated scf accuracy    <          7.6E-09 Ry

     convergence has been achieved in  15 iterations

     Forces acting on atoms (Ry/au):

     atom    1 type  1   force =     0.00027368    0.00002549   -0.00002522
     atom    2 type  1   force =     0.00048241    0.00015790   -0.00007387
     atom    3 type  2   force =    -0.00075609   -0.00018340    0.00009909

     Total force =     0.000977     Total SCF correction =     0.000146
     SCF correction compared to forces is large: reduce conv_thr to get better values

     Entering Dynamics:    iteration =     6
                           time      =   0.0290 pico-seconds


     Andersen thermostat:    3 collisions

ATOMIC_POSITIONS (bohr)
H       12.383376479  11.204050708  11.938928416
H        4.003249874   8.733376817  15.499859963
O       18.304438095   4.924031541   4.983109106


     kinetic energy (Ekin) =     0.03353300 Ry
     temperature           =  1764.81164566 K 
     Ekin + Etot (const)   =   -31.45663256 Ry
     Message from routine dynamics:
     Total linear momentum <> 0

     Linear momentum :    0.0271839412   -0.0722010692   -0.2133873842

     Writing output data file pwscf.save

     second order wave-functions extrapolation
     Check: negative starting charge=   -0.352145
     second order charge density extrapolation
     Check: negative starting charge=   -0.350544

     negative rho (up, down):  8.749E-02 0.000E+00

     total cpu time spent up to now is        6.2 secs

     per-process dynamical memory:    20.4 Mb

     Self-consistent Calculation

     iteration #  1     ecut=    30.00 Ry     beta=0.70
     Davidson diagonalization with overlap
     c_bands:  1 eigenvalues not converged
     ethr =  1.00E-06,  avg # of iterations = 20.0

     negative rho (up, down):  1.983E-02 0.000E+00

     total cpu time spent up to now is        6.3 secs

     total energy              =     -31.31749721 Ry
     Harris-Foulkes estimate   =     -31.44128136 Ry
     estimated scf accuracy    <       0.19935197 Ry

     iteration #  2     ecut=    30.00 Ry     beta=0.70
     Davidson diagonalization with overlap
     ethr =  2.49E-03,  avg # of iterations =  2.0

     negative rho (up, down):  1.756E-02 0.000E+00

     total cpu time spent up to now is        6.4 secs

     total energy              =     -31.36084915 Ry
     Harris-Foulkes estimate   =     -32.00100651 Ry
     estimated scf accuracy    <       3.58608997 Ry

     iteration #  3     ecut=    30.00 Ry     beta=0.70
     Davidson diagonalization with overlap
     ethr =  2.49E-03,  avg # of iterations =  2.0

     negative rho (up, down):  1.498E-02 0.000E+00

     total cpu time spent up to now is        6.4 secs

     total energy              =     -31.56771186 Ry
     Harris-Foulkes estimate   =     -31.87920025 Ry
     estimated scf accuracy    <       1.58853539 Ry

     iteration #  4     ecut=    30.00 Ry     beta=0.70
     Davidson diagonalization with overlap
     ethr =  2.49E-03,  avg # of iterations =  1.0

     negative rho (up, down):  1.446E-02 0.000E+00

     total cpu time spent up to now is        6.4 secs

     total energy              =     -31.51871777 Ry
     Harris-Foulkes estimate   =     -31.57194096 Ry
     estimated scf accuracy    <       1.29166314 Ry

     iteration #  5     ecut=    30.00 Ry     beta=0.70
     Davidson diagonalization with overlap
     ethr =  2.49E-03,  avg # of iterations =  1.0

     negative rho (up, down):  1.313E-02 0.000E+00

     total cpu time spent up to now is        6.5 secs

     total energy              =     -31.46388307 Ry
     Harris-Foulkes estimate   =     -31.52672287 Ry
     estimated scf accuracy    <       0.69016545 Ry

     iteration #  6     ecut=    30.00 Ry     beta=0.70
     Davidson diagonalization with overlap
     ethr =  2.49E-03,  avg # of iterations =  1.0

     negative rho (up, down):  3.399E-03 0.000E+00

     total cpu time spent up to now is        6.5 secs

     total energy              =     -31.48284759 Ry
     Harris-Foulkes estimate   =     -31.48352223 Ry
     estimated scf accuracy    <       0.51237951 Ry

     iteration #  7     ecut=    30.00 Ry     beta=0.70
     Davidson diagonalization with overlap
     ethr =  2.49E-03,  avg # of iterations =  1.0

     negative rho (up, down):  1.972E-03 0.000E+00

     total cpu time spent up to now is        6.5 secs

     total energy              =     -31.46256340 Ry
     Harris-Foulkes estimate   =     -31.50173126 Ry
     estimated scf accuracy    <       0.76269182 Ry

     iteration #  8     ecut=    30.00 Ry     beta=0.70
     Davidson diagonalization with overlap
     ethr =  2.49E-03,  avg # of iterations =  1.0

     negative rho (up, down):  5.102E-04 0.000E+00

     total cpu time spent up to now is        6.6 secs

     total energy              =     -31.48955713 Ry
     Harris-Foulkes estimate   =     -31.49385753 Ry
     estimated scf accuracy    <       0.33013064 Ry

     iteration #  9     ecut=    30.00 Ry     beta=0.70
     Davidson diagonalization with overlap
     ethr =  2.49E-03,  avg # of iterations =  1.0

     negative rho (up, down):  2.367E-05 0.000E+00

     total cpu time spent up to now is        6.6 secs

     total energy              =     -31.49611946 Ry
     Harris-Foulkes estimate   =     -31.49539517 Ry
     estimated scf accuracy    <       0.30907578 Ry

     iteration # 10     ecut=    30.00 Ry     beta=0.70
     Davidson diagonalization with overlap
     ethr =  2.49E-03,  avg # of iterations =  1.0

     negative rho (up, down):  7.201E-05 0.000E+00

     total cpu time spent up to now is        6.6 secs

     total energy              =     -31.50013000 Ry
     Harris-Foulkes estimate   =     -31.49932170 Ry
     estimated scf accuracy    <       0.81370369 Ry

     iteration # 11     ecut=    30.00 Ry     beta=0.70
     Davidson diagonalization with overlap
     ethr =  2.49E-03,  avg # of iterations =  1.0

     negative rho (up, down):  3.145E-08 0.000E+00

     total cpu time spent up to now is        6.7 secs

     total energy              =     -31.47777084 Ry
     Harris-Foulkes estimate   =     -31.50014988 Ry
     estimated scf accuracy    <       0.88598293 Ry

     iteration # 12     ecut=    30.00 Ry     beta=0.70
     Davidson diagonalization with overlap
     ethr =  2.49E-03,  avg # of iterations =  1.0

     negative rho (up, down):  1.963E-08 0.000E+00

     total cpu time spent up to now is        6.7 secs

     total energy              =     -31.49191766 Ry
     Harris-Foulkes estimate   =     -31.49204702 Ry
     estimated scf accuracy    <       0.10928988 Ry

     iteration # 13     ecut=    30.00 Ry     beta=0.70
     Davidson diagonalization with overlap
     ethr =  1.37E-03,  avg # of iterations =  1.0

     negative rho (up, down):  1.105E-06 0.000E+00

     total cpu time spent up to now is        6.7 secs

     total energy              =     -31.48912547 Ry
     Harris-Foulkes estimate   =     -31.49234625 Ry
     estimated scf accuracy    <       0.11369584 Ry

     iteration # 14     ecut=    30.00 Ry     beta=0.70
     Davidson diagonalization with overlap
     ethr =  1.37E-03,  avg # of iterations =  1.0

     negative rho (up, down):  1.065E-07 0.000E+00

     total cpu time spent up to now is        6.8 secs

     total energy              =     -31.48992684 Ry
     Harris-Foulkes estimate   =     -31.49033590 Ry
     estimated scf accuracy    <       0.01355592 Ry

     iteration # 15     ecut=    30.00 Ry     beta=0.70
     Davidson diagonalization with overlap
     ethr =  1.69E-04,  avg # of iterations =  1.0

     negative rho (up, down):  5.473E-08 0.000E+00

     total cpu time spent up to now is        6.8 secs

     total energy              =     -31.49013057 Ry
     Harris-Foulkes estimate   =     -31.49013164 Ry
     estimated scf accuracy    <       0.00052552 Ry

     iteration # 16     ecut=    30.00 Ry     beta=0.70
     Davidson diagonalization with overlap
     ethr =  6.57E-06,  avg # of iterations = 13.0

     total cpu time spent up to now is        6.8 secs

     total energy              =     -31.49012140 Ry
     Harris-Foulkes estimate   =     -31.49013075 Ry
     estimated scf accuracy    <       0.00039681 Ry

     iteration # 17     ecut=    30.00 Ry     beta=0.70
     Davidson diagonalization with overlap
     ethr =  4.96E-06,  avg # of iterations =  1.0

     total cpu time spent up to now is        6.9 secs

     total energy              =     -31.49012660 Ry
     Harris-Foulkes estimate   =     -31.49012689 Ry
     estimated scf accuracy    <       0.00002753 Ry

     iteration # 18     ecut=    30.00 Ry     beta=0.70
     Davidson diagonalization with overlap
     ethr =  3.44E-07,  avg # of iterations =  1.0

     total cpu time spent up to now is        6.9 secs

     total energy              =     -31.49012724 Ry
     Harris-Foulkes estimate   =     -31.49012716 Ry
     estimated scf accuracy    <       0.00001746 Ry

     iteration # 19     ecut=    30.00 Ry     beta=0.70
     Davidson diagonalization with overlap
     ethr =  2.18E-07,  avg # of iterations =  1.0

     total cpu time spent up to now is        6.9 secs

     total energy              =     -31.49012717 Ry
     Harris-Foulkes estimate   =     -31.49012725 Ry
     estimated scf accuracy    <       0.00001367 Ry

     iteration # 20     ecut=    30.00 Ry     beta=0.70
     Davidson diagonalization with overlap
     ethr =  1.71E-07,  avg # of iterations =  1.0

     total cpu time spent up to now is        7.0 secs

     total energy              =     -31.49012835 Ry
     Harris-Foulkes estimate   =     -31.49012718 Ry
     estimated scf accuracy    <       0.00001181 Ry

     iteration # 21     ecut=    30.00 Ry     beta=0.70
     Davidson diagonalization with overlap
     ethr =  1.48E-07,  avg # of iterations =  1.0

     total cpu time spent up to now is        7.0 secs

     total energy              =     -31.49012844 Ry
     Harris-Foulkes estimate   =     -31.49012856 Ry
     estimated scf accuracy    <       0.00000015 Ry

     iteration # 22     ecut=    30.00 Ry     beta=0.70
     Davidson diagonalization with overlap
     ethr =  1.90E-09,  avg # of iterations =  1.0

     total cpu time spent up to now is        7.0 secs

     End of self-consistent calculation

          k = 0.0000 0.0000 0.0000 ( 22119 PWs)   bands (ev):

   -23.6323  -7.0404  -7.0398  -7.0393  -6.9556  -6.9142  -0.2384   0.5327

     the Fermi energy is    -6.9053 ev

!    total energy              =     -31.49012855 Ry
     Harris-Foulkes estimate   =     -31.49012845 Ry
     estimated scf accuracy    <          3.3E-09 Ry

     convergence has been achieved in  22 iterations

     Forces acting on atoms (Ry/au):

     atom    1 type  1   force =     0.00049805    0.00082779    0.00003135
     atom    2 type  1   force =     0.00046550    0.00084898    0.00007499
     atom    3 type  2   force =    -0.00096355   -0.00167677   -0.00010634

     Total force =     0.002372     Total SCF correction =     0.000712
     SCF correction compared to forces is large: reduce conv_thr to get better values

     Entering Dynamics:    iteration =     7
                           time      =   0.0339 pico-seconds


     Andersen thermostat:    3 collisions

ATOMIC_POSITIONS (bohr)
H       12.343271719  11.250348684  12.311504042
H        3.965503989   8.578823889  15.864491360
O       18.309352417   4.930865135   4.936572913


     kinetic energy (Ekin) =     0.01708883 Ry
     temperature           =   899.36968247 K 
     Ekin + Etot (const)   =   -31.47303973 Ry
     Message from routine dynamics:
     Total linear momentum <> 0

     Linear momentum :    0.1594201294   -0.0313115487    0.3185687409

     Writing output data file pwscf.save

     second order wave-functions extrapolation
     Check: negative starting charge=   -0.350544
     second order charge density extrapolation
     Check: negative starting charge=   -0.350849

     negative rho (up, down):  8.223E-02 0.000E+00

     total cpu time spent up to now is        7.3 secs

     per-process dynamical memory:    20.4 Mb

     Self-consistent Calculation

     iteration #  1     ecut=    30.00 Ry     beta=0.70
     Davidson diagonalization with overlap
     c_bands:  1 eigenvalues not converged
     ethr =  1.00E-06,  avg # of iterations = 20.0

     negative rho (up, down):  1.855E-02 0.000E+00

     total cpu time spent up to now is        7.4 secs

     total energy              =     -31.43710218 Ry
     Harris-Foulkes estimate   =     -31.42686180 Ry
     estimated scf accuracy    <       0.04423633 Ry

     iteration #  2     ecut=    30.00 Ry     beta=0.70
     Davidson diagonalization with overlap
     ethr =  5.53E-04,  avg # of iterations =  2.0

     negative rho (up, down):  1.705E-02 0.000E+00

     total cpu time spent up to now is        7.5 secs

     total energy              =     -31.47993720 Ry
     Harris-Foulkes estimate   =     -31.95532814 Ry
     estimated scf accuracy    <       4.39760410 Ry

     iteration #  3     ecut=    30.00 Ry     beta=0.70
     Davidson diagonalization with overlap
     ethr =  5.53E-04,  avg # of iterations =  2.0

     negative rho (up, down):  1.671E-02 0.000E+00

     total cpu time spent up to now is        7.5 secs

     total energy              =     -31.47692607 Ry
     Harris-Foulkes estimate   =     -31.48668809 Ry
     estimated scf accuracy    <       1.31556101 Ry

     iteration #  4     ecut=    30.00 Ry     beta=0.70
     Davidson diagonalization with overlap
     ethr =  5.53E-04,  avg # of iterations =  1.0

     negative rho (up, down):  8.756E-03 0.000E+00

     total cpu time spent up to now is        7.5 secs

     total energy              =     -31.40898921 Ry
     Harris-Foulkes estimate   =     -31.48007648 Ry
     estimated scf accuracy    <       0.69711664 Ry

     iteration #  5     ecut=    30.00 Ry     beta=0.70
     Davidson diagonalization with overlap
     ethr =  5.53E-04,  avg # of iterations =  1.0

     negative rho (up, down):  3.306E-03 0.000E+00

     total cpu time spent up to now is        7.6 secs

     total energy              =     -31.46377689 Ry
     Harris-Foulkes estimate   =     -31.58967024 Ry
     estimated scf accuracy    <       2.90084613 Ry

     iteration #  6     ecut=    30.00 Ry     beta=0.70
     Davidson diagonalization with overlap
     ethr =  5.53E-04,  avg # of iterations =  1.0

     negative rho (up, down):  8.968E-04 0.000E+00

     total cpu time spent up to now is        7.6 secs

     total energy              =     -31.49085541 Ry
     Harris-Foulkes estimate   =     -31.48837066 Ry
     estimated scf accuracy    <       0.09237721 Ry

     iteration #  7     ecut=    30.00 Ry     beta=0.70
     Davidson diagonalization with overlap
     ethr =  5.53E-04,  avg # of iterations =  1.0

     negative rho (up, down):  5.279E-04 0.000E+00

     total cpu time spent up to now is        7.6 secs

     total energy              =     -31.49004540 Ry
     Harris-Foulkes estimate   =     -31.49090864 Ry
     estimated scf accuracy    <       0.10154156 Ry

     iteration #  8     ecut=    30.00 Ry     beta=0.70
     Davidson diagonalization with overlap
     ethr =  5.53E-04,  avg # of iterations =  1.0

     negative rho (up, down):  1.821E-06 0.000E+00

     total cpu time spent up to now is        7.7 secs

     total energy              =     -31.48980945 Ry
     Harris-Foulkes estimate   =     -31.49031739 Ry
     estimated scf accuracy    <       0.02250152 Ry

     iteration #  9     ecut=    30.00 Ry     beta=0.70
     Davidson diagonalization with overlap
     ethr =  2.81E-04,  avg # of iterations =  3.0

     total cpu time spent up to now is        7.7 secs

     total energy              =     -31.49025370 Ry
     Harris-Foulkes estimate   =     -31.49018423 Ry
     estimated scf accuracy    <       0.00268211 Ry

     iteration # 10     ecut=    30.00 Ry     beta=0.70
     Davidson diagonalization with overlap
     ethr =  3.35E-05,  avg # of iterations = 12.0

     total cpu time spent up to now is        7.9 secs

     total energy              =     -31.49002090 Ry
     Harris-Foulkes estimate   =     -31.49030237 Ry
     estimated scf accuracy    <       0.01559082 Ry

     iteration # 11     ecut=    30.00 Ry     beta=0.70
     Davidson diagonalization with overlap
     ethr =  3.35E-05,  avg # of iterations =  1.0

     total cpu time spent up to now is        7.9 secs

     total energy              =     -31.49016133 Ry
     Harris-Foulkes estimate   =     -31.49016122 Ry
     estimated scf accuracy    <       0.00000056 Ry

     iteration # 12     ecut=    30.00 Ry     beta=0.70
     Davidson diagonalization with overlap
     ethr =  6.99E-09,  avg # of iterations =  5.0

     total cpu time spent up to now is        8.0 secs

     total energy              =     -31.49013805 Ry
     Harris-Foulkes estimate   =     -31.49017900 Ry
     estimated scf accuracy    <       0.00193892 Ry

     iteration # 13     ecut=    30.00 Ry     beta=0.70
     Davidson diagonalization with overlap
     ethr =  6.99E-09,  avg # of iterations =  2.0

     total cpu time spent up to now is        8.0 secs

     total energy              =     -31.49016257 Ry
     Harris-Foulkes estimate   =     -31.49016197 Ry
     estimated scf accuracy    <       0.00005379 Ry

     iteration # 14     ecut=    30.00 Ry     beta=0.70
     Davidson diagonalization with overlap
     ethr =  6.99E-09,  avg # of iterations =  1.0

     total cpu time spent up to now is        8.0 secs

     total energy              =     -31.49016029 Ry
     Harris-Foulkes estimate   =     -31.49016271 Ry
     estimated scf accuracy    <       0.00012687 Ry

     iteration # 15     ecut=    30.00 Ry     beta=0.70
     Davidson diagonalization with overlap
     ethr =  6.99E-09,  avg # of iterations =  1.0

     total cpu time spent up to now is        8.1 secs

     total energy              =     -31.49016139 Ry
     Harris-Foulkes estimate   =     -31.49016142 Ry
     estimated scf accuracy    <       0.00000001 Ry

     iteration # 16     ecut=    30.00 Ry     beta=0.70
     Davidson diagonalization with overlap
     ethr =  1.42E-10,  avg # of iterations =  2.0

     total cpu time spent up to now is        8.1 secs

     End of self-consistent calculation

          k = 0.0000 0.0000 0.0000 ( 22119 PWs)   bands (ev):

   -23.6315  -7.0400  -7.0392  -7.0388  -6.9546  -6.9144  -0.2385   0.5363

     the Fermi energy is    -6.9049 ev

!    total energy              =     -31.49016144 Ry
     Harris-Foulkes estimate   =     -31.49016139 Ry
     estimated scf accuracy    <          8.7E-10 Ry

     convergence has been achieved in  16 iterations

     Forces acting on atoms (Ry/au):

     atom    1 type  1   force =     0.00025457    0.00050464    0.00046854
     atom    2 type  1   force =     0.00019852    0.00053641    0.00057089
     atom    3 type  2   force =    -0.00045309   -0.00104105   -0.00103943

     Total force =     0.001887     Total SCF correction =     0.000090

     Entering Dynamics:    iteration =     8
                           time      =   0.0387 pico-seconds


     Andersen thermostat:    3 collisions

ATOMIC_POSITIONS (bohr)
H       12.506530809  11.030153018  12.063179244
H        3.847419342   8.767464757  15.426117643
O       18.306500780   4.932857032   4.979920757


     kinetic energy (Ekin) =     0.02206767 Ry
     temperature           =  1161.40189094 K 
     Ekin + Etot (const)   =   -31.46809376 Ry
     Message from routine dynamics:
     Total linear momentum <> 0

     Linear momentum :    0.2597879121   -0.3234138334   -0.2818626839

     Writing output data file pwscf.save

     second order wave-functions extrapolation
     Check: negative starting charge=   -0.350849
     second order charge density extrapolation
     Check: negative starting charge=   -0.350264

     negative rho (up, down):  1.985E-02 0.000E+00

     total cpu time spent up to now is        8.4 secs

     per-process dynamical memory:    20.4 Mb

     Self-consistent Calculation

     iteration #  1     ecut=    30.00 Ry     beta=0.70
     Davidson diagonalization with overlap
     ethr =  1.00E-06,  avg # of iterations = 18.0

     negative rho (up, down):  4.046E-03 0.000E+00

     total cpu time spent up to now is        8.5 secs

     total energy              =     -31.47890675 Ry
     Harris-Foulkes estimate   =     -31.46954557 Ry
     estimated scf accuracy    <       0.00933113 Ry

     iteration #  2     ecut=    30.00 Ry     beta=0.70
     Davidson diagonalization with overlap
     ethr =  1.17E-04,  avg # of iterations =  4.0

     negative rho (up, down):  3.867E-03 0.000E+00

     total cpu time spent up to now is        8.6 secs

     total energy              =     -31.46851216 Ry
     Harris-Foulkes estimate   =     -31.68736162 Ry
     estimated scf accuracy    <       3.93569931 Ry

     iteration #  3     ecut=    30.00 Ry     beta=0.70
     Davidson diagonalization with overlap
     ethr =  1.17E-04,  avg # of iterations =  2.0

     negative rho (up, down):  3.765E-03 0.000E+00

     total cpu time spent up to now is        8.6 secs

     total energy              =     -31.48094006 Ry
     Harris-Foulkes estimate   =     -31.49581507 Ry
     estimated scf accuracy    <       0.49206385 Ry

     iteration #  4     ecut=    30.00 Ry     beta=0.70
[...]
     Harris-Foulkes estimate   =     -32.46121771 Ry
     estimated scf accuracy    <       2.59295246 Ry

     iteration # 59     ecut=    30.00 Ry     beta=0.70
     Davidson diagonalization with overlap
     ethr =  8.69E-03,  avg # of iterations =  1.0

     negative rho (up, down):  1.974E-01 0.000E+00

     total cpu time spent up to now is       13.2 secs

     total energy              =     -32.47984546 Ry
     Harris-Foulkes estimate   =     -32.43400028 Ry
     estimated scf accuracy    <       2.50637805 Ry

     iteration # 60     ecut=    30.00 Ry     beta=0.70
     Davidson diagonalization with overlap
     ethr =  8.69E-03,  avg # of iterations =  1.0

     negative rho (up, down):  1.978E-01 0.000E+00

     total cpu time spent up to now is       13.2 secs

     total energy              =     -32.44117532 Ry
     Harris-Foulkes estimate   =     -32.48348918 Ry
     estimated scf accuracy    <       2.55385472 Ry

     iteration # 61     ecut=    30.00 Ry     beta=0.70
     Davidson diagonalization with overlap
     ethr =  8.69E-03,  avg # of iterations =  2.0

     negative rho (up, down):  2.084E-01 0.000E+00

     total cpu time spent up to now is       13.3 secs

     total energy              =     -32.49536743 Ry
     Harris-Foulkes estimate   =     -32.46782031 Ry
     estimated scf accuracy    <       2.60261653 Ry

     iteration # 62     ecut=    30.00 Ry     beta=0.70
     Davidson diagonalization with overlap
     ethr =  8.69E-03,  avg # of iterations =  2.0

     negative rho (up, down):  2.357E-01 0.000E+00

     total cpu time spent up to now is       13.3 secs

     total energy              =     -32.28373894 Ry
     Harris-Foulkes estimate   =     -32.51715334 Ry
     estimated scf accuracy    <       2.62893242 Ry

     iteration # 63     ecut=    30.00 Ry     beta=0.70
     Davidson diagonalization with overlap
     ethr =  8.69E-03,  avg # of iterations =  3.0

     negative rho (up, down):  5.312E-01 0.000E+00

     total cpu time spent up to now is       13.3 secs

     total energy              =     -37.63551674 Ry
     Harris-Foulkes estimate   =     -33.89598127 Ry
     estimated scf accuracy    <      10.03426370 Ry

     iteration # 64     ecut=    30.00 Ry     beta=0.70
     Davidson diagonalization with overlap
     ethr =  8.69E-03,  avg # of iterations =  6.0

     negative rho (up, down):  3.107E-01 0.000E+00

     total cpu time spent up to now is       13.4 secs

     total energy              =      -0.57537209 Ry
     Harris-Foulkes estimate   =    -138.04752478 Ry
     estimated scf accuracy    <      22.24074020 Ry

     iteration # 65     ecut=    30.00 Ry     beta=0.70
     Davidson diagonalization with overlap
     ethr =  8.69E-03,  avg # of iterations =  5.0

     negative rho (up, down):  4.937E-01 0.000E+00

     total cpu time spent up to now is       13.4 secs

     total energy              =       6.66200345 Ry
     Harris-Foulkes estimate   =    -105.47347866 Ry
     estimated scf accuracy    <      23.42115350 Ry

     iteration # 66     ecut=    30.00 Ry     beta=0.70
     Davidson diagonalization with overlap
     ethr =  8.69E-03,  avg # of iterations =  6.0

     negative rho (up, down):  1.874E-01 0.000E+00

     total cpu time spent up to now is       13.5 secs

     total energy              =      14.43643238 Ry
     Harris-Foulkes estimate   =     -52.72075029 Ry
     estimated scf accuracy    <      20.52807468 Ry

     iteration # 67     ecut=    30.00 Ry     beta=0.70
     Davidson diagonalization with overlap
     ethr =  8.69E-03,  avg # of iterations = 10.0

     negative rho (up, down):  2.950E-01 0.000E+00

     total cpu time spent up to now is       13.5 secs

     total energy              =     -25.96101493 Ry
     Harris-Foulkes estimate   =     -35.92824869 Ry
     estimated scf accuracy    <       7.64068492 Ry

     iteration # 68     ecut=    30.00 Ry     beta=0.70
     Davidson diagonalization with overlap
     ethr =  8.69E-03,  avg # of iterations = 12.0

     negative rho (up, down):  3.236E-01 0.000E+00

     total cpu time spent up to now is       13.6 secs

     total energy              =    -204.03670520 Ry
     Harris-Foulkes estimate   =    -238.50901502 Ry
     estimated scf accuracy    <      40.05870604 Ry

     iteration # 69     ecut=    30.00 Ry     beta=0.70
     Davidson diagonalization with overlap
     ethr =  8.69E-03,  avg # of iterations =  8.0

     negative rho (up, down):  4.652E-01 0.000E+00

     total cpu time spent up to now is       13.6 secs

     total energy              =    -503.66765065 Ry
     Harris-Foulkes estimate   =   -1201.74353595 Ry
     estimated scf accuracy    <      55.67920841 Ry

     iteration # 70     ecut=    30.00 Ry     beta=0.70
     Davidson diagonalization with overlap
     ethr =  8.69E-03,  avg # of iterations =  6.0

     negative rho (up, down):  4.609E-01 0.000E+00

     total cpu time spent up to now is       13.7 secs

     total energy              =    -554.94376248 Ry
     Harris-Foulkes estimate   =   -1314.40865462 Ry
     estimated scf accuracy    <      73.60415710 Ry

     iteration # 71     ecut=    30.00 Ry     beta=0.70
     Davidson diagonalization with overlap
     ethr =  8.69E-03,  avg # of iterations =  7.0

     negative rho (up, down):  1.089E+00 0.000E+00

     total cpu time spent up to now is       13.7 secs

     total energy              =      56.48887348 Ry
     Harris-Foulkes estimate   =   -2249.21881748 Ry
     estimated scf accuracy    <      61.70241956 Ry

     iteration # 72     ecut=    30.00 Ry     beta=0.70
     Davidson diagonalization with overlap
     ethr =  8.69E-03,  avg # of iterations =  7.0

     negative rho (up, down):  1.062E+00 0.000E+00

     total cpu time spent up to now is       13.8 secs

     total energy              =      43.40059478 Ry
     Harris-Foulkes estimate   =    -825.34775193 Ry
     estimated scf accuracy    <      58.55437478 Ry

     iteration # 73     ecut=    30.00 Ry     beta=0.70
     Davidson diagonalization with overlap
     ethr =  8.69E-03,  avg # of iterations =  9.0

     negative rho (up, down):  1.352E+00 0.000E+00

     total cpu time spent up to now is       13.9 secs

     total energy              =      37.35404091 Ry
     Harris-Foulkes estimate   =   -1441.02518595 Ry
     estimated scf accuracy    <      44.85229062 Ry

     iteration # 74     ecut=    30.00 Ry     beta=0.70
     Davidson diagonalization with overlap
     ethr =  8.69E-03,  avg # of iterations =  6.0

     negative rho (up, down):  1.616E+00 0.000E+00

     total cpu time spent up to now is       13.9 secs

     total energy              =      19.75498516 Ry
     Harris-Foulkes estimate   =    -699.69665543 Ry
     estimated scf accuracy    <      43.60186494 Ry

     iteration # 75     ecut=    30.00 Ry     beta=0.70
     Davidson diagonalization with overlap
     ethr =  8.69E-03,  avg # of iterations =  8.0

     negative rho (up, down):  1.676E+00 0.000E+00

     total cpu time spent up to now is       14.0 secs

     total energy              =      32.05261547 Ry
     Harris-Foulkes estimate   =   -1809.73412763 Ry
     estimated scf accuracy    <      45.16271028 Ry

     iteration # 76     ecut=    30.00 Ry     beta=0.70
     Davidson diagonalization with overlap
     ethr =  8.69E-03,  avg # of iterations =  8.0

     negative rho (up, down):  3.006E+00 0.000E+00

     total cpu time spent up to now is       14.1 secs

     total energy              =     -90.73668457 Ry
     Harris-Foulkes estimate   =  -11091.85365882 Ry
     estimated scf accuracy    <      39.96184779 Ry

     iteration # 77     ecut=    30.00 Ry     beta=0.70
     Davidson diagonalization with overlap
     ethr =  8.69E-03,  avg # of iterations =  9.0

     negative rho (up, down):  3.173E+00 0.000E+00

     total cpu time spent up to now is       14.2 secs

     total energy              =      74.32374740 Ry
     Harris-Foulkes estimate   =   -1557.44803089 Ry
     estimated scf accuracy    <      33.08399490 Ry

     iteration # 78     ecut=    30.00 Ry     beta=0.70
     Davidson diagonalization with overlap
     ethr =  8.69E-03,  avg # of iterations = 11.0

     negative rho (up, down):  2.883E+00 0.000E+00

     total cpu time spent up to now is       14.2 secs

     total energy              =     -18.38163468 Ry
     Harris-Foulkes estimate   =   -6638.55616217 Ry
     estimated scf accuracy    <      34.37764159 Ry

     iteration # 79     ecut=    30.00 Ry     beta=0.70
     Davidson diagonalization with overlap
     ethr =  8.69E-03,  avg # of iterations =  7.0

     negative rho (up, down):  2.414E+00 0.000E+00

     total cpu time spent up to now is       14.3 secs

     total energy              =     128.54779880 Ry
     Harris-Foulkes estimate   =  -41116.02381275 Ry
     estimated scf accuracy    <      24.93263781 Ry

     iteration # 80     ecut=    30.00 Ry     beta=0.70
     Davidson diagonalization with overlap
     ethr =  8.69E-03,  avg # of iterations = 13.0

     negative rho (up, down):  4.996E-01 0.000E+00

     total cpu time spent up to now is       14.3 secs

     total energy              =      83.69597482 Ry
     Harris-Foulkes estimate   =    -594.70999625 Ry
     estimated scf accuracy    <      36.47603310 Ry

     iteration # 81     ecut=    30.00 Ry     beta=0.70
     Davidson diagonalization with overlap
     ethr =  8.69E-03,  avg # of iterations =  9.0

     negative rho (up, down):  5.597E-01 0.000E+00

     total cpu time spent up to now is       14.4 secs

     total energy              =    -185.96346779 Ry
     Harris-Foulkes estimate   =   -2160.71424472 Ry
     estimated scf accuracy    <      20.03422354 Ry

     iteration # 82     ecut=    30.00 Ry     beta=0.70
     Davidson diagonalization with overlap
     ethr =  8.69E-03,  avg # of iterations =  6.0

     negative rho (up, down):  5.114E-01 0.000E+00

     total cpu time spent up to now is       14.5 secs

     total energy              =    -181.59393435 Ry
     Harris-Foulkes estimate   =   -8964.72111562 Ry
     estimated scf accuracy    <      22.87926842 Ry

     iteration # 83     ecut=    30.00 Ry     beta=0.70
     Davidson diagonalization with overlap
     ethr =  8.69E-03,  avg # of iterations =  9.0

     negative rho (up, down):  3.954E-01 0.000E+00

     total cpu time spent up to now is       14.5 secs

     total energy              =      92.46228249 Ry
     Harris-Foulkes estimate   =   -2373.11457701 Ry
     estimated scf accuracy    <      17.95894603 Ry

     iteration # 84     ecut=    30.00 Ry     beta=0.70
     Davidson diagonalization with overlap
     ethr =  8.69E-03,  avg # of iterations = 11.0

     negative rho (up, down):  6.019E-02 0.000E+00

     total cpu time spent up to now is       14.6 secs

     total energy              =      91.92574529 Ry
     Harris-Foulkes estimate   =    -753.77375482 Ry
     estimated scf accuracy    <      17.13638700 Ry

     iteration # 85     ecut=    30.00 Ry     beta=0.70
     Davidson diagonalization with overlap
     ethr =  8.69E-03,  avg # of iterations =  8.0

     negative rho (up, down):  6.865E-03 0.000E+00

     total cpu time spent up to now is       14.7 secs

     total energy              =      72.72332837 Ry
     Harris-Foulkes estimate   =    -214.81788570 Ry
     estimated scf accuracy    <      12.73686706 Ry

     iteration # 86     ecut=    30.00 Ry     beta=0.70
     Davidson diagonalization with overlap
     ethr =  8.69E-03,  avg # of iterations =  6.0

     negative rho (up, down):  4.678E-05 0.000E+00

     total cpu time spent up to now is       14.7 secs

     total energy              =     -21.81282401 Ry
     Harris-Foulkes estimate   =    -966.31383690 Ry
     estimated scf accuracy    <      41.72476253 Ry

     iteration # 87     ecut=    30.00 Ry     beta=0.70
     Davidson diagonalization with overlap
     ethr =  8.69E-03,  avg # of iterations =  7.0

     negative rho (up, down):  4.814E-06 0.000E+00

     total cpu time spent up to now is       14.8 secs

     total energy              =     -27.30040058 Ry
     Harris-Foulkes estimate   =    -102.15179701 Ry
     estimated scf accuracy    <      36.20734469 Ry

     iteration # 88     ecut=    30.00 Ry     beta=0.70
     Davidson diagonalization with overlap
     ethr =  8.69E-03,  avg # of iterations =  4.0

     negative rho (up, down):  2.219E-02 0.000E+00

     total cpu time spent up to now is       14.9 secs

     total energy              =    -127.55181494 Ry
     Harris-Foulkes estimate   =     -76.93999564 Ry
     estimated scf accuracy    <      61.33413399 Ry

     iteration # 89     ecut=    30.00 Ry     beta=0.70
     Davidson diagonalization with overlap
     ethr =  8.69E-03,  avg # of iterations =  4.0

     negative rho (up, down):  8.097E-03 0.000E+00

     total cpu time spent up to now is       14.9 secs

     total energy              =     -63.39028780 Ry
     Harris-Foulkes estimate   =    -231.59203004 Ry
     estimated scf accuracy    <      70.84444793 Ry

     iteration # 90     ecut=    30.00 Ry     beta=0.70
     Davidson diagonalization with overlap
     ethr =  8.69E-03,  avg # of iterations =  4.0

     negative rho (up, down):  3.197E-01 0.000E+00

     total cpu time spent up to now is       15.0 secs

     total energy              =    -129.19754098 Ry
     Harris-Foulkes estimate   =     -86.28761958 Ry
     estimated scf accuracy    <      65.45703214 Ry

     iteration # 91     ecut=    30.00 Ry     beta=0.70
     Davidson diagonalization with overlap
     ethr =  8.69E-03,  avg # of iterations =  5.0

     negative rho (up, down):  3.828E-01 0.000E+00

     total cpu time spent up to now is       15.1 secs

     total energy              =       9.43944856 Ry
     Harris-Foulkes estimate   =    -495.08558149 Ry
     estimated scf accuracy    <      71.99734692 Ry

     iteration # 92     ecut=    30.00 Ry     beta=0.70
     Davidson diagonalization with overlap
     ethr =  8.69E-03,  avg # of iterations =  5.0

     negative rho (up, down):  7.109E-01 0.000E+00

     total cpu time spent up to now is       15.2 secs

     total energy              =    -173.29489785 Ry
     Harris-Foulkes estimate   =    -886.89929756 Ry
     estimated scf accuracy    <      74.67839408 Ry

     iteration # 93     ecut=    30.00 Ry     beta=0.70
     Davidson diagonalization with overlap
     ethr =  8.69E-03,  avg # of iterations =  7.0

     negative rho (up, down):  1.383E+00 0.000E+00

     total cpu time spent up to now is       15.3 secs

     total energy              =   13387.21492300 Ry
     Harris-Foulkes estimate   =   -2698.44990181 Ry
     estimated scf accuracy    <      69.30936737 Ry

     iteration # 94     ecut=    30.00 Ry     beta=0.70
     Davidson diagonalization with overlap
     ethr =  8.69E-03,  avg # of iterations =  8.0

     negative rho (up, down):  1.605E+00 0.000E+00

     total cpu time spent up to now is       15.4 secs

     total energy              =     547.30840493 Ry
     Harris-Foulkes estimate   =   -2059.19495285 Ry
     estimated scf accuracy    <      70.68594061 Ry

     iteration # 95     ecut=    30.00 Ry     beta=0.70
     Davidson diagonalization with overlap
     ethr =  8.69E-03,  avg # of iterations = 10.0

     negative rho (up, down):  4.564E-01 0.000E+00

     total cpu time spent up to now is       15.5 secs

     total energy              =      98.38791513 Ry
     Harris-Foulkes estimate   =   -1371.27890134 Ry
     estimated scf accuracy    <      49.79000211 Ry

     iteration # 96     ecut=    30.00 Ry     beta=0.70
     Davidson diagonalization with overlap
     ethr =  8.69E-03,  avg # of iterations =  7.0

     negative rho (up, down):  1.350E+00 0.000E+00

     total cpu time spent up to now is       15.6 secs

     total energy              =    -656.98839141 Ry
     Harris-Foulkes estimate   =    -620.47738538 Ry
     estimated scf accuracy    <      55.20834895 Ry

     iteration # 97     ecut=    30.00 Ry     beta=0.70
     Davidson diagonalization with overlap
     ethr =  8.69E-03,  avg # of iterations = 10.0

     negative rho (up, down):  7.996E-01 0.000E+00

     total cpu time spent up to now is       15.6 secs

     total energy              =      73.17701897 Ry
     Harris-Foulkes estimate   =   -6650.41519290 Ry
     estimated scf accuracy    <      19.44586526 Ry

     iteration # 98     ecut=    30.00 Ry     beta=0.70
     Davidson diagonalization with overlap
     ethr =  8.69E-03,  avg # of iterations =  9.0

     negative rho (up, down):  2.742E-01 0.000E+00

     total cpu time spent up to now is       15.7 secs

     total energy              =      86.49623851 Ry
     Harris-Foulkes estimate   =    -752.75133037 Ry
     estimated scf accuracy    <      27.48233208 Ry

     iteration # 99     ecut=    30.00 Ry     beta=0.70
     Davidson diagonalization with overlap
     ethr =  8.69E-03,  avg # of iterations =  7.0

     negative rho (up, down):  2.207E-01 0.000E+00

     total cpu time spent up to now is       15.8 secs

     total energy              =     -96.68432343 Ry
     Harris-Foulkes estimate   =    -650.07770540 Ry
     estimated scf accuracy    <      29.31697613 Ry

     iteration #100     ecut=    30.00 Ry     beta=0.70
     Davidson diagonalization with overlap
     ethr =  8.69E-03,  avg # of iterations = 10.0

     negative rho (up, down):  1.376E-01 0.000E+00

     total cpu time spent up to now is       15.8 secs

     total energy              =      82.56822681 Ry
     Harris-Foulkes estimate   =   -2017.50177300 Ry
     estimated scf accuracy    <      32.68517685 Ry

     End of self-consistent calculation

     convergence NOT achieved after 100 iterations: stopping

     Writing output data file pwscf.save
 
     init_run     :      0.09s CPU      0.11s WALL (       1 calls)
     electrons    :     10.02s CPU     12.99s WALL (      11 calls)
     update_pot   :      1.29s CPU      1.77s WALL (      10 calls)
     forces       :      0.26s CPU      0.27s WALL (      10 calls)

     Called by init_run:
     wfcinit      :      0.01s CPU      0.02s WALL (       1 calls)
     potinit      :      0.03s CPU      0.03s WALL (       1 calls)

     Called by electrons:
     c_bands      :      4.43s CPU      4.92s WALL (     306 calls)
     sum_band     :      0.91s CPU      0.97s WALL (     306 calls)
     v_of_rho     :      2.24s CPU      2.39s WALL (     317 calls)
     mix_rho      :      2.05s CPU      3.48s WALL (     306 calls)

     Called by c_bands:
     init_us_2    :      0.03s CPU      0.04s WALL (     613 calls)
     cegterg      :      4.35s CPU      4.75s WALL (     306 calls)

     Called by sum_band:

     Called by *egterg:
     h_psi        :      3.69s CPU      3.97s WALL (    1251 calls)
     g_psi        :      0.03s CPU      0.03s WALL (     944 calls)
     cdiaghg      :      0.25s CPU      0.33s WALL (    1240 calls)

     Called by h_psi:
     h_psi:pot    :      3.67s CPU      3.95s WALL (    1251 calls)
     h_psi:calbec :      0.12s CPU      0.27s WALL (    1251 calls)
     vloc_psi     :      3.53s CPU      3.66s WALL (    1251 calls)
     add_vuspsi   :      0.01s CPU      0.01s WALL (    1251 calls)

     General routines
     calbec       :      0.19s CPU      0.38s WALL (    1300 calls)
     fft          :      1.59s CPU      1.71s WALL (    3507 calls)
     fftw         :      3.77s CPU      3.93s WALL (   16258 calls)
     davcio       :      0.33s CPU      1.22s WALL (    5154 calls)
 
     Parallel routines
     fft_scatter  :      2.20s CPU      2.38s WALL (   19765 calls)
 
     PWSCF        :    11.99s CPU        15.92s WALL

 
   This run was terminated on:   0:44:56  11Feb2018            

=------------------------------------------------------------------------------=
   JOB DONE.
=------------------------------------------------------------------------------=
