
     Program PWSCF v.6.0 (svn rev. 13079) starts on 11Feb2018 at  0:44:57 

     This program is part of the open-source Quantum ESPRESSO suite
     for quantum simulation of materials; please cite
         "P. Giannozzi et al., J. Phys.:Condens. Matter 21 395502 (2009);
          URL http://www.quantum-espresso.org", 
     in publications or presentations arising from this work. More details at
     http://www.quantum-espresso.org/quote

     Parallel version (MPI), running on    28 processors
     R & G space division:  proc/nbgrp/npool/nimage =      28
     Reading input from inputs/water-1-md/228.in

     Current dimensions of program PWSCF are:
     Max number of different atomic species (ntypx) = 10
     Max number of k-points (npk) =  40000
     Max angular momentum in pseudopotentials (lmaxx) =  3

     Subspace diagonalization in iterative solution of the eigenvalue problem:
     a serial algorithm will be used

 
     Parallelization info
     --------------------
     sticks:   dense  smooth     PW     G-vecs:    dense   smooth      PW
     Min         136     136     33                 6338     6338     787
     Max         137     137     34                 6341     6341     792
     Sum        3809    3809    949               177509   177509   22119
 


     bravais-lattice index     =            1
     lattice parameter (alat)  =      20.0000  a.u.
     unit-cell volume          =    8000.0000 (a.u.)^3
     number of atoms/cell      =            3
     number of atomic types    =            2
     number of electrons       =         8.00
     number of Kohn-Sham states=            8
     kinetic-energy cutoff     =      30.0000  Ry
     charge density cutoff     =     120.0000  Ry
     convergence threshold     =      1.0E-08
     mixing beta               =       0.7000
     number of iterations used =            8  plain     mixing
     Exchange-correlation      = BLYP ( 1  3  1  3 0 0)
     nstep                     =         5000


     celldm(1)=  20.000000  celldm(2)=   0.000000  celldm(3)=   0.000000
     celldm(4)=   0.000000  celldm(5)=   0.000000  celldm(6)=   0.000000

     crystal axes: (cart. coord. in units of alat)
               a(1) = (   1.000000   0.000000   0.000000 )  
               a(2) = (   0.000000   1.000000   0.000000 )  
               a(3) = (   0.000000   0.000000   1.000000 )  

     reciprocal axes: (cart. coord. in units 2 pi/alat)
               b(1) = (  1.000000  0.000000  0.000000 )  
               b(2) = (  0.000000  1.000000  0.000000 )  
               b(3) = (  0.000000  0.000000  1.000000 )  


     PseudoPot. # 1 for  H read from file:
     ./H.blyp-hgh.UPF
     MD5 check sum: c576e69559cde411e611be972c763230
     Pseudo is Norm-conserving, Zval =  1.0
     Generated in analytical, separable form
     Using radial grid of  929 points,  0 beta functions with: 

     PseudoPot. # 2 for  O read from file:
     ./O.blyp-hgh.UPF
     MD5 check sum: d0b7156309aa9befef28faac7bc56342
     Pseudo is Norm-conserving, Zval =  6.0
     Generated in analytical, separable form
     Using radial grid of 1095 points,  1 beta functions with: 
                l(1) =   0

     atomic species   valence    mass     pseudopotential
        H              1.00     1.01000      H( 1.00)
        O              6.00    16.00000      O( 1.00)

     No symmetry found



   Cartesian axes

     site n.     atom                  positions (alat units)
         1           H   tau(   1) = (   0.5386962   0.3415922   0.6812349  )
         2           H   tau(   2) = (   0.5557914   0.2097736   0.2066287  )
         3           O   tau(   3) = (   0.3079157   0.6232736   0.3285696  )

     number of k points=     1  Marzari-Vanderbilt smearing, width (Ry)=  0.0250
                       cart. coord. in units 2pi/alat
        k(    1) = (   0.0000000   0.0000000   0.0000000), wk =   2.0000000

     Dense  grid:   177509 G-vectors     FFT dimensions: (  72,  72,  72)

     Estimated max dynamical RAM per process >       6.09Mb

     Estimated total allocated dynamical RAM >     170.64Mb

     Initial potential from superposition of free atoms
     Check: negative starting charge=   -0.348295

     starting charge    7.99998, renormalised to    8.00000

     negative rho (up, down):  3.483E-01 0.000E+00
     Starting wfc are    6 randomized atomic wfcs +    2 random wfc

     total cpu time spent up to now is        0.2 secs

     per-process dynamical memory:    18.8 Mb

     Self-consistent Calculation

     iteration #  1     ecut=    30.00 Ry     beta=0.70
     Davidson diagonalization with overlap
     ethr =  1.00E-02,  avg # of iterations =  7.0

     negative rho (up, down):  8.382E-02 0.000E+00

     total cpu time spent up to now is        0.3 secs

     total energy              =     -28.06726114 Ry
     Harris-Foulkes estimate   =     -32.08088806 Ry
     estimated scf accuracy    <       4.60626782 Ry

     iteration #  2     ecut=    30.00 Ry     beta=0.70
     Davidson diagonalization with overlap
     ethr =  1.00E-02,  avg # of iterations =  4.0

     negative rho (up, down):  6.141E-02 0.000E+00

     total cpu time spent up to now is        0.3 secs

     total energy              =     -32.65616078 Ry
     Harris-Foulkes estimate   =     -37.96528056 Ry
     estimated scf accuracy    <      12.93331675 Ry

     iteration #  3     ecut=    30.00 Ry     beta=0.70
     Davidson diagonalization with overlap
     ethr =  1.00E-02,  avg # of iterations =  2.0

     negative rho (up, down):  6.334E-02 0.000E+00

     total cpu time spent up to now is        0.3 secs

     total energy              =     -33.20466351 Ry
     Harris-Foulkes estimate   =     -32.99575900 Ry
     estimated scf accuracy    <       5.00713935 Ry

     iteration #  4     ecut=    30.00 Ry     beta=0.70
     Davidson diagonalization with overlap
     ethr =  1.00E-02,  avg # of iterations =  1.0

     negative rho (up, down):  2.553E-02 0.000E+00

     total cpu time spent up to now is        0.4 secs

     total energy              =     -30.21545314 Ry
     Harris-Foulkes estimate   =     -33.20523617 Ry
     estimated scf accuracy    <       5.31498734 Ry

     iteration #  5     ecut=    30.00 Ry     beta=0.70
     Davidson diagonalization with overlap
     ethr =  1.00E-02,  avg # of iterations =  5.0

     negative rho (up, down):  2.342E-02 0.000E+00

     total cpu time spent up to now is        0.4 secs

     total energy              =     -33.20081426 Ry
     Harris-Foulkes estimate   =     -33.24077087 Ry
     estimated scf accuracy    <      13.36485223 Ry

     iteration #  6     ecut=    30.00 Ry     beta=0.70
     Davidson diagonalization with overlap
     ethr =  1.00E-02,  avg # of iterations =  1.0

     negative rho (up, down):  6.630E-02 0.000E+00

     total cpu time spent up to now is        0.4 secs

     total energy              =     -33.00456234 Ry
     Harris-Foulkes estimate   =     -33.20679801 Ry
     estimated scf accuracy    <      13.08082379 Ry

     iteration #  7     ecut=    30.00 Ry     beta=0.70
     Davidson diagonalization with overlap
     ethr =  1.00E-02,  avg # of iterations =  1.0

     negative rho (up, down):  7.821E-03 0.000E+00

     total cpu time spent up to now is        0.5 secs

     total energy              =     -32.52659564 Ry
     Harris-Foulkes estimate   =     -33.04351206 Ry
     estimated scf accuracy    <       7.42504940 Ry

     iteration #  8     ecut=    30.00 Ry     beta=0.70
     Davidson diagonalization with overlap
     ethr =  1.00E-02,  avg # of iterations =  1.0

     negative rho (up, down):  6.092E-03 0.000E+00

     total cpu time spent up to now is        0.5 secs

     total energy              =     -32.03439560 Ry
     Harris-Foulkes estimate   =     -32.58071200 Ry
     estimated scf accuracy    <       5.40771240 Ry

     iteration #  9     ecut=    30.00 Ry     beta=0.70
     Davidson diagonalization with overlap
     ethr =  1.00E-02,  avg # of iterations =  1.0

     negative rho (up, down):  2.050E-02 0.000E+00

     total cpu time spent up to now is        0.5 secs

     total energy              =     -31.62096709 Ry
     Harris-Foulkes estimate   =     -32.04531998 Ry
     estimated scf accuracy    <       4.51031193 Ry

     iteration # 10     ecut=    30.00 Ry     beta=0.70
     Davidson diagonalization with overlap
     ethr =  1.00E-02,  avg # of iterations =  1.0

     negative rho (up, down):  2.146E-02 0.000E+00

     total cpu time spent up to now is        0.6 secs

     total energy              =     -31.67122809 Ry
     Harris-Foulkes estimate   =     -31.62892405 Ry
     estimated scf accuracy    <       3.91202030 Ry

     iteration # 11     ecut=    30.00 Ry     beta=0.70
     Davidson diagonalization with overlap
     ethr =  1.00E-02,  avg # of iterations =  1.0

     negative rho (up, down):  3.243E-02 0.000E+00

     total cpu time spent up to now is        0.6 secs

     total energy              =     -31.81331942 Ry
     Harris-Foulkes estimate   =     -31.67174885 Ry
     estimated scf accuracy    <       3.87554682 Ry

     iteration # 12     ecut=    30.00 Ry     beta=0.70
     Davidson diagonalization with overlap
     ethr =  1.00E-02,  avg # of iterations =  1.0

     negative rho (up, down):  2.370E-02 0.000E+00

     total cpu time spent up to now is        0.6 secs

     total energy              =     -31.13219482 Ry
     Harris-Foulkes estimate   =     -31.81369615 Ry
     estimated scf accuracy    <       4.08017219 Ry

     iteration # 13     ecut=    30.00 Ry     beta=0.70
     Davidson diagonalization with overlap
     ethr =  1.00E-02,  avg # of iterations =  1.0

     negative rho (up, down):  3.549E-02 0.000E+00

     total cpu time spent up to now is        0.7 secs

     total energy              =     -30.91086495 Ry
     Harris-Foulkes estimate   =     -31.74836582 Ry
     estimated scf accuracy    <       3.02321217 Ry

     iteration # 14     ecut=    30.00 Ry     beta=0.70
     Davidson diagonalization with overlap
     ethr =  1.00E-02,  avg # of iterations =  1.0

     negative rho (up, down):  4.022E-03 0.000E+00

     total cpu time spent up to now is        0.7 secs

     total energy              =     -32.69692563 Ry
     Harris-Foulkes estimate   =     -32.16729330 Ry
     estimated scf accuracy    <       4.60310194 Ry

     iteration # 15     ecut=    30.00 Ry     beta=0.70
     Davidson diagonalization with overlap
     ethr =  1.00E-02,  avg # of iterations =  1.0

     negative rho (up, down):  2.123E-02 0.000E+00

     total cpu time spent up to now is        0.8 secs

     total energy              =     -32.99131950 Ry
     Harris-Foulkes estimate   =     -32.70923551 Ry
     estimated scf accuracy    <       5.56091999 Ry

     iteration # 16     ecut=    30.00 Ry     beta=0.70
     Davidson diagonalization with overlap
     ethr =  1.00E-02,  avg # of iterations =  1.0

     negative rho (up, down):  8.452E-03 0.000E+00

     total cpu time spent up to now is        0.8 secs

     total energy              =     -31.37372284 Ry
     Harris-Foulkes estimate   =     -32.99547433 Ry
     estimated scf accuracy    <       6.09625858 Ry

     iteration # 17     ecut=    30.00 Ry     beta=0.70
     Davidson diagonalization with overlap
     ethr =  1.00E-02,  avg # of iterations =  2.0

     negative rho (up, down):  2.412E-03 0.000E+00

     total cpu time spent up to now is        0.8 secs

     total energy              =     -31.49739117 Ry
     Harris-Foulkes estimate   =     -31.49271132 Ry
     estimated scf accuracy    <       0.33572504 Ry

     iteration # 18     ecut=    30.00 Ry     beta=0.70
     Davidson diagonalization with overlap
     ethr =  4.20E-03,  avg # of iterations =  1.0

     negative rho (up, down):  1.786E-03 0.000E+00

     total cpu time spent up to now is        0.8 secs

     total energy              =     -31.50132325 Ry
     Harris-Foulkes estimate   =     -31.49977413 Ry
     estimated scf accuracy    <       0.79778403 Ry

     iteration # 19     ecut=    30.00 Ry     beta=0.70
     Davidson diagonalization with overlap
     ethr =  4.20E-03,  avg # of iterations =  1.0

     negative rho (up, down):  7.925E-06 0.000E+00

     total cpu time spent up to now is        0.9 secs

     total energy              =     -31.48759208 Ry
     Harris-Foulkes estimate   =     -31.50243811 Ry
     estimated scf accuracy    <       1.00430901 Ry

     iteration # 20     ecut=    30.00 Ry     beta=0.70
     Davidson diagonalization with overlap
     ethr =  4.20E-03,  avg # of iterations =  1.0

     negative rho (up, down):  1.321E-03 0.000E+00

     total cpu time spent up to now is        0.9 secs

     total energy              =     -31.48366281 Ry
     Harris-Foulkes estimate   =     -31.49196160 Ry
     estimated scf accuracy    <       0.15158068 Ry

     iteration # 21     ecut=    30.00 Ry     beta=0.70
     Davidson diagonalization with overlap
     ethr =  1.89E-03,  avg # of iterations =  1.0

     negative rho (up, down):  7.385E-05 0.000E+00

     total cpu time spent up to now is        0.9 secs

     total energy              =     -31.47322551 Ry
     Harris-Foulkes estimate   =     -31.49581259 Ry
     estimated scf accuracy    <       0.59537425 Ry

     iteration # 22     ecut=    30.00 Ry     beta=0.70
     Davidson diagonalization with overlap
     ethr =  1.89E-03,  avg # of iterations =  1.0

     negative rho (up, down):  5.151E-05 0.000E+00

     total cpu time spent up to now is        1.0 secs

     total energy              =     -31.48709749 Ry
     Harris-Foulkes estimate   =     -31.49673225 Ry
     estimated scf accuracy    <       0.58559643 Ry

     iteration # 23     ecut=    30.00 Ry     beta=0.70
     Davidson diagonalization with overlap
     ethr =  1.89E-03,  avg # of iterations =  1.0

     negative rho (up, down):  6.168E-07 0.000E+00

     total cpu time spent up to now is        1.0 secs

     total energy              =     -31.48996911 Ry
     Harris-Foulkes estimate   =     -31.49074062 Ry
     estimated scf accuracy    <       0.02617160 Ry

     iteration # 24     ecut=    30.00 Ry     beta=0.70
     Davidson diagonalization with overlap
     ethr =  3.27E-04,  avg # of iterations =  1.0

     negative rho (up, down):  3.838E-06 0.000E+00

     total cpu time spent up to now is        1.0 secs

     total energy              =     -31.49038610 Ry
     Harris-Foulkes estimate   =     -31.49058578 Ry
     estimated scf accuracy    <       0.00947822 Ry

     iteration # 25     ecut=    30.00 Ry     beta=0.70
     Davidson diagonalization with overlap
     ethr =  1.18E-04,  avg # of iterations =  5.0

     negative rho (up, down):  7.018E-07 0.000E+00

     total cpu time spent up to now is        1.1 secs

     total energy              =     -31.49049801 Ry
     Harris-Foulkes estimate   =     -31.49050223 Ry
     estimated scf accuracy    <       0.00022605 Ry

     iteration # 26     ecut=    30.00 Ry     beta=0.70
     Davidson diagonalization with overlap
     ethr =  2.83E-06,  avg # of iterations = 13.0

     total cpu time spent up to now is        1.1 secs

     total energy              =     -31.49050119 Ry
     Harris-Foulkes estimate   =     -31.49050033 Ry
     estimated scf accuracy    <       0.00000105 Ry

     iteration # 27     ecut=    30.00 Ry     beta=0.70
     Davidson diagonalization with overlap
     ethr =  1.31E-08,  avg # of iterations =  1.0

     total cpu time spent up to now is        1.2 secs

     total energy              =     -31.49050135 Ry
     Harris-Foulkes estimate   =     -31.49050132 Ry
     estimated scf accuracy    <       0.00000590 Ry

     iteration # 28     ecut=    30.00 Ry     beta=0.70
     Davidson diagonalization with overlap
     ethr =  1.31E-08,  avg # of iterations =  1.0

     total cpu time spent up to now is        1.2 secs

     total energy              =     -31.49050150 Ry
     Harris-Foulkes estimate   =     -31.49050142 Ry
     estimated scf accuracy    <       0.00000002 Ry

     iteration # 29     ecut=    30.00 Ry     beta=0.70
     Davidson diagonalization with overlap
     ethr =  2.28E-10,  avg # of iterations =  1.0

     total cpu time spent up to now is        1.2 secs

     total energy              =     -31.49050151 Ry
     Harris-Foulkes estimate   =     -31.49050150 Ry
     estimated scf accuracy    <       0.00000042 Ry

     iteration # 30     ecut=    30.00 Ry     beta=0.70
     Davidson diagonalization with overlap
     ethr =  2.28E-10,  avg # of iterations =  1.0

     total cpu time spent up to now is        1.3 secs

     total energy              =     -31.49050150 Ry
     Harris-Foulkes estimate   =     -31.49050153 Ry
     estimated scf accuracy    <       0.00000019 Ry

     iteration # 31     ecut=    30.00 Ry     beta=0.70
     Davidson diagonalization with overlap
     ethr =  2.28E-10,  avg # of iterations =  1.0

     total cpu time spent up to now is        1.3 secs

     End of self-consistent calculation

          k = 0.0000 0.0000 0.0000 ( 22119 PWs)   bands (ev):

   -23.6251  -7.0389  -7.0365  -7.0350  -6.9474  -6.9098  -0.2237   0.4898

     the Fermi energy is    -6.9010 ev

!    total energy              =     -31.49050150 Ry
     Harris-Foulkes estimate   =     -31.49050150 Ry
     estimated scf accuracy    <          4.1E-10 Ry

     convergence has been achieved in  31 iterations

     Forces acting on atoms (Ry/au):

     atom    1 type  1   force =    -0.00048784    0.00037845    0.00031695
     atom    2 type  1   force =    -0.00046455    0.00039283    0.00059525
     atom    3 type  2   force =     0.00095239   -0.00077128   -0.00091220

     Total force =     0.001882     Total SCF correction =     0.000009

     Molecular Dynamics Calculation

     Starting temperature  =  1000.00 K

     temperature is controlled by Andersen thermostat
     Collision frequency = 1.0000/timestep
     mass H                =     1.01
     mass O                =    16.00
     Time step             =   100.00 a.u.,  4.8378 femto-seconds

     Entering Dynamics:    iteration =     1
                           time      =   0.0048 pico-seconds


     Andersen thermostat:    3 collisions

ATOMIC_POSITIONS (bohr)
H       10.871766697   7.019183980  14.064882580
H       11.291287716   3.882510452   4.234185493
O        6.141061785  12.473401861   6.537191123


     kinetic energy (Ekin) =     0.01847891 Ry
     temperature           =   972.52844624 K 
     Ekin + Etot (const)   =   -31.47202259 Ry

     Linear momentum :   -0.0000000000    0.0000000000   -0.0000000000

     Writing output data file pwscf.save
     Check: negative starting charge=   -0.348295
     NEW-OLD atomic charge density approx. for the potential
     Check: negative starting charge=   -0.348934

     negative rho (up, down):  7.221E-02 0.000E+00

     total cpu time spent up to now is        1.5 secs

     per-process dynamical memory:    20.4 Mb

     Self-consistent Calculation

     iteration #  1     ecut=    30.00 Ry     beta=0.70
     Davidson diagonalization with overlap
     ethr =  1.00E-06,  avg # of iterations = 19.0

     negative rho (up, down):  1.654E-02 0.000E+00

     total cpu time spent up to now is        1.6 secs

     total energy              =     -31.43111402 Ry
     Harris-Foulkes estimate   =     -31.43217674 Ry
     estimated scf accuracy    <       0.05461371 Ry

     iteration #  2     ecut=    30.00 Ry     beta=0.70
     Davidson diagonalization with overlap
     ethr =  6.83E-04,  avg # of iterations =  2.0

     negative rho (up, down):  1.510E-02 0.000E+00

     total cpu time spent up to now is        1.7 secs

     total energy              =     -31.48701355 Ry
     Harris-Foulkes estimate   =     -32.01188988 Ry
     estimated scf accuracy    <       4.44868176 Ry

     iteration #  3     ecut=    30.00 Ry     beta=0.70
     Davidson diagonalization with overlap
     ethr =  6.83E-04,  avg # of iterations =  2.0

     negative rho (up, down):  1.481E-02 0.000E+00

     total cpu time spent up to now is        1.7 secs

     total energy              =     -31.47869077 Ry
     Harris-Foulkes estimate   =     -31.50336038 Ry
     estimated scf accuracy    <       1.48680523 Ry

     iteration #  4     ecut=    30.00 Ry     beta=0.70
     Davidson diagonalization with overlap
     ethr =  6.83E-04,  avg # of iterations =  1.0

     negative rho (up, down):  1.056E-02 0.000E+00

     total cpu time spent up to now is        1.7 secs

     total energy              =     -31.39972676 Ry
     Harris-Foulkes estimate   =     -31.48622395 Ry
     estimated scf accuracy    <       1.10947594 Ry

     iteration #  5     ecut=    30.00 Ry     beta=0.70
     Davidson diagonalization with overlap
     ethr =  6.83E-04,  avg # of iterations =  1.0

     negative rho (up, down):  3.216E-03 0.000E+00

     total cpu time spent up to now is        1.7 secs

     total energy              =     -31.45088047 Ry
     Harris-Foulkes estimate   =     -31.56198289 Ry
     estimated scf accuracy    <       2.79374203 Ry

     iteration #  6     ecut=    30.00 Ry     beta=0.70
     Davidson diagonalization with overlap
     ethr =  6.83E-04,  avg # of iterations =  1.0

     negative rho (up, down):  8.060E-04 0.000E+00

     total cpu time spent up to now is        1.8 secs

     total energy              =     -31.48922255 Ry
     Harris-Foulkes estimate   =     -31.48825487 Ry
     estimated scf accuracy    <       0.02687485 Ry

     iteration #  7     ecut=    30.00 Ry     beta=0.70
     Davidson diagonalization with overlap
     ethr =  3.36E-04,  avg # of iterations =  3.0

     negative rho (up, down):  4.409E-04 0.000E+00

     total cpu time spent up to now is        1.8 secs

     total energy              =     -31.49163135 Ry
     Harris-Foulkes estimate   =     -31.49108972 Ry
     estimated scf accuracy    <       0.08024363 Ry

     iteration #  8     ecut=    30.00 Ry     beta=0.70
     Davidson diagonalization with overlap
     ethr =  3.36E-04,  avg # of iterations =  1.0

     negative rho (up, down):  4.457E-06 0.000E+00

     total cpu time spent up to now is        1.8 secs

     total energy              =     -31.48819035 Ry
     Harris-Foulkes estimate   =     -31.49170889 Ry
     estimated scf accuracy    <       0.13479817 Ry

     iteration #  9     ecut=    30.00 Ry     beta=0.70
     Davidson diagonalization with overlap
     ethr =  3.36E-04,  avg # of iterations =  1.0

     negative rho (up, down):  2.687E-08 0.000E+00

     total cpu time spent up to now is        1.9 secs

     total energy              =     -31.49085130 Ry
     Harris-Foulkes estimate   =     -31.49063846 Ry
     estimated scf accuracy    <       0.02102799 Ry

     iteration # 10     ecut=    30.00 Ry     beta=0.70
     Davidson diagonalization with overlap
     ethr =  2.63E-04,  avg # of iterations =  1.0

     negative rho (up, down):  2.670E-08 0.000E+00

     total cpu time spent up to now is        1.9 secs

     total energy              =     -31.48995581 Ry
     Harris-Foulkes estimate   =     -31.49093849 Ry
     estimated scf accuracy    <       0.05617600 Ry

     iteration # 11     ecut=    30.00 Ry     beta=0.70
     Davidson diagonalization with overlap
     ethr =  2.63E-04,  avg # of iterations =  1.0

     total cpu time spent up to now is        1.9 secs

     total energy              =     -31.49040745 Ry
     Harris-Foulkes estimate   =     -31.49042271 Ry
     estimated scf accuracy    <       0.00013569 Ry

     iteration # 12     ecut=    30.00 Ry     beta=0.70
     Davidson diagonalization with overlap
     ethr =  1.70E-06,  avg # of iterations = 11.0

     total cpu time spent up to now is        2.0 secs

     total energy              =     -31.49036623 Ry
     Harris-Foulkes estimate   =     -31.49045620 Ry
     estimated scf accuracy    <       0.00372499 Ry

     iteration # 13     ecut=    30.00 Ry     beta=0.70
     Davidson diagonalization with overlap
     ethr =  1.70E-06,  avg # of iterations =  1.0

     total cpu time spent up to now is        2.1 secs

     total energy              =     -31.49041538 Ry
     Harris-Foulkes estimate   =     -31.49042460 Ry
     estimated scf accuracy    <       0.00032994 Ry

     iteration # 14     ecut=    30.00 Ry     beta=0.70
     Davidson diagonalization with overlap
     ethr =  1.70E-06,  avg # of iterations =  1.0

     total cpu time spent up to now is        2.1 secs

     total energy              =     -31.49042069 Ry
     Harris-Foulkes estimate   =     -31.49042184 Ry
     estimated scf accuracy    <       0.00006633 Ry

     iteration # 15     ecut=    30.00 Ry     beta=0.70
     Davidson diagonalization with overlap
     ethr =  8.29E-07,  avg # of iterations =  1.0

     total cpu time spent up to now is        2.1 secs

     total energy              =     -31.49042126 Ry
     Harris-Foulkes estimate   =     -31.49042128 Ry
     estimated scf accuracy    <       0.00000004 Ry

     iteration # 16     ecut=    30.00 Ry     beta=0.70
     Davidson diagonalization with overlap
     ethr =  4.61E-10,  avg # of iterations =  1.0

     total cpu time spent up to now is        2.2 secs

     End of self-consistent calculation

          k = 0.0000 0.0000 0.0000 ( 22119 PWs)   bands (ev):

   -23.6235  -7.0356  -7.0345  -7.0331  -6.9434  -6.9123  -0.2283   0.5011

     the Fermi energy is    -6.8992 ev

!    total energy              =     -31.49042125 Ry
     Harris-Foulkes estimate   =     -31.49042126 Ry
     estimated scf accuracy    <          3.1E-10 Ry

     convergence has been achieved in  16 iterations

     Forces acting on atoms (Ry/au):

     atom    1 type  1   force =    -0.00028576    0.00031077    0.00004179
     atom    2 type  1   force =    -0.00029809    0.00029973    0.00023536
     atom    3 type  2   force =     0.00058385   -0.00061050   -0.00027715

     Total force =     0.001097     Total SCF correction =     0.000109

     Entering Dynamics:    iteration =     2
                           time      =   0.0097 pico-seconds


     Andersen thermostat:    3 collisions

ATOMIC_POSITIONS (bohr)
H       10.398807296   7.299663048  13.670438504
H       11.366213851   3.646778254   3.989694736
O        6.166187635  12.470577215   6.577523884


     kinetic energy (Ekin) =     0.03200018 Ry
     temperature           =  1684.14084283 K 
     Ekin + Etot (const)   =   -31.45842107 Ry
     Message from routine dynamics:
     Total linear momentum <> 0

     Linear momentum :   -0.2815327297    0.2080557349   -0.4288440968

     Writing output data file pwscf.save

     first order wave-functions extrapolation
     Check: negative starting charge=   -0.348934
     first order charge density extrapolation
     Check: negative starting charge=   -0.348086

     negative rho (up, down):  1.742E-01 0.000E+00

     total cpu time spent up to now is        2.5 secs

     per-process dynamical memory:    20.4 Mb

     Self-consistent Calculation

     iteration #  1     ecut=    30.00 Ry     beta=0.70
     Davidson diagonalization with overlap
     ethr =  1.00E-06,  avg # of iterations = 15.0

     negative rho (up, down):  4.227E-02 0.000E+00

     total cpu time spent up to now is        2.6 secs

     total energy              =     -12.85037203 Ry
     Harris-Foulkes estimate   =     -42.33238545 Ry
     estimated scf accuracy    <       5.32056709 Ry

     iteration #  2     ecut=    30.00 Ry     beta=0.70
     Davidson diagonalization with overlap
     ethr =  1.00E-02,  avg # of iterations =  3.0

     negative rho (up, down):  2.880E-02 0.000E+00

     total cpu time spent up to now is        2.6 secs

     total energy              =     -31.53657489 Ry
     Harris-Foulkes estimate   =     -35.40379117 Ry
     estimated scf accuracy    <       8.30879674 Ry

     iteration #  3     ecut=    30.00 Ry     beta=0.70
     Davidson diagonalization with overlap
     ethr =  1.00E-02,  avg # of iterations =  2.0

     negative rho (up, down):  2.085E-02 0.000E+00

     total cpu time spent up to now is        2.6 secs

     total energy              =     -32.03820258 Ry
     Harris-Foulkes estimate   =     -33.09005103 Ry
     estimated scf accuracy    <       3.48405825 Ry

     iteration #  4     ecut=    30.00 Ry     beta=0.70
     Davidson diagonalization with overlap
     ethr =  1.00E-02,  avg # of iterations =  2.0

     negative rho (up, down):  1.907E-02 0.000E+00

     total cpu time spent up to now is        2.7 secs

     total energy              =     -31.76853573 Ry
     Harris-Foulkes estimate   =     -32.11137349 Ry
     estimated scf accuracy    <       1.86717287 Ry

     iteration #  5     ecut=    30.00 Ry     beta=0.70
     Davidson diagonalization with overlap
     ethr =  1.00E-02,  avg # of iterations =  1.0

     negative rho (up, down):  6.581E-03 0.000E+00

     total cpu time spent up to now is        2.7 secs

     total energy              =     -31.37568018 Ry
     Harris-Foulkes estimate   =     -31.98439996 Ry
     estimated scf accuracy    <       3.27895188 Ry

     iteration #  6     ecut=    30.00 Ry     beta=0.70
     Davidson diagonalization with overlap
     ethr =  1.00E-02,  avg # of iterations =  3.0

     negative rho (up, down):  1.140E-02 0.000E+00

     total cpu time spent up to now is        2.7 secs

     total energy              =     -31.46665113 Ry
     Harris-Foulkes estimate   =     -32.24729699 Ry
     estimated scf accuracy    <       2.31927753 Ry

     iteration #  7     ecut=    30.00 Ry     beta=0.70
     Davidson diagonalization with overlap
     ethr =  1.00E-02,  avg # of iterations =  2.0

     negative rho (up, down):  7.083E-03 0.000E+00

     total cpu time spent up to now is        2.8 secs

     total energy              =     -31.38220921 Ry
     Harris-Foulkes estimate   =     -31.65876784 Ry
     estimated scf accuracy    <       2.86473326 Ry

     iteration #  8     ecut=    30.00 Ry     beta=0.70
     Davidson diagonalization with overlap
     ethr =  1.00E-02,  avg # of iterations =  1.0

     negative rho (up, down):  7.411E-03 0.000E+00

     total cpu time spent up to now is        2.8 secs

     total energy              =     -31.56909429 Ry
     Harris-Foulkes estimate   =     -31.59698633 Ry
     estimated scf accuracy    <       1.93426940 Ry

     iteration #  9     ecut=    30.00 Ry     beta=0.70
     Davidson diagonalization with overlap
     ethr =  1.00E-02,  avg # of iterations =  1.0

     negative rho (up, down):  7.298E-03 0.000E+00

     total cpu time spent up to now is        2.8 secs

     total energy              =     -31.57946929 Ry
     Harris-Foulkes estimate   =     -31.56948282 Ry
     estimated scf accuracy    <       2.22728147 Ry

     iteration # 10     ecut=    30.00 Ry     beta=0.70
     Davidson diagonalization with overlap
     ethr =  1.00E-02,  avg # of iterations =  1.0

     negative rho (up, down):  4.187E-04 0.000E+00

     total cpu time spent up to now is        2.9 secs

     total energy              =     -32.15188781 Ry
     Harris-Foulkes estimate   =     -31.58070653 Ry
     estimated scf accuracy    <       2.92725109 Ry

     iteration # 11     ecut=    30.00 Ry     beta=0.70
     Davidson diagonalization with overlap
     ethr =  1.00E-02,  avg # of iterations =  2.0

     negative rho (up, down):  3.658E-03 0.000E+00

     total cpu time spent up to now is        2.9 secs

     total energy              =     -32.03375813 Ry
     Harris-Foulkes estimate   =     -32.20417737 Ry
     estimated scf accuracy    <       2.15761995 Ry

     iteration # 12     ecut=    30.00 Ry     beta=0.70
     Davidson diagonalization with overlap
     ethr =  1.00E-02,  avg # of iterations =  1.0

     negative rho (up, down):  6.162E-03 0.000E+00

     total cpu time spent up to now is        2.9 secs

     total energy              =     -31.74271118 Ry
     Harris-Foulkes estimate   =     -32.11958856 Ry
     estimated scf accuracy    <       4.59460683 Ry

     iteration # 13     ecut=    30.00 Ry     beta=0.70
     Davidson diagonalization with overlap
     ethr =  1.00E-02,  avg # of iterations =  1.0

     negative rho (up, down):  1.922E-02 0.000E+00

     total cpu time spent up to now is        3.0 secs

     total energy              =     -31.82217986 Ry
     Harris-Foulkes estimate   =     -31.84034590 Ry
     estimated scf accuracy    <       1.53202031 Ry

     iteration # 14     ecut=    30.00 Ry     beta=0.70
     Davidson diagonalization with overlap
     ethr =  1.00E-02,  avg # of iterations =  1.0

     negative rho (up, down):  4.046E-02 0.000E+00

     total cpu time spent up to now is        3.0 secs

     total energy              =     -31.91050709 Ry
     Harris-Foulkes estimate   =     -31.84283484 Ry
     estimated scf accuracy    <       2.22080392 Ry

     iteration # 15     ecut=    30.00 Ry     beta=0.70
     Davidson diagonalization with overlap
     ethr =  1.00E-02,  avg # of iterations =  1.0

     negative rho (up, down):  8.361E-02 0.000E+00

     total cpu time spent up to now is        3.0 secs

     total energy              =     -32.06614155 Ry
     Harris-Foulkes estimate   =     -31.92335277 Ry
     estimated scf accuracy    <       1.58948498 Ry

     iteration # 16     ecut=    30.00 Ry     beta=0.70
     Davidson diagonalization with overlap
     ethr =  1.00E-02,  avg # of iterations =  1.0

     negative rho (up, down):  1.328E-02 0.000E+00

     total cpu time spent up to now is        3.1 secs

     total energy              =     -31.72541728 Ry
     Harris-Foulkes estimate   =     -32.06869621 Ry
     estimated scf accuracy    <       1.84846115 Ry

     iteration # 17     ecut=    30.00 Ry     beta=0.70
     Davidson diagonalization with overlap
     ethr =  1.00E-02,  avg # of iterations =  1.0

     negative rho (up, down):  4.881E-02 0.000E+00

     total cpu time spent up to now is        3.1 secs

     total energy              =     -30.78178860 Ry
     Harris-Foulkes estimate   =     -31.79762604 Ry
     estimated scf accuracy    <       1.46499092 Ry

     iteration # 18     ecut=    30.00 Ry     beta=0.70
     Davidson diagonalization with overlap
     ethr =  1.00E-02,  avg # of iterations =  3.0

     negative rho (up, down):  3.282E-05 0.000E+00

     total cpu time spent up to now is        3.1 secs

     total energy              =     -31.84389079 Ry
     Harris-Foulkes estimate   =     -33.40082734 Ry
     estimated scf accuracy    <       5.29642565 Ry

     iteration # 19     ecut=    30.00 Ry     beta=0.70
     Davidson diagonalization with overlap
     ethr =  1.00E-02,  avg # of iterations =  1.0

     negative rho (up, down):  2.282E-07 0.000E+00

     total cpu time spent up to now is        3.2 secs

     total energy              =     -31.49733705 Ry
     Harris-Foulkes estimate   =     -31.87241910 Ry
     estimated scf accuracy    <       1.76920060 Ry

     iteration # 20     ecut=    30.00 Ry     beta=0.70
     Davidson diagonalization with overlap
     ethr =  1.00E-02,  avg # of iterations =  3.0

     negative rho (up, down):  4.877E-07 0.000E+00

     total cpu time spent up to now is        3.2 secs

     total energy              =     -31.35892067 Ry
     Harris-Foulkes estimate   =     -31.51229382 Ry
     estimated scf accuracy    <       0.63033933 Ry

     iteration # 21     ecut=    30.00 Ry     beta=0.70
     Davidson diagonalization with overlap
     ethr =  7.88E-03,  avg # of iterations =  2.0

     negative rho (up, down):  3.043E-07 0.000E+00

     total cpu time spent up to now is        3.2 secs

     total energy              =     -31.30567883 Ry
     Harris-Foulkes estimate   =     -31.64137472 Ry
     estimated scf accuracy    <       1.11402995 Ry

     iteration # 22     ecut=    30.00 Ry     beta=0.70
     Davidson diagonalization with overlap
     ethr =  7.88E-03,  avg # of iterations =  1.0

     negative rho (up, down):  1.165E-08 0.000E+00

     total cpu time spent up to now is        3.3 secs

     total energy              =     -31.54573330 Ry
     Harris-Foulkes estimate   =     -31.64234660 Ry
     estimated scf accuracy    <       0.89147720 Ry

     iteration # 23     ecut=    30.00 Ry     beta=0.70
     Davidson diagonalization with overlap
     ethr =  7.88E-03,  avg # of iterations =  1.0

     negative rho (up, down):  6.793E-07 0.000E+00

     total cpu time spent up to now is        3.3 secs

     total energy              =     -31.32349000 Ry
     Harris-Foulkes estimate   =     -31.54618678 Ry
     estimated scf accuracy    <       0.84658727 Ry

     iteration # 24     ecut=    30.00 Ry     beta=0.70
     Davidson diagonalization with overlap
     ethr =  7.88E-03,  avg # of iterations =  1.0

     negative rho (up, down):  1.646E-08 0.000E+00

     total cpu time spent up to now is        3.3 secs

     total energy              =     -31.57259356 Ry
     Harris-Foulkes estimate   =     -31.70481701 Ry
     estimated scf accuracy    <       1.18415733 Ry

     iteration # 25     ecut=    30.00 Ry     beta=0.70
     Davidson diagonalization with overlap
     ethr =  7.88E-03,  avg # of iterations =  1.0

     total cpu time spent up to now is        3.4 secs

     total energy              =     -31.54300428 Ry
     Harris-Foulkes estimate   =     -31.57501512 Ry
     estimated scf accuracy    <       1.02803712 Ry

     iteration # 26     ecut=    30.00 Ry     beta=0.70
     Davidson diagonalization with overlap
     ethr =  7.88E-03,  avg # of iterations =  1.0

     total cpu time spent up to now is        3.4 secs

     total energy              =     -31.54946281 Ry
     Harris-Foulkes estimate   =     -31.54282845 Ry
     estimated scf accuracy    <       1.09682225 Ry

     iteration # 27     ecut=    30.00 Ry     beta=0.70
     Davidson diagonalization with overlap
     ethr =  7.88E-03,  avg # of iterations =  1.0

     total cpu time spent up to now is        3.4 secs

     total energy              =     -31.54917351 Ry
     Harris-Foulkes estimate   =     -31.54950241 Ry
     estimated scf accuracy    <       1.10700390 Ry

     iteration # 28     ecut=    30.00 Ry     beta=0.70
     Davidson diagonalization with overlap
     ethr =  7.88E-03,  avg # of iterations =  1.0

     total cpu time spent up to now is        3.5 secs

     total energy              =     -31.50440326 Ry
     Harris-Foulkes estimate   =     -31.54917764 Ry
     estimated scf accuracy    <       1.09756040 Ry

     iteration # 29     ecut=    30.00 Ry     beta=0.70
     Davidson diagonalization with overlap
     ethr =  7.88E-03,  avg # of iterations =  1.0

     total cpu time spent up to now is        3.5 secs

     total energy              =     -31.43490544 Ry
     Harris-Foulkes estimate   =     -31.50235360 Ry
     estimated scf accuracy    <       0.81157228 Ry

     iteration # 30     ecut=    30.00 Ry     beta=0.70
     Davidson diagonalization with overlap
     ethr =  7.88E-03,  avg # of iterations =  1.0

     total cpu time spent up to now is        3.5 secs

     total energy              =     -31.48837275 Ry
     Harris-Foulkes estimate   =     -31.52229677 Ry
     estimated scf accuracy    <       0.70813942 Ry

     iteration # 31     ecut=    30.00 Ry     beta=0.70
     Davidson diagonalization with overlap
     ethr =  7.88E-03,  avg # of iterations =  1.0

     total cpu time spent up to now is        3.6 secs

     total energy              =     -31.48755426 Ry
     Harris-Foulkes estimate   =     -31.49309988 Ry
     estimated scf accuracy    <       0.16598790 Ry

     iteration # 32     ecut=    30.00 Ry     beta=0.70
     Davidson diagonalization with overlap
     ethr =  2.07E-03,  avg # of iterations =  1.0

     total cpu time spent up to now is        3.6 secs

     total energy              =     -31.49022212 Ry
     Harris-Foulkes estimate   =     -31.49055778 Ry
     estimated scf accuracy    <       0.00342554 Ry

     iteration # 33     ecut=    30.00 Ry     beta=0.70
     Davidson diagonalization with overlap
     ethr =  4.28E-05,  avg # of iterations =  1.0

     total cpu time spent up to now is        3.6 secs

     total energy              =     -31.48448013 Ry
     Harris-Foulkes estimate   =     -31.49081353 Ry
     estimated scf accuracy    <       0.02190881 Ry

     iteration # 34     ecut=    30.00 Ry     beta=0.70
     Davidson diagonalization with overlap
     ethr =  4.28E-05,  avg # of iterations = 10.0

     total cpu time spent up to now is        3.7 secs

     total energy              =     -31.49278901 Ry
     Harris-Foulkes estimate   =     -31.52245616 Ry
     estimated scf accuracy    <       1.31770807 Ry

     iteration # 35     ecut=    30.00 Ry     beta=0.70
     Davidson diagonalization with overlap
     ethr =  4.28E-05,  avg # of iterations =  1.0

     total cpu time spent up to now is        3.7 secs

     total energy              =     -31.48478957 Ry
     Harris-Foulkes estimate   =     -31.49662843 Ry
     estimated scf accuracy    <       0.45357481 Ry

     iteration # 36     ecut=    30.00 Ry     beta=0.70
     Davidson diagonalization with overlap
     ethr =  4.28E-05,  avg # of iterations =  1.0

     total cpu time spent up to now is        3.8 secs

     total energy              =     -31.49046520 Ry
     Harris-Foulkes estimate   =     -31.49050557 Ry
     estimated scf accuracy    <       0.00010766 Ry

     iteration # 37     ecut=    30.00 Ry     beta=0.70
     Davidson diagonalization with overlap
     ethr =  1.35E-06,  avg # of iterations =  8.0

     total cpu time spent up to now is        3.8 secs

     total energy              =     -31.49002200 Ry
     Harris-Foulkes estimate   =     -31.49118995 Ry
     estimated scf accuracy    <       0.04868559 Ry

     iteration # 38     ecut=    30.00 Ry     beta=0.70
     Davidson diagonalization with overlap
     ethr =  1.35E-06,  avg # of iterations =  1.0

     total cpu time spent up to now is        3.8 secs

     total energy              =     -31.49040569 Ry
     Harris-Foulkes estimate   =     -31.49051398 Ry
     estimated scf accuracy    <       0.00101128 Ry

     iteration # 39     ecut=    30.00 Ry     beta=0.70
     Davidson diagonalization with overlap
     ethr =  1.35E-06,  avg # of iterations =  1.0

     total cpu time spent up to now is        3.9 secs

     total energy              =     -31.49072883 Ry
     Harris-Foulkes estimate   =     -31.49068371 Ry
     estimated scf accuracy    <       0.01348418 Ry

     iteration # 40     ecut=    30.00 Ry     beta=0.70
     Davidson diagonalization with overlap
     ethr =  1.35E-06,  avg # of iterations =  1.0

     total cpu time spent up to now is        3.9 secs

     total energy              =     -31.49047907 Ry
     Harris-Foulkes estimate   =     -31.49073163 Ry
     estimated scf accuracy    <       0.01715578 Ry

     iteration # 41     ecut=    30.00 Ry     beta=0.70
     Davidson diagonalization with overlap
     ethr =  1.35E-06,  avg # of iterations =  1.0

     total cpu time spent up to now is        3.9 secs

     total energy              =     -31.49054134 Ry
     Harris-Foulkes estimate   =     -31.49054874 Ry
     estimated scf accuracy    <       0.00337439 Ry

     iteration # 42     ecut=    30.00 Ry     beta=0.70
     Davidson diagonalization with overlap
     ethr =  1.35E-06,  avg # of iterations =  1.0

     total cpu time spent up to now is        4.0 secs

     total energy              =     -31.49052199 Ry
     Harris-Foulkes estimate   =     -31.49054166 Ry
     estimated scf accuracy    <       0.00284054 Ry

     iteration # 43     ecut=    30.00 Ry     beta=0.70
     Davidson diagonalization with overlap
     ethr =  1.35E-06,  avg # of iterations =  1.0

     total cpu time spent up to now is        4.0 secs

     total energy              =     -31.49048624 Ry
     Harris-Foulkes estimate   =     -31.49052463 Ry
     estimated scf accuracy    <       0.00154004 Ry

     iteration # 44     ecut=    30.00 Ry     beta=0.70
     Davidson diagonalization with overlap
     ethr =  1.35E-06,  avg # of iterations =  1.0

     total cpu time spent up to now is        4.0 secs

     total energy              =     -31.49050507 Ry
     Harris-Foulkes estimate   =     -31.49050507 Ry
     estimated scf accuracy    <       0.00000301 Ry

     iteration # 45     ecut=    30.00 Ry     beta=0.70
     Davidson diagonalization with overlap
     ethr =  3.76E-08,  avg # of iterations =  1.0

     total cpu time spent up to now is        4.1 secs

     total energy              =     -31.49050503 Ry
     Harris-Foulkes estimate   =     -31.49050508 Ry
     estimated scf accuracy    <       0.00000098 Ry

     iteration # 46     ecut=    30.00 Ry     beta=0.70
     Davidson diagonalization with overlap
     ethr =  1.22E-08,  avg # of iterations =  1.0

     total cpu time spent up to now is        4.1 secs

     total energy              =     -31.49050505 Ry
     Harris-Foulkes estimate   =     -31.49050504 Ry
     estimated scf accuracy    <       0.00000004 Ry

     iteration # 47     ecut=    30.00 Ry     beta=0.70
     Davidson diagonalization with overlap
     ethr =  5.28E-10,  avg # of iterations =  1.0

     total cpu time spent up to now is        4.1 secs

     End of self-consistent calculation

          k = 0.0000 0.0000 0.0000 ( 22119 PWs)   bands (ev):

   -23.6182  -7.0318  -7.0297  -7.0286  -6.9363  -6.9088  -0.2262   0.5129

     the Fermi energy is    -6.8945 ev

!    total energy              =     -31.49050505 Ry
     Harris-Foulkes estimate   =     -31.49050505 Ry
     estimated scf accuracy    <          1.1E-10 Ry

     convergence has been achieved in  47 iterations

     Forces acting on atoms (Ry/au):

     atom    1 type  1   force =    -0.00053531    0.00039621    0.00040918
     atom    2 type  1   force =    -0.00051774    0.00029192    0.00056685
     atom    3 type  2   force =     0.00105306   -0.00068813   -0.00097602

     Total force =     0.001955     Total SCF correction =     0.000002

     Entering Dynamics:    iteration =     3
                           time      =   0.0145 pico-seconds


     Andersen thermostat:    3 collisions

ATOMIC_POSITIONS (bohr)
H       10.437963430   7.445373226  13.601991476
H       11.074889707   3.859135221   3.937028383
O        6.182105741  12.447974227   6.585169166


     kinetic energy (Ekin) =     0.01055521 Ry
     temperature           =   555.51117841 K 
     Ekin + Etot (const)   =   -31.47994984 Ry
     Message from routine dynamics:
     Total linear momentum <> 0

     Linear momentum :    0.2770642753    0.2793959534    0.2568168819

     Writing output data file pwscf.save

     second order wave-functions extrapolation
     Check: negative starting charge=   -0.348086
     second order charge density extrapolation
     Check: negative starting charge=   -0.348115

     negative rho (up, down):  5.384E-02 0.000E+00

     total cpu time spent up to now is        4.8 secs

     per-process dynamical memory:    20.4 Mb

     Self-consistent Calculation

     iteration #  1     ecut=    30.00 Ry     beta=0.70
     Davidson diagonalization with overlap
     c_bands:  1 eigenvalues not converged
     ethr =  1.00E-06,  avg # of iterations = 20.0

     negative rho (up, down):  1.204E-02 0.000E+00

     total cpu time spent up to now is        5.0 secs

     total energy              =     -31.45974649 Ry
     Harris-Foulkes estimate   =     -31.44401465 Ry
     estimated scf accuracy    <       0.02462872 Ry

     iteration #  2     ecut=    30.00 Ry     beta=0.70
     Davidson diagonalization with overlap
     ethr =  3.08E-04,  avg # of iterations =  2.0

     negative rho (up, down):  1.130E-02 0.000E+00

     total cpu time spent up to now is        5.0 secs

     total energy              =     -31.46629676 Ry
     Harris-Foulkes estimate   =     -31.80694641 Ry
     estimated scf accuracy    <       4.07917087 Ry

     iteration #  3     ecut=    30.00 Ry     beta=0.70
     Davidson diagonalization with overlap
     ethr =  3.08E-04,  avg # of iterations =  2.0

     negative rho (up, down):  1.099E-02 0.000E+00

     total cpu time spent up to now is        5.1 secs

     total energy              =     -31.46706779 Ry
     Harris-Foulkes estimate   =     -31.50785903 Ry
     estimated scf accuracy    <       1.10023524 Ry

     iteration #  4     ecut=    30.00 Ry     beta=0.70
     Davidson diagonalization with overlap
     ethr =  3.08E-04,  avg # of iterations =  1.0

     negative rho (up, down):  3.339E-03 0.000E+00

     total cpu time spent up to now is        5.1 secs

     total energy              =     -31.46844670 Ry
     Harris-Foulkes estimate   =     -31.48214407 Ry
     estimated scf accuracy    <       0.22306642 Ry

     iteration #  5     ecut=    30.00 Ry     beta=0.70
     Davidson diagonalization with overlap
     ethr =  3.08E-04,  avg # of iterations =  1.0

     negative rho (up, down):  1.660E-03 0.000E+00

     total cpu time spent up to now is        5.2 secs

     total energy              =     -31.46581702 Ry
     Harris-Foulkes estimate   =     -31.51799426 Ry
     estimated scf accuracy    <       1.86108844 Ry

     iteration #  6     ecut=    30.00 Ry     beta=0.70
     Davidson diagonalization with overlap
     ethr =  3.08E-04,  avg # of iterations =  3.0

     negative rho (up, down):  6.014E-04 0.000E+00

     total cpu time spent up to now is        5.2 secs

     total energy              =     -31.48984925 Ry
     Harris-Foulkes estimate   =     -31.49002539 Ry
     estimated scf accuracy    <       0.02453694 Ry

     iteration #  7     ecut=    30.00 Ry     beta=0.70
     Davidson diagonalization with overlap
     ethr =  3.07E-04,  avg # of iterations =  3.0

     negative rho (up, down):  1.001E-04 0.000E+00

     total cpu time spent up to now is        5.3 secs

     total energy              =     -31.49055970 Ry
     Harris-Foulkes estimate   =     -31.49090861 Ry
     estimated scf accuracy    <       0.03548272 Ry

     iteration #  8     ecut=    30.00 Ry     beta=0.70
     Davidson diagonalization with overlap
     ethr =  3.07E-04,  avg # of iterations =  1.0

     negative rho (up, down):  4.210E-08 0.000E+00

     total cpu time spent up to now is        5.3 secs

     total energy              =     -31.49024343 Ry
     Harris-Foulkes estimate   =     -31.49066772 Ry
     estimated scf accuracy    <       0.01032229 Ry

     iteration #  9     ecut=    30.00 Ry     beta=0.70
     Davidson diagonalization with overlap
     ethr =  1.29E-04,  avg # of iterations =  1.0

     total cpu time spent up to now is        5.4 secs

     total energy              =     -31.49050491 Ry
     Harris-Foulkes estimate   =     -31.49077788 Ry
     estimated scf accuracy    <       0.01925308 Ry

     iteration # 10     ecut=    30.00 Ry     beta=0.70
     Davidson diagonalization with overlap
     ethr =  1.29E-04,  avg # of iterations =  1.0

     total cpu time spent up to now is        5.5 secs

     total energy              =     -31.49058297 Ry
     Harris-Foulkes estimate   =     -31.49060920 Ry
     estimated scf accuracy    <       0.00108276 Ry

     iteration # 11     ecut=    30.00 Ry     beta=0.70
     Davidson diagonalization with overlap
     ethr =  1.35E-05,  avg # of iterations = 11.0

     total cpu time spent up to now is        5.5 secs

     total energy              =     -31.49059815 Ry
     Harris-Foulkes estimate   =     -31.49060051 Ry
     estimated scf accuracy    <       0.00010860 Ry

     iteration # 12     ecut=    30.00 Ry     beta=0.70
     Davidson diagonalization with overlap
     ethr =  1.36E-06,  avg # of iterations =  4.0

     total cpu time spent up to now is        5.6 secs

     total energy              =     -31.49060051 Ry
     Harris-Foulkes estimate   =     -31.49060048 Ry
     estimated scf accuracy    <       0.00002453 Ry

     iteration # 13     ecut=    30.00 Ry     beta=0.70
     Davidson diagonalization with overlap
     ethr =  3.07E-07,  avg # of iterations =  1.0

     total cpu time spent up to now is        5.7 secs

     total energy              =     -31.49060038 Ry
     Harris-Foulkes estimate   =     -31.49060052 Ry
     estimated scf accuracy    <       0.00001628 Ry

     iteration # 14     ecut=    30.00 Ry     beta=0.70
     Davidson diagonalization with overlap
     ethr =  2.03E-07,  avg # of iterations =  1.0

     total cpu time spent up to now is        5.7 secs

     total energy              =     -31.49060054 Ry
     Harris-Foulkes estimate   =     -31.49060049 Ry
     estimated scf accuracy    <       0.00000070 Ry

     iteration # 15     ecut=    30.00 Ry     beta=0.70
     Davidson diagonalization with overlap
     ethr =  8.72E-09,  avg # of iterations =  1.0

     total cpu time spent up to now is        5.8 secs

     End of self-consistent calculation

          k = 0.0000 0.0000 0.0000 ( 22119 PWs)   bands (ev):

   -23.6168  -7.0317  -7.0292  -7.0280  -6.9355  -6.9072  -0.2231   0.5097

     the Fermi energy is    -6.8937 ev

!    total energy              =     -31.49060055 Ry
     Harris-Foulkes estimate   =     -31.49060055 Ry
     estimated scf accuracy    <          4.3E-10 Ry

     convergence has been achieved in  15 iterations

     Forces acting on atoms (Ry/au):

     atom    1 type  1   force =    -0.00051610    0.00046788    0.00029398
     atom    2 type  1   force =    -0.00049154    0.00038374    0.00049957
     atom    3 type  2   force =     0.00100764   -0.00085162   -0.00079356

     Total force =     0.001892     Total SCF correction =     0.000160

     Entering Dynamics:    iteration =     4
                           time      =   0.0194 pico-seconds


     Andersen thermostat:    3 collisions

ATOMIC_POSITIONS (bohr)
H       10.324078157   7.373546142  13.330368936
H       11.105844180   3.778416500   3.888886034
O        6.187340747  12.457603681   6.605354325


     kinetic energy (Ekin) =     0.00675263 Ry
     temperature           =   355.38514126 K 
     Ekin + Etot (const)   =   -31.48384791 Ry
     Message from routine dynamics:
     Total linear momentum <> 0

     Linear momentum :   -0.2406041761   -0.1757744224    0.2090174940

     Writing output data file pwscf.save

     second order wave-functions extrapolation
     Check: negative starting charge=   -0.348115
     second order charge density extrapolation
     Check: negative starting charge=   -0.347301

     negative rho (up, down):  2.741E-02 0.000E+00

     total cpu time spent up to now is        6.3 secs

     per-process dynamical memory:    20.4 Mb

     Self-consistent Calculation

     iteration #  1     ecut=    30.00 Ry     beta=0.70
     Davidson diagonalization with overlap
     ethr =  1.00E-06,  avg # of iterations = 18.0

     negative rho (up, down):  5.846E-03 0.000E+00

     total cpu time spent up to now is        6.5 secs

     total energy              =     -31.47709074 Ry
     Harris-Foulkes estimate   =     -31.46255442 Ry
     estimated scf accuracy    <       0.01006165 Ry

     iteration #  2     ecut=    30.00 Ry     beta=0.70
     Davidson diagonalization with overlap
     ethr =  1.26E-04,  avg # of iterations =  3.0

     negative rho (up, down):  5.613E-03 0.000E+00

     total cpu time spent up to now is        6.5 secs

     total energy              =     -31.46051216 Ry
     Harris-Foulkes estimate   =     -31.66865897 Ry
     estimated scf accuracy    <       3.96157155 Ry

     iteration #  3     ecut=    30.00 Ry     beta=0.70
     Davidson diagonalization with overlap
     ethr =  1.26E-04,  avg # of iterations =  2.0

     negative rho (up, down):  5.434E-03 0.000E+00

     total cpu time spent up to now is        6.6 secs

     total energy              =     -31.47037830 Ry
     Harris-Foulkes estimate   =     -31.51603883 Ry
     estimated scf accuracy    <       1.08038060 Ry

     iteration #  4     ecut=    30.00 Ry     beta=0.70
     Davidson diagonalization with overlap
     ethr =  1.26E-04,  avg # of iterations =  1.0

     negative rho (up, down):  1.895E-03 0.000E+00

     total cpu time spent up to now is        6.6 secs

     total energy              =     -31.48748017 Ry
     Harris-Foulkes estimate   =     -31.48628911 Ry
     estimated scf accuracy    <       0.05375153 Ry

     iteration #  5     ecut=    30.00 Ry     beta=0.70
     Davidson diagonalization with overlap
     ethr =  1.26E-04,  avg # of iterations =  4.0

     negative rho (up, down):  2.834E-04 0.000E+00

     total cpu time spent up to now is        6.7 secs

     total energy              =     -31.48993870 Ry
     Harris-Foulkes estimate   =     -31.49040671 Ry
     estimated scf accuracy    <       0.06786850 Ry

     iteration #  6     ecut=    30.00 Ry     beta=0.70
     Davidson diagonalization with overlap
     ethr =  1.26E-04,  avg # of iterations =  8.0

     negative rho (up, down):  3.269E-07 0.000E+00

     total cpu time spent up to now is        6.8 secs

     total energy              =     -31.49060390 Ry
     Harris-Foulkes estimate   =     -31.49061324 Ry
     estimated scf accuracy    <       0.00050732 Ry

     iteration #  7     ecut=    30.00 Ry     beta=0.70
     Davidson diagonalization with overlap
     ethr =  6.34E-06,  avg # of iterations =  7.0

     total cpu time spent up to now is        6.8 secs

     total energy              =     -31.49061325 Ry
     Harris-Foulkes estimate   =     -31.49061458 Ry
     estimated scf accuracy    <       0.00005372 Ry

     iteration #  8     ecut=    30.00 Ry     beta=0.70
     Davidson diagonalization with overlap
     ethr =  6.72E-07,  avg # of iterations =  1.0

     total cpu time spent up to now is        6.9 secs

     total energy              =     -31.49061364 Ry
     Harris-Foulkes estimate   =     -31.49061408 Ry
     estimated scf accuracy    <       0.00001025 Ry

     iteration #  9     ecut=    30.00 Ry     beta=0.70
     Davidson diagonalization with overlap
     ethr =  1.28E-07,  avg # of iterations =  1.0

     total cpu time spent up to now is        7.0 secs

     total energy              =     -31.49061334 Ry
     Harris-Foulkes estimate   =     -31.49061377 Ry
     estimated scf accuracy    <       0.00000078 Ry

     iteration # 10     ecut=    30.00 Ry     beta=0.70
     Davidson diagonalization with overlap
     ethr =  9.81E-09,  avg # of iterations =  1.0

     total cpu time spent up to now is        7.1 secs

     total energy              =     -31.49061315 Ry
     Harris-Foulkes estimate   =     -31.49061341 Ry
     estimated scf accuracy    <       0.00000610 Ry

     iteration # 11     ecut=    30.00 Ry     beta=0.70
     Davidson diagonalization with overlap
     ethr =  9.81E-09,  avg # of iterations =  1.0

     total cpu time spent up to now is        7.2 secs

     total energy              =     -31.49061327 Ry
     Harris-Foulkes estimate   =     -31.49061328 Ry
     estimated scf accuracy    <       0.00000046 Ry

     iteration # 12     ecut=    30.00 Ry     beta=0.70
     Davidson diagonalization with overlap
     ethr =  5.70E-09,  avg # of iterations =  1.0

     total cpu time spent up to now is        7.2 secs

     End of self-consistent calculation

          k = 0.0000 0.0000 0.0000 ( 22119 PWs)   bands (ev):

   -23.6170  -7.0324  -7.0293  -7.0281  -6.9359  -6.9062  -0.2220   0.5114

     the Fermi energy is    -6.8938 ev

!    total energy              =     -31.49061320 Ry
     Harris-Foulkes estimate   =     -31.49061328 Ry
     estimated scf accuracy    <          4.6E-09 Ry

     convergence has been achieved in  12 iterations

     Forces acting on atoms (Ry/au):

     atom    1 type  1   force =    -0.00068426    0.00055498    0.00011105
     atom    2 type  1   force =    -0.00060772    0.00040435    0.00045461
     atom    3 type  2   force =     0.00129198   -0.00095933   -0.00056566

     Total force =     0.002107     Total SCF correction =     0.000255
     SCF correction compared to forces is large: reduce conv_thr to get better values

     Entering Dynamics:    iteration =     5
                           time      =   0.0242 pico-seconds


     Andersen thermostat:    3 collisions

ATOMIC_POSITIONS (bohr)
H       10.853542036   7.369161100  13.521239898
H       11.159501435   3.784074568   3.606858026
O        6.150531226  12.457523321   6.611108614


     kinetic energy (Ekin) =     0.02445373 Ry
     temperature           =  1286.97797188 K 
     Ekin + Etot (const)   =   -31.46615947 Ry
     Message from routine dynamics:
     Total linear momentum <> 0

     Linear momentum :   -0.4988346395    0.3796699400   -0.0112887024

     Writing output data file pwscf.save

     second order wave-functions extrapolation
     Check: negative starting charge=   -0.347301
     second order charge density extrapolation
     Check: negative starting charge=   -0.347637

     negative rho (up, down):  7.615E-02 0.000E+00

     total cpu time spent up to now is        8.0 secs

     per-process dynamical memory:    20.4 Mb

     Self-consistent Calculation

     iteration #  1     ecut=    30.00 Ry     beta=0.70
     Davidson diagonalization with overlap
     c_bands:  1 eigenvalues not converged
     ethr =  1.00E-06,  avg # of iterations = 20.0

     negative rho (up, down):  1.759E-02 0.000E+00

     total cpu time spent up to now is        8.2 secs

     total energy              =     -31.44745882 Ry
     Harris-Foulkes estimate   =     -31.43054883 Ry
     estimated scf accuracy    <       0.03339765 Ry

     iteration #  2     ecut=    30.00 Ry     beta=0.70
     Davidson diagonalization with overlap
     ethr =  4.17E-04,  avg # of iterations =  2.0

     negative rho (up, down):  1.637E-02 0.000E+00

     total cpu time spent up to now is        8.3 secs

     total energy              =     -31.47086220 Ry
     Harris-Foulkes estimate   =     -31.87683257 Ry
     estimated scf accuracy    <       4.21324688 Ry

     iteration #  3     ecut=    30.00 Ry     beta=0.70
     Davidson diagonalization with overlap
     ethr =  4.17E-04,  avg # of iterations =  2.0

     negative rho (up, down):  1.605E-02 0.000E+00

     total cpu time spent up to now is        8.4 secs

     total energy              =     -31.47278986 Ry
     Harris-Foulkes estimate   =     -31.48677167 Ry
     estimated scf accuracy    <       0.86516404 Ry

     iteration #  4     ecut=    30.00 Ry     beta=0.70
     Davidson diagonalization with overlap
     ethr =  4.17E-04,  avg # of iterations =  1.0

     negative rho (up, down):  5.899E-03 0.000E+00

     total cpu time spent up to now is        8.4 secs

     total energy              =     -31.43980719 Ry
     Harris-Foulkes estimate   =     -31.47892636 Ry
     estimated scf accuracy    <       0.44020618 Ry

     iteration #  5     ecut=    30.00 Ry     beta=0.70
     Davidson diagonalization with overlap
     ethr =  4.17E-04,  avg # of iterations =  1.0

     negative rho (up, down):  2.800E-03 0.000E+00

     total cpu time spent up to now is        8.5 secs

     total energy              =     -31.45449661 Ry
     Harris-Foulkes estimate   =     -31.56013794 Ry
     estimated scf accuracy    <       2.75281490 Ry

     iteration #  6     ecut=    30.00 Ry     beta=0.70
     Davidson diagonalization with overlap
     ethr =  4.17E-04,  avg # of iterations =  1.0

     negative rho (up, down):  6.023E-04 0.000E+00

     total cpu time spent up to now is        8.5 secs

     total energy              =     -31.49010377 Ry
     Harris-Foulkes estimate   =     -31.48851104 Ry
     estimated scf accuracy    <       0.00540274 Ry

     iteration #  7     ecut=    30.00 Ry     beta=0.70
     Davidson diagonalization with overlap
     ethr =  6.75E-05,  avg # of iterations = 12.0

     negative rho (up, down):  3.697E-04 0.000E+00

     total cpu time spent up to now is        8.6 secs

     total energy              =     -31.49056881 Ry
     Harris-Foulkes estimate   =     -31.49060046 Ry
     estimated scf accuracy    <       0.02378849 Ry

     iteration #  8     ecut=    30.00 Ry     beta=0.70
     Davidson diagonalization with overlap
     ethr =  6.75E-05,  avg # of iterations =  1.0

     negative rho (up, down):  6.435E-06 0.000E+00

     total cpu time spent up to now is        8.7 secs

     total energy              =     -31.49037040 Ry
     Harris-Foulkes estimate   =     -31.49057509 Ry
     estimated scf accuracy    <       0.01923598 Ry

     iteration #  9     ecut=    30.00 Ry     beta=0.70
     Davidson diagonalization with overlap
     ethr =  6.75E-05,  avg # of iterations =  1.0

     negative rho (up, down):  1.894E-08 0.000E+00

     total cpu time spent up to now is        8.7 secs

     total energy              =     -31.49025118 Ry
     Harris-Foulkes estimate   =     -31.49045038 Ry
     estimated scf accuracy    <       0.00302506 Ry

     iteration # 10     ecut=    30.00 Ry     beta=0.70
     Davidson diagonalization with overlap
     ethr =  3.78E-05,  avg # of iterations =  1.0

     negative rho (up, down):  4.940E-08 0.000E+00

     total cpu time spent up to now is        8.8 secs

     total energy              =     -31.49059166 Ry
     Harris-Foulkes estimate   =     -31.49063287 Ry
     estimated scf accuracy    <       0.02278482 Ry

     iteration # 11     ecut=    30.00 Ry     beta=0.70
     Davidson diagonalization with overlap
     ethr =  3.78E-05,  avg # of iterations =  1.0

     negative rho (up, down):  2.728E-08 0.000E+00

     total cpu time spent up to now is        8.8 secs

     total energy              =     -31.49044832 Ry
     Harris-Foulkes estimate   =     -31.49059384 Ry
     estimated scf accuracy    <       0.01854918 Ry

     iteration # 12     ecut=    30.00 Ry     beta=0.70
     Davidson diagonalization with overlap
     ethr =  3.78E-05,  avg # of iterations =  1.0

     total cpu time spent up to now is        8.9 secs

     total energy              =     -31.49039556 Ry
     Harris-Foulkes estimate   =     -31.49047892 Ry
     estimated scf accuracy    <       0.00614646 Ry

     iteration # 13     ecut=    30.00 Ry     beta=0.70
     Davidson diagonalization with overlap
     ethr =  3.78E-05,  avg # of iterations =  1.0

     total cpu time spent up to now is        9.0 secs

     total energy              =     -31.49042214 Ry
     Harris-Foulkes estimate   =     -31.49042598 Ry
     estimated scf accuracy    <       0.00044658 Ry

     iteration # 14     ecut=    30.00 Ry     beta=0.70
     Davidson diagonalization with overlap
     ethr =  5.58E-06,  avg # of iterations =  1.0

     total cpu time spent up to now is        9.1 secs

     total energy              =     -31.49042028 Ry
     Harris-Foulkes estimate   =     -31.49042299 Ry
     estimated scf accuracy    <       0.00013539 Ry

     iteration # 15     ecut=    30.00 Ry     beta=0.70
     Davidson diagonalization with overlap
     ethr =  1.69E-06,  avg # of iterations =  1.0

     total cpu time spent up to now is        9.1 secs

     total energy              =     -31.49042151 Ry
     Harris-Foulkes estimate   =     -31.49042155 Ry
     estimated scf accuracy    <       0.00000003 Ry

     iteration # 16     ecut=    30.00 Ry     beta=0.70
     Davidson diagonalization with overlap
     ethr =  3.54E-10,  avg # of iterations =  2.0

     total cpu time spent up to now is        9.2 secs

     total energy              =     -31.49042079 Ry
     Harris-Foulkes estimate   =     -31.49042152 Ry
     estimated scf accuracy    <       0.00000003 Ry

     iteration # 17     ecut=    30.00 Ry     beta=0.70
     Davidson diagonalization with overlap
     ethr =  3.26E-10,  avg # of iterations =  2.0

     total cpu time spent up to now is        9.2 secs

     total energy              =     -31.49042073 Ry
     Harris-Foulkes estimate   =     -31.49042080 Ry
     estimated scf accuracy    <       0.00000002 Ry

     iteration # 18     ecut=    30.00 Ry     beta=0.70
     Davidson diagonalization with overlap
     ethr =  2.05E-10,  avg # of iterations =  1.0

     total cpu time spent up to now is        9.3 secs

     End of self-consistent calculation

          k = 0.0000 0.0000 0.0000 ( 22119 PWs)   bands (ev):

   -23.6200  -7.0328  -7.0309  -7.0298  -6.9381  -6.9094  -0.2260   0.5042

     the Fermi energy is    -6.8956 ev

!    total energy              =     -31.49042067 Ry
     Harris-Foulkes estimate   =     -31.49042073 Ry
     estimated scf accuracy    <          2.5E-09 Ry

     convergence has been achieved in  18 iterations

     Forces acting on atoms (Ry/au):

     atom    1 type  1   force =    -0.00073187    0.00069092    0.00059400
     atom    2 type  1   force =    -0.00070586    0.00059853    0.00081629
     atom    3 type  2   force =     0.00143773   -0.00128945   -0.00141029

     Total force =     0.002934     Total SCF correction =     0.000492
     SCF correction compared to forces is large: reduce conv_thr to get better values

     Entering Dynamics:    iteration =     6
                           time      =   0.0290 pico-seconds


     Andersen thermostat:    3 collisions

ATOMIC_POSITIONS (bohr)
H       10.890596709   7.240412972  13.604828722
H       11.306004055   3.908411948   3.459213615
O        6.138944172  12.457801749   6.615152122


     kinetic energy (Ekin) =     0.00585591 Ry
     temperature           =   308.19127694 K 
     Ekin + Etot (const)   =   -31.48456477 Ry
     Message from routine dynamics:
     Total linear momentum <> 0

     Linear momentum :   -0.2202020779   -0.0626571191    0.3050880795

     Writing output data file pwscf.save

     second order wave-functions extrapolation
     Check: negative starting charge=   -0.347637
     second order charge density extrapolation
     Check: negative starting charge=   -0.347966

     negative rho (up, down):  1.906E-02 0.000E+00

     total cpu time spent up to now is       10.0 secs

     per-process dynamical memory:    20.4 Mb

     Self-consistent Calculation

     iteration #  1     ecut=    30.00 Ry     beta=0.70
     Davidson diagonalization with overlap
     c_bands:  1 eigenvalues not converged
     ethr =  1.00E-06,  avg # of iterations = 20.0

     negative rho (up, down):  3.932E-03 0.000E+00

     total cpu time spent up to now is       10.2 secs

     total energy              =     -31.48038602 Ry
     Harris-Foulkes estimate   =     -31.47077596 Ry
     estimated scf accuracy    <       0.00806628 Ry

     iteration #  2     ecut=    30.00 Ry     beta=0.70
     Davidson diagonalization with overlap
     ethr =  1.01E-04,  avg # of iterations =  3.0

     negative rho (up, down):  3.775E-03 0.000E+00

     total cpu time spent up to now is       10.3 secs

     total energy              =     -31.46562113 Ry
     Harris-Foulkes estimate   =     -31.66401354 Ry
     estimated scf accuracy    <       3.89958964 Ry

     iteration #  3     ecut=    30.00 Ry     beta=0.70
     Davidson diagonalization with overlap
     ethr =  1.01E-04,  avg # of iterations =  2.0

     negative rho (up, down):  3.668E-03 0.000E+00

     total cpu time spent up to now is       10.3 secs

     total energy              =     -31.47810387 Ry
     Harris-Foulkes estimate   =     -31.50015774 Ry
     estimated scf accuracy    <       0.63010519 Ry

     iteration #  4     ecut=    30.00 Ry     beta=0.70
     Davidson diagonalization with overlap
     ethr =  1.01E-04,  avg # of iterations =  1.0

     negative rho (up, down):  5.992E-04 0.000E+00

     total cpu time spent up to now is       10.4 secs

     total energy              =     -31.48833446 Ry
     Harris-Foulkes estimate   =     -31.48764236 Ry
     estimated scf accuracy    <       0.03972033 Ry

     iteration #  5     ecut=    30.00 Ry     beta=0.70
     Davidson diagonalization with overlap
     ethr =  1.01E-04,  avg # of iterations =  9.0

     negative rho (up, down):  1.396E-05 0.000E+00

     total cpu time spent up to now is       10.4 secs

     total energy              =     -31.48903798 Ry
     Harris-Foulkes estimate   =     -31.49196466 Ry
     estimated scf accuracy    <       0.15597218 Ry

     iteration #  6     ecut=    30.00 Ry     beta=0.70
     Davidson diagonalization with overlap
     ethr =  1.01E-04,  avg # of iterations =  1.0

     total cpu time spent up to now is       10.5 secs

     total energy              =     -31.49032171 Ry
     Harris-Foulkes estimate   =     -31.49035233 Ry
     estimated scf accuracy    <       0.00111209 Ry

     iteration #  7     ecut=    30.00 Ry     beta=0.70
     Davidson diagonalization with overlap
     ethr =  1.39E-05,  avg # of iterations = 10.0

     total cpu time spent up to now is       10.6 secs

     total energy              =     -31.49034445 Ry
     Harris-Foulkes estimate   =     -31.49034787 Ry
     estimated scf accuracy    <       0.00028634 Ry

     iteration #  8     ecut=    30.00 Ry     beta=0.70
     Davidson diagonalization with overlap
     ethr =  3.58E-06,  avg # of iterations =  1.0

     total cpu time spent up to now is       10.6 secs

     total energy              =     -31.49034472 Ry
     Harris-Foulkes estimate   =     -31.49034559 Ry
     estimated scf accuracy    <       0.00004521 Ry

     iteration #  9     ecut=    30.00 Ry     beta=0.70
     Davidson diagonalization with overlap
     ethr =  5.65E-07,  avg # of iterations =  1.0

     total cpu time spent up to now is       10.7 secs

     total energy              =     -31.49034461 Ry
     Harris-Foulkes estimate   =     -31.49034498 Ry
     estimated scf accuracy    <       0.00000303 Ry

     iteration # 10     ecut=    30.00 Ry     beta=0.70
     Davidson diagonalization with overlap
     ethr =  3.79E-08,  avg # of iterations =  1.0

     total cpu time spent up to now is       10.8 secs

     total energy              =     -31.49034460 Ry
     Harris-Foulkes estimate   =     -31.49034478 Ry
     estimated scf accuracy    <       0.00000481 Ry

     iteration # 11     ecut=    30.00 Ry     beta=0.70
     Davidson diagonalization with overlap
     ethr =  3.79E-08,  avg # of iterations =  1.0

     total cpu time spent up to now is       10.8 secs

     total energy              =     -31.49034463 Ry
     Harris-Foulkes estimate   =     -31.49034471 Ry
     estimated scf accuracy    <       0.00000112 Ry

     iteration # 12     ecut=    30.00 Ry     beta=0.70
     Davidson diagonalization with overlap
     ethr =  1.40E-08,  avg # of iterations =  1.0

     total cpu time spent up to now is       10.9 secs

     total energy              =     -31.49034456 Ry
     Harris-Foulkes estimate   =     -31.49034465 Ry
     estimated scf accuracy    <       0.00000005 Ry

     iteration # 13     ecut=    30.00 Ry     beta=0.70
     Davidson diagonalization with overlap
     ethr =  5.98E-10,  avg # of iterations =  1.0

     total cpu time spent up to now is       11.0 secs

     total energy              =     -31.49034455 Ry
     Harris-Foulkes estimate   =     -31.49034456 Ry
     estimated scf accuracy    <       0.00000001 Ry

     iteration # 14     ecut=    30.00 Ry     beta=0.70
     Davidson diagonalization with overlap
     ethr =  1.61E-10,  avg # of iterations =  1.0

     total cpu time spent up to now is       11.0 secs

     End of self-consistent calculation

          k = 0.0000 0.0000 0.0000 ( 22119 PWs)   bands (ev):

   -23.6228  -7.0347  -7.0330  -7.0320  -6.9412  -6.9112  -0.2269   0.4973

     the Fermi energy is    -6.8978 ev

!    total energy              =     -31.49034454 Ry
     Harris-Foulkes estimate   =     -31.49034455 Ry
     estimated scf accuracy    <          1.8E-10 Ry

     convergence has been achieved in  14 iterations

     Forces acting on atoms (Ry/au):

     atom    1 type  1   force =    -0.00051498    0.00070250    0.00055647
     atom    2 type  1   force =    -0.00049273    0.00064617    0.00075097
     atom    3 type  2   force =     0.00100770   -0.00134866   -0.00130744

     Total force =     0.002615     Total SCF correction =     0.000009

     Entering Dynamics:    iteration =     7
                           time      =   0.0339 pico-seconds


     Andersen thermostat:    3 collisions

ATOMIC_POSITIONS (bohr)
H       10.879846296   7.207415386  13.662432949
H       11.470196831   3.701263339   3.713493751
O        6.129258123  12.472960978   6.595464422


     kinetic energy (Ekin) =     0.00877076 Ry
     temperature           =   461.59702085 K 
     Ekin + Etot (const)   =   -31.48157378 Ry
     Message from routine dynamics:
     Total linear momentum <> 0

     Linear momentum :    0.1112773324    0.3259757512    0.1805099049

     Writing output data file pwscf.save

     second order wave-functions extrapolation
     Check: negative starting charge=   -0.347966
     second order charge density extrapolation
     Check: negative starting charge=   -0.348437

     negative rho (up, down):  4.921E-02 0.000E+00

     total cpu time spent up to now is       11.6 secs

     per-process dynamical memory:    20.4 Mb

     Self-consistent Calculation

     iteration #  1     ecut=    30.00 Ry     beta=0.70
     Davidson diagonalization with overlap
     c_bands:  1 eigenvalues not converged
     ethr =  1.00E-06,  avg # of iterations = 20.0

     negative rho (up, down):  1.086E-02 0.000E+00

     total cpu time spent up to now is       11.8 secs

     total energy              =     -31.47025600 Ry
     Harris-Foulkes estimate   =     -31.44758010 Ry
     estimated scf accuracy    <       0.01297514 Ry

     iteration #  2     ecut=    30.00 Ry     beta=0.70
     Davidson diagonalization with overlap
     ethr =  1.62E-04,  avg # of iterations =  2.0

     negative rho (up, down):  1.041E-02 0.000E+00

     total cpu time spent up to now is       11.9 secs

     total energy              =     -31.45431596 Ry
     Harris-Foulkes estimate   =     -31.68227376 Ry
     estimated scf accuracy    <       3.95754977 Ry

     iteration #  3     ecut=    30.00 Ry     beta=0.70
     Davidson diagonalization with overlap
     ethr =  1.62E-04,  avg # of iterations =  2.0

     negative rho (up, down):  1.006E-02 0.000E+00

     total cpu time spent up to now is       11.9 secs

     total energy              =     -31.46271785 Ry
     Harris-Foulkes estimate   =     -31.51666892 Ry
     estimated scf accuracy    <       1.14825275 Ry

     iteration #  4     ecut=    30.00 Ry     beta=0.70
     Davidson diagonalization with overlap
     ethr =  1.62E-04,  avg # of iterations =  1.0

     negative rho (up, down):  2.111E-03 0.000E+00

     total cpu time spent up to now is       12.0 secs

     total energy              =     -31.48721939 Ry
     Harris-Foulkes estimate   =     -31.48123868 Ry
     estimated scf accuracy    <       0.03264614 Ry

     iteration #  5     ecut=    30.00 Ry     beta=0.70
     Davidson diagonalization with overlap
     ethr =  1.62E-04,  avg # of iterations =  4.0

     negative rho (up, down):  9.976E-04 0.000E+00

     total cpu time spent up to now is       12.1 secs

     total energy              =     -31.48810833 Ry
     Harris-Foulkes estimate   =     -31.49046910 Ry
     estimated scf accuracy    <       0.10946050 Ry

     iteration #  6     ecut=    30.00 Ry     beta=0.70
     Davidson diagonalization with overlap
     ethr =  1.62E-04,  avg # of iterations =  1.0

     negative rho (up, down):  1.159E-05 0.000E+00

     total cpu time spent up to now is       12.1 secs

     total energy              =     -31.49007683 Ry
     Harris-Foulkes estimate   =     -31.49021840 Ry
     estimated scf accuracy    <       0.01012044 Ry

     iteration #  7     ecut=    30.00 Ry     beta=0.70
     Davidson diagonalization with overlap
[...]
     Harris-Foulkes estimate   =    -669.52568987 Ry
     estimated scf accuracy    <      23.95145516 Ry

     iteration # 59     ecut=    30.00 Ry     beta=0.70
     Davidson diagonalization with overlap
     ethr =  1.00E-02,  avg # of iterations =  8.0

     negative rho (up, down):  1.099E-01 0.000E+00

     total cpu time spent up to now is       17.3 secs

     total energy              =     127.33730000 Ry
     Harris-Foulkes estimate   =   -1358.96206651 Ry
     estimated scf accuracy    <      18.35069018 Ry

     iteration # 60     ecut=    30.00 Ry     beta=0.70
     Davidson diagonalization with overlap
     ethr =  1.00E-02,  avg # of iterations = 12.0

     negative rho (up, down):  5.577E-02 0.000E+00

     total cpu time spent up to now is       17.4 secs

     total energy              =      99.44978342 Ry
     Harris-Foulkes estimate   =   -6258.84407239 Ry
     estimated scf accuracy    <      20.05533205 Ry

     iteration # 61     ecut=    30.00 Ry     beta=0.70
     Davidson diagonalization with overlap
     ethr =  1.00E-02,  avg # of iterations =  8.0

     negative rho (up, down):  2.397E-02 0.000E+00

     total cpu time spent up to now is       17.4 secs

     total energy              =      67.60175460 Ry
     Harris-Foulkes estimate   =    -175.72656696 Ry
     estimated scf accuracy    <      20.40685255 Ry

     iteration # 62     ecut=    30.00 Ry     beta=0.70
     Davidson diagonalization with overlap
     ethr =  1.00E-02,  avg # of iterations =  4.0

     negative rho (up, down):  6.512E-03 0.000E+00

     total cpu time spent up to now is       17.5 secs

     total energy              =     -25.78980702 Ry
     Harris-Foulkes estimate   =    -363.22682125 Ry
     estimated scf accuracy    <      44.00801661 Ry

     iteration # 63     ecut=    30.00 Ry     beta=0.70
     Davidson diagonalization with overlap
     ethr =  1.00E-02,  avg # of iterations =  4.0

     negative rho (up, down):  7.766E-03 0.000E+00

     total cpu time spent up to now is       17.5 secs

     total energy              =     -81.25189667 Ry
     Harris-Foulkes estimate   =     -82.14997892 Ry
     estimated scf accuracy    <      67.03244260 Ry

     iteration # 64     ecut=    30.00 Ry     beta=0.70
     Davidson diagonalization with overlap
     ethr =  1.00E-02,  avg # of iterations =  1.0

     negative rho (up, down):  4.993E-03 0.000E+00

     total cpu time spent up to now is       17.5 secs

     total energy              =     -81.11921667 Ry
     Harris-Foulkes estimate   =     -81.25235781 Ry
     estimated scf accuracy    <      65.83141572 Ry

     iteration # 65     ecut=    30.00 Ry     beta=0.70
     Davidson diagonalization with overlap
     ethr =  1.00E-02,  avg # of iterations =  1.0

     negative rho (up, down):  1.346E-02 0.000E+00

     total cpu time spent up to now is       17.6 secs

     total energy              =     -85.23109490 Ry
     Harris-Foulkes estimate   =     -81.11930420 Ry
     estimated scf accuracy    <      65.63129261 Ry

     iteration # 66     ecut=    30.00 Ry     beta=0.70
     Davidson diagonalization with overlap
     ethr =  1.00E-02,  avg # of iterations =  1.0

     negative rho (up, down):  4.586E-03 0.000E+00

     total cpu time spent up to now is       17.6 secs

     total energy              =     -84.39640277 Ry
     Harris-Foulkes estimate   =     -85.23410510 Ry
     estimated scf accuracy    <      70.68230839 Ry

     iteration # 67     ecut=    30.00 Ry     beta=0.70
     Davidson diagonalization with overlap
     ethr =  1.00E-02,  avg # of iterations =  1.0

     negative rho (up, down):  2.105E-02 0.000E+00

     total cpu time spent up to now is       17.7 secs

     total energy              =     -89.40014357 Ry
     Harris-Foulkes estimate   =     -84.39647297 Ry
     estimated scf accuracy    <      69.83720418 Ry

     iteration # 68     ecut=    30.00 Ry     beta=0.70
     Davidson diagonalization with overlap
     ethr =  1.00E-02,  avg # of iterations =  1.0

     negative rho (up, down):  1.059E-01 0.000E+00

     total cpu time spent up to now is       17.7 secs

     total energy              =     -87.02811309 Ry
     Harris-Foulkes estimate   =     -89.40358018 Ry
     estimated scf accuracy    <      76.18620879 Ry

     iteration # 69     ecut=    30.00 Ry     beta=0.70
     Davidson diagonalization with overlap
     ethr =  1.00E-02,  avg # of iterations =  8.0

     negative rho (up, down):  4.672E-02 0.000E+00

     total cpu time spent up to now is       17.7 secs

     total energy              =     140.72073142 Ry
     Harris-Foulkes estimate   =    -559.28214127 Ry
     estimated scf accuracy    <      25.87781942 Ry

     iteration # 70     ecut=    30.00 Ry     beta=0.70
     Davidson diagonalization with overlap
     ethr =  1.00E-02,  avg # of iterations =  8.0

     negative rho (up, down):  2.975E-02 0.000E+00

     total cpu time spent up to now is       17.8 secs

     total energy              =      79.17241237 Ry
     Harris-Foulkes estimate   =    -357.39154445 Ry
     estimated scf accuracy    <      35.69997418 Ry

     iteration # 71     ecut=    30.00 Ry     beta=0.70
     Davidson diagonalization with overlap
     ethr =  1.00E-02,  avg # of iterations =  6.0

     negative rho (up, down):  1.501E-02 0.000E+00

     total cpu time spent up to now is       17.8 secs

     total energy              =      25.82833097 Ry
     Harris-Foulkes estimate   =    -146.01116364 Ry
     estimated scf accuracy    <      25.27247428 Ry

     iteration # 72     ecut=    30.00 Ry     beta=0.70
     Davidson diagonalization with overlap
     ethr =  1.00E-02,  avg # of iterations =  3.0

     negative rho (up, down):  1.580E-01 0.000E+00

     total cpu time spent up to now is       17.9 secs

     total energy              =     -70.07067559 Ry
     Harris-Foulkes estimate   =     -75.38309829 Ry
     estimated scf accuracy    <      58.46495498 Ry

     iteration # 73     ecut=    30.00 Ry     beta=0.70
     Davidson diagonalization with overlap
     ethr =  1.00E-02,  avg # of iterations = 12.0

     negative rho (up, down):  2.415E-01 0.000E+00

     total cpu time spent up to now is       17.9 secs

     total energy              =    -387.32468081 Ry
     Harris-Foulkes estimate   =    -660.31962995 Ry
     estimated scf accuracy    <      31.72386977 Ry

     iteration # 74     ecut=    30.00 Ry     beta=0.70
     Davidson diagonalization with overlap
     ethr =  1.00E-02,  avg # of iterations =  7.0

     negative rho (up, down):  2.119E-01 0.000E+00

     total cpu time spent up to now is       18.0 secs

     total energy              =      38.42377435 Ry
     Harris-Foulkes estimate   =   -1343.68310654 Ry
     estimated scf accuracy    <      42.71856383 Ry

     iteration # 75     ecut=    30.00 Ry     beta=0.70
     Davidson diagonalization with overlap
     ethr =  1.00E-02,  avg # of iterations =  6.0

     negative rho (up, down):  2.108E-01 0.000E+00

     total cpu time spent up to now is       18.0 secs

     total energy              =     -76.88071301 Ry
     Harris-Foulkes estimate   =    -170.75851479 Ry
     estimated scf accuracy    <      31.40801099 Ry

     iteration # 76     ecut=    30.00 Ry     beta=0.70
     Davidson diagonalization with overlap
     ethr =  1.00E-02,  avg # of iterations =  8.0

     negative rho (up, down):  2.241E-01 0.000E+00

     total cpu time spent up to now is       18.1 secs

     total energy              =     121.02369944 Ry
     Harris-Foulkes estimate   =    -631.46212231 Ry
     estimated scf accuracy    <      47.29021119 Ry

     iteration # 77     ecut=    30.00 Ry     beta=0.70
     Davidson diagonalization with overlap
     ethr =  1.00E-02,  avg # of iterations = 10.0

     negative rho (up, down):  5.412E-02 0.000E+00

     total cpu time spent up to now is       18.1 secs

     total energy              =     -30.16090190 Ry
     Harris-Foulkes estimate   =     -82.46928921 Ry
     estimated scf accuracy    <      34.00415511 Ry

     iteration # 78     ecut=    30.00 Ry     beta=0.70
     Davidson diagonalization with overlap
     ethr =  1.00E-02,  avg # of iterations =  8.0

     negative rho (up, down):  2.510E+00 0.000E+00

     total cpu time spent up to now is       18.2 secs

     total energy              =     -77.94958183 Ry
     Harris-Foulkes estimate   =     -72.68887121 Ry
     estimated scf accuracy    <      54.93256228 Ry

     iteration # 79     ecut=    30.00 Ry     beta=0.70
     Davidson diagonalization with overlap
     ethr =  1.00E-02,  avg # of iterations = 13.0

     negative rho (up, down):  5.079E-01 0.000E+00

     total cpu time spent up to now is       18.3 secs

     total energy              =      80.14785147 Ry
     Harris-Foulkes estimate   =   -4397.64129075 Ry
     estimated scf accuracy    <      35.52811214 Ry

     iteration # 80     ecut=    30.00 Ry     beta=0.70
     Davidson diagonalization with overlap
     ethr =  1.00E-02,  avg # of iterations =  8.0

     negative rho (up, down):  4.844E-01 0.000E+00

     total cpu time spent up to now is       18.3 secs

     total energy              =     133.54709435 Ry
     Harris-Foulkes estimate   =   -1139.34245207 Ry
     estimated scf accuracy    <      28.90013627 Ry

     iteration # 81     ecut=    30.00 Ry     beta=0.70
     Davidson diagonalization with overlap
     ethr =  1.00E-02,  avg # of iterations = 10.0

     negative rho (up, down):  4.980E-01 0.000E+00

     total cpu time spent up to now is       18.4 secs

     total energy              =     134.21915767 Ry
     Harris-Foulkes estimate   =    -991.26882307 Ry
     estimated scf accuracy    <      25.50883837 Ry

     iteration # 82     ecut=    30.00 Ry     beta=0.70
     Davidson diagonalization with overlap
     ethr =  1.00E-02,  avg # of iterations = 12.0

     negative rho (up, down):  6.142E-01 0.000E+00

     total cpu time spent up to now is       18.4 secs

     total energy              =     -23.15705949 Ry
     Harris-Foulkes estimate   =     -79.68544964 Ry
     estimated scf accuracy    <      24.01160842 Ry

     iteration # 83     ecut=    30.00 Ry     beta=0.70
     Davidson diagonalization with overlap
     ethr =  1.00E-02,  avg # of iterations =  5.0

     negative rho (up, down):  6.439E-01 0.000E+00

     total cpu time spent up to now is       18.5 secs

     total energy              =     -39.95537556 Ry
     Harris-Foulkes estimate   =    -286.91066000 Ry
     estimated scf accuracy    <      24.36144392 Ry

     iteration # 84     ecut=    30.00 Ry     beta=0.70
     Davidson diagonalization with overlap
     ethr =  1.00E-02,  avg # of iterations =  8.0

     negative rho (up, down):  6.389E-02 0.000E+00

     total cpu time spent up to now is       18.5 secs

     total energy              =     141.94954732 Ry
     Harris-Foulkes estimate   =   -1051.53105612 Ry
     estimated scf accuracy    <      34.01615340 Ry

     iteration # 85     ecut=    30.00 Ry     beta=0.70
     Davidson diagonalization with overlap
     ethr =  1.00E-02,  avg # of iterations = 10.0

     negative rho (up, down):  3.982E-02 0.000E+00

     total cpu time spent up to now is       18.6 secs

     total energy              =     -40.71297308 Ry
     Harris-Foulkes estimate   =     -64.30663727 Ry
     estimated scf accuracy    <      23.50443438 Ry

     iteration # 86     ecut=    30.00 Ry     beta=0.70
     Davidson diagonalization with overlap
     ethr =  1.00E-02,  avg # of iterations = 10.0

     negative rho (up, down):  4.961E-02 0.000E+00

     total cpu time spent up to now is       18.6 secs

     total energy              =     -77.73482896 Ry
     Harris-Foulkes estimate   =    -268.91013543 Ry
     estimated scf accuracy    <      26.03394932 Ry

     iteration # 87     ecut=    30.00 Ry     beta=0.70
     Davidson diagonalization with overlap
     ethr =  1.00E-02,  avg # of iterations =  5.0

     negative rho (up, down):  1.310E-01 0.000E+00

     total cpu time spent up to now is       18.7 secs

     total energy              =    -179.13279034 Ry
     Harris-Foulkes estimate   =    -226.79220029 Ry
     estimated scf accuracy    <      18.06918706 Ry

     iteration # 88     ecut=    30.00 Ry     beta=0.70
     Davidson diagonalization with overlap
     ethr =  1.00E-02,  avg # of iterations =  5.0

     negative rho (up, down):  1.154E-01 0.000E+00

     total cpu time spent up to now is       18.7 secs

     total energy              =    -204.61106996 Ry
     Harris-Foulkes estimate   =    -582.20169323 Ry
     estimated scf accuracy    <      31.62754319 Ry

     iteration # 89     ecut=    30.00 Ry     beta=0.70
     Davidson diagonalization with overlap
     ethr =  1.00E-02,  avg # of iterations =  7.0

     negative rho (up, down):  2.430E-01 0.000E+00

     total cpu time spent up to now is       18.8 secs

     total energy              =      -7.59920992 Ry
     Harris-Foulkes estimate   =    -757.82187320 Ry
     estimated scf accuracy    <      18.57106837 Ry

     iteration # 90     ecut=    30.00 Ry     beta=0.70
     Davidson diagonalization with overlap
     ethr =  1.00E-02,  avg # of iterations =  6.0

     negative rho (up, down):  3.814E-01 0.000E+00

     total cpu time spent up to now is       18.8 secs

     total energy              =   -1502.10963931 Ry
     Harris-Foulkes estimate   =    -460.17969930 Ry
     estimated scf accuracy    <      35.99765417 Ry

     iteration # 91     ecut=    30.00 Ry     beta=0.70
     Davidson diagonalization with overlap
     ethr =  1.00E-02,  avg # of iterations =  8.0

     negative rho (up, down):  3.971E-01 0.000E+00

     total cpu time spent up to now is       18.9 secs

     total energy              =    -557.48316833 Ry
     Harris-Foulkes estimate   =   -6721.74283586 Ry
     estimated scf accuracy    <      38.25556905 Ry

     iteration # 92     ecut=    30.00 Ry     beta=0.70
     Davidson diagonalization with overlap
     ethr =  1.00E-02,  avg # of iterations = 10.0

     negative rho (up, down):  5.203E-01 0.000E+00

     total cpu time spent up to now is       19.0 secs

     total energy              =    -428.75178922 Ry
     Harris-Foulkes estimate   =   -1954.81909537 Ry
     estimated scf accuracy    <      31.30845400 Ry

     iteration # 93     ecut=    30.00 Ry     beta=0.70
     Davidson diagonalization with overlap
     ethr =  1.00E-02,  avg # of iterations =  6.0

     negative rho (up, down):  6.981E-01 0.000E+00

     total cpu time spent up to now is       19.0 secs

     total energy              =      91.99434224 Ry
     Harris-Foulkes estimate   =   -3417.36070127 Ry
     estimated scf accuracy    <      46.32034400 Ry

     iteration # 94     ecut=    30.00 Ry     beta=0.70
     Davidson diagonalization with overlap
     ethr =  1.00E-02,  avg # of iterations = 12.0

     negative rho (up, down):  6.524E-01 0.000E+00

     total cpu time spent up to now is       19.1 secs

     total energy              =     -92.26352266 Ry
     Harris-Foulkes estimate   =    -188.05659221 Ry
     estimated scf accuracy    <      17.02658987 Ry

     iteration # 95     ecut=    30.00 Ry     beta=0.70
     Davidson diagonalization with overlap
     ethr =  1.00E-02,  avg # of iterations =  8.0

     negative rho (up, down):  7.109E-02 0.000E+00

     total cpu time spent up to now is       19.1 secs

     total energy              =    1083.45705174 Ry
     Harris-Foulkes estimate   =   -5021.71760244 Ry
     estimated scf accuracy    <      37.28553728 Ry

     iteration # 96     ecut=    30.00 Ry     beta=0.70
     Davidson diagonalization with overlap
     ethr =  1.00E-02,  avg # of iterations =  7.0

     negative rho (up, down):  2.696E-01 0.000E+00

     total cpu time spent up to now is       19.2 secs

     total energy              =      58.18261785 Ry
     Harris-Foulkes estimate   =    -265.36717628 Ry
     estimated scf accuracy    <      38.12459398 Ry

     iteration # 97     ecut=    30.00 Ry     beta=0.70
     Davidson diagonalization with overlap
     ethr =  1.00E-02,  avg # of iterations =  8.0

     negative rho (up, down):  3.424E-01 0.000E+00

     total cpu time spent up to now is       19.2 secs

     total energy              =   -1012.86963448 Ry
     Harris-Foulkes estimate   =    -480.24599353 Ry
     estimated scf accuracy    <      19.12931965 Ry

     iteration # 98     ecut=    30.00 Ry     beta=0.70
     Davidson diagonalization with overlap
     ethr =  1.00E-02,  avg # of iterations = 12.0

     negative rho (up, down):  7.789E-01 0.000E+00

     total cpu time spent up to now is       19.3 secs

     total energy              =      61.27996287 Ry
     Harris-Foulkes estimate   =   -5090.75679525 Ry
     estimated scf accuracy    <      44.18741806 Ry

     iteration # 99     ecut=    30.00 Ry     beta=0.70
     Davidson diagonalization with overlap
     ethr =  1.00E-02,  avg # of iterations =  8.0

     negative rho (up, down):  8.140E-01 0.000E+00

     total cpu time spent up to now is       19.4 secs

     total energy              =    -467.69265431 Ry
     Harris-Foulkes estimate   =    -399.44137810 Ry
     estimated scf accuracy    <      35.85571039 Ry

     iteration #100     ecut=    30.00 Ry     beta=0.70
     Davidson diagonalization with overlap
     ethr =  1.00E-02,  avg # of iterations =  8.0

     negative rho (up, down):  8.797E-01 0.000E+00

     total cpu time spent up to now is       19.4 secs

     total energy              =      19.58654519 Ry
     Harris-Foulkes estimate   =  -11031.38586624 Ry
     estimated scf accuracy    <      30.08135177 Ry

     End of self-consistent calculation

     convergence NOT achieved after 100 iterations: stopping

     Writing output data file pwscf.save
 
     init_run     :      0.09s CPU      0.11s WALL (       1 calls)
     electrons    :     11.14s CPU     15.20s WALL (       9 calls)
     update_pot   :      1.45s CPU      2.71s WALL (       8 calls)
     forces       :      0.21s CPU      0.24s WALL (       8 calls)

     Called by init_run:
     wfcinit      :      0.01s CPU      0.02s WALL (       1 calls)
     potinit      :      0.02s CPU      0.03s WALL (       1 calls)

     Called by electrons:
     c_bands      :      5.16s CPU      5.91s WALL (     266 calls)
     sum_band     :      0.94s CPU      1.07s WALL (     266 calls)
     v_of_rho     :      2.31s CPU      2.69s WALL (     275 calls)
     mix_rho      :      2.17s CPU      3.69s WALL (     266 calls)

     Called by c_bands:
     init_us_2    :      0.02s CPU      0.03s WALL (     533 calls)
     cegterg      :      5.07s CPU      5.56s WALL (     266 calls)

     Called by sum_band:

     Called by *egterg:
     h_psi        :      4.12s CPU      4.48s WALL (    1264 calls)
     g_psi        :      0.03s CPU      0.03s WALL (     997 calls)
     cdiaghg      :      0.36s CPU      0.39s WALL (    1255 calls)

     Called by h_psi:
     h_psi:pot    :      4.10s CPU      4.46s WALL (    1264 calls)
     h_psi:calbec :      0.39s CPU      0.61s WALL (    1264 calls)
     vloc_psi     :      3.69s CPU      3.83s WALL (    1264 calls)
     add_vuspsi   :      0.01s CPU      0.01s WALL (    1264 calls)

     General routines
     calbec       :      0.56s CPU      0.80s WALL (    1303 calls)
     fft          :      1.63s CPU      1.93s WALL (    3041 calls)
     fftw         :      3.98s CPU      4.16s WALL (   15474 calls)
     davcio       :      0.27s CPU      1.09s WALL (    4532 calls)
 
     Parallel routines
     fft_scatter  :      2.68s CPU      3.07s WALL (   18515 calls)
 
     PWSCF        :    13.29s CPU        19.50s WALL

 
   This run was terminated on:   0:45:16  11Feb2018            

=------------------------------------------------------------------------------=
   JOB DONE.
=------------------------------------------------------------------------------=
