
     Program PWSCF v.6.0 (svn rev. 13079) starts on 11Feb2018 at  0:47:10 

     This program is part of the open-source Quantum ESPRESSO suite
     for quantum simulation of materials; please cite
         "P. Giannozzi et al., J. Phys.:Condens. Matter 21 395502 (2009);
          URL http://www.quantum-espresso.org", 
     in publications or presentations arising from this work. More details at
     http://www.quantum-espresso.org/quote

     Parallel version (MPI), running on    28 processors
     R & G space division:  proc/nbgrp/npool/nimage =      28
     Reading input from inputs/water-1-md/233.in

     Current dimensions of program PWSCF are:
     Max number of different atomic species (ntypx) = 10
     Max number of k-points (npk) =  40000
     Max angular momentum in pseudopotentials (lmaxx) =  3

     Subspace diagonalization in iterative solution of the eigenvalue problem:
     a serial algorithm will be used

 
     Parallelization info
     --------------------
     sticks:   dense  smooth     PW     G-vecs:    dense   smooth      PW
     Min         136     136     33                 6338     6338     787
     Max         137     137     34                 6341     6341     792
     Sum        3809    3809    949               177509   177509   22119
 


     bravais-lattice index     =            1
     lattice parameter (alat)  =      20.0000  a.u.
     unit-cell volume          =    8000.0000 (a.u.)^3
     number of atoms/cell      =            3
     number of atomic types    =            2
     number of electrons       =         8.00
     number of Kohn-Sham states=            8
     kinetic-energy cutoff     =      30.0000  Ry
     charge density cutoff     =     120.0000  Ry
     convergence threshold     =      1.0E-08
     mixing beta               =       0.7000
     number of iterations used =            8  plain     mixing
     Exchange-correlation      = BLYP ( 1  3  1  3 0 0)
     nstep                     =         5000


     celldm(1)=  20.000000  celldm(2)=   0.000000  celldm(3)=   0.000000
     celldm(4)=   0.000000  celldm(5)=   0.000000  celldm(6)=   0.000000

     crystal axes: (cart. coord. in units of alat)
               a(1) = (   1.000000   0.000000   0.000000 )  
               a(2) = (   0.000000   1.000000   0.000000 )  
               a(3) = (   0.000000   0.000000   1.000000 )  

     reciprocal axes: (cart. coord. in units 2 pi/alat)
               b(1) = (  1.000000  0.000000  0.000000 )  
               b(2) = (  0.000000  1.000000  0.000000 )  
               b(3) = (  0.000000  0.000000  1.000000 )  


     PseudoPot. # 1 for  H read from file:
     ./H.blyp-hgh.UPF
     MD5 check sum: c576e69559cde411e611be972c763230
     Pseudo is Norm-conserving, Zval =  1.0
     Generated in analytical, separable form
     Using radial grid of  929 points,  0 beta functions with: 

     PseudoPot. # 2 for  O read from file:
     ./O.blyp-hgh.UPF
     MD5 check sum: d0b7156309aa9befef28faac7bc56342
     Pseudo is Norm-conserving, Zval =  6.0
     Generated in analytical, separable form
     Using radial grid of 1095 points,  1 beta functions with: 
                l(1) =   0

     atomic species   valence    mass     pseudopotential
        H              1.00     1.01000      H( 1.00)
        O              6.00    16.00000      O( 1.00)

     No symmetry found



   Cartesian axes

     site n.     atom                  positions (alat units)
         1           H   tau(   1) = (   0.0241496   0.6924381   0.8382564  )
         2           H   tau(   2) = (   0.6199729   0.2353997   0.4712552  )
         3           O   tau(   3) = (   0.7479233   0.6371927   0.4382141  )

     number of k points=     1  Marzari-Vanderbilt smearing, width (Ry)=  0.0250
                       cart. coord. in units 2pi/alat
        k(    1) = (   0.0000000   0.0000000   0.0000000), wk =   2.0000000

     Dense  grid:   177509 G-vectors     FFT dimensions: (  72,  72,  72)

     Estimated max dynamical RAM per process >       6.09Mb

     Estimated total allocated dynamical RAM >     170.64Mb

     Initial potential from superposition of free atoms
     Check: negative starting charge=   -0.344528

     starting charge    7.99998, renormalised to    8.00000

     negative rho (up, down):  3.445E-01 0.000E+00
     Starting wfc are    6 randomized atomic wfcs +    2 random wfc

     total cpu time spent up to now is        0.2 secs

     per-process dynamical memory:    18.8 Mb

     Self-consistent Calculation

     iteration #  1     ecut=    30.00 Ry     beta=0.70
     Davidson diagonalization with overlap
     ethr =  1.00E-02,  avg # of iterations =  7.0

     negative rho (up, down):  8.167E-02 0.000E+00

     total cpu time spent up to now is        0.3 secs

     total energy              =     -28.18258166 Ry
     Harris-Foulkes estimate   =     -32.07445828 Ry
     estimated scf accuracy    <       4.48275548 Ry

     iteration #  2     ecut=    30.00 Ry     beta=0.70
     Davidson diagonalization with overlap
     ethr =  1.00E-02,  avg # of iterations =  4.0

     negative rho (up, down):  5.982E-02 0.000E+00

     total cpu time spent up to now is        0.3 secs

     total energy              =     -32.57937563 Ry
     Harris-Foulkes estimate   =     -37.71895936 Ry
     estimated scf accuracy    <      12.55859222 Ry

     iteration #  3     ecut=    30.00 Ry     beta=0.70
     Davidson diagonalization with overlap
     ethr =  1.00E-02,  avg # of iterations =  5.0

     negative rho (up, down):  6.174E-02 0.000E+00

     total cpu time spent up to now is        0.4 secs

     total energy              =     -33.12156253 Ry
     Harris-Foulkes estimate   =     -32.91985497 Ry
     estimated scf accuracy    <       4.79549712 Ry

     iteration #  4     ecut=    30.00 Ry     beta=0.70
     Davidson diagonalization with overlap
     ethr =  1.00E-02,  avg # of iterations =  1.0

     negative rho (up, down):  2.489E-02 0.000E+00

     total cpu time spent up to now is        0.4 secs

     total energy              =     -30.28979474 Ry
     Harris-Foulkes estimate   =     -33.12218141 Ry
     estimated scf accuracy    <       5.09935020 Ry

     iteration #  5     ecut=    30.00 Ry     beta=0.70
     Davidson diagonalization with overlap
     ethr =  1.00E-02,  avg # of iterations =  5.0

     negative rho (up, down):  1.951E-02 0.000E+00

     total cpu time spent up to now is        0.4 secs

     total energy              =     -33.02475079 Ry
     Harris-Foulkes estimate   =     -33.11832230 Ry
     estimated scf accuracy    <      12.54223090 Ry

     iteration #  6     ecut=    30.00 Ry     beta=0.70
     Davidson diagonalization with overlap
     ethr =  1.00E-02,  avg # of iterations =  1.0

     negative rho (up, down):  1.770E-02 0.000E+00

     total cpu time spent up to now is        0.4 secs

     total energy              =     -32.51983888 Ry
     Harris-Foulkes estimate   =     -33.03233082 Ry
     estimated scf accuracy    <      10.76757081 Ry

     iteration #  7     ecut=    30.00 Ry     beta=0.70
     Davidson diagonalization with overlap
     ethr =  1.00E-02,  avg # of iterations =  1.0

     negative rho (up, down):  2.849E-03 0.000E+00

     total cpu time spent up to now is        0.5 secs

     total energy              =     -32.27398414 Ry
     Harris-Foulkes estimate   =     -32.66422387 Ry
     estimated scf accuracy    <       5.50112375 Ry

     iteration #  8     ecut=    30.00 Ry     beta=0.70
     Davidson diagonalization with overlap
     ethr =  1.00E-02,  avg # of iterations =  1.0

     negative rho (up, down):  3.135E-02 0.000E+00

     total cpu time spent up to now is        0.5 secs

     total energy              =     -31.74915148 Ry
     Harris-Foulkes estimate   =     -32.28058514 Ry
     estimated scf accuracy    <       4.79224771 Ry

     iteration #  9     ecut=    30.00 Ry     beta=0.70
     Davidson diagonalization with overlap
     ethr =  1.00E-02,  avg # of iterations =  1.0

     negative rho (up, down):  1.763E-02 0.000E+00

     total cpu time spent up to now is        0.5 secs

     total energy              =     -31.48121692 Ry
     Harris-Foulkes estimate   =     -31.75944727 Ry
     estimated scf accuracy    <       3.91052008 Ry

     iteration # 10     ecut=    30.00 Ry     beta=0.70
     Davidson diagonalization with overlap
     ethr =  1.00E-02,  avg # of iterations =  1.0

     negative rho (up, down):  2.477E-02 0.000E+00

     total cpu time spent up to now is        0.6 secs

     total energy              =     -31.52523780 Ry
     Harris-Foulkes estimate   =     -31.49382200 Ry
     estimated scf accuracy    <       0.39520112 Ry

     iteration # 11     ecut=    30.00 Ry     beta=0.70
     Davidson diagonalization with overlap
     ethr =  4.94E-03,  avg # of iterations =  1.0

     negative rho (up, down):  2.685E-02 0.000E+00

     total cpu time spent up to now is        0.6 secs

     total energy              =     -31.46571836 Ry
     Harris-Foulkes estimate   =     -31.59045136 Ry
     estimated scf accuracy    <       4.20592883 Ry

     iteration # 12     ecut=    30.00 Ry     beta=0.70
     Davidson diagonalization with overlap
     ethr =  4.94E-03,  avg # of iterations =  1.0

     negative rho (up, down):  1.620E-01 0.000E+00

     total cpu time spent up to now is        0.6 secs

     total energy              =     -31.32497944 Ry
     Harris-Foulkes estimate   =     -31.48607349 Ry
     estimated scf accuracy    <       0.31712359 Ry

     iteration # 13     ecut=    30.00 Ry     beta=0.70
     Davidson diagonalization with overlap
     ethr =  3.96E-03,  avg # of iterations =  1.0

     negative rho (up, down):  6.741E-02 0.000E+00

     total cpu time spent up to now is        0.7 secs

     total energy              =     -31.84343038 Ry
     Harris-Foulkes estimate   =     -32.02017268 Ry
     estimated scf accuracy    <       3.46312930 Ry

     iteration # 14     ecut=    30.00 Ry     beta=0.70
     Davidson diagonalization with overlap
     ethr =  3.96E-03,  avg # of iterations =  1.0

     negative rho (up, down):  4.855E-02 0.000E+00

     total cpu time spent up to now is        0.7 secs

     total energy              =     -31.81813311 Ry
     Harris-Foulkes estimate   =     -31.84686678 Ry
     estimated scf accuracy    <       3.11464041 Ry

     iteration # 15     ecut=    30.00 Ry     beta=0.70
     Davidson diagonalization with overlap
     ethr =  3.96E-03,  avg # of iterations =  1.0

     negative rho (up, down):  8.498E-04 0.000E+00

     total cpu time spent up to now is        0.8 secs

     total energy              =     -31.50485052 Ry
     Harris-Foulkes estimate   =     -31.81834994 Ry
     estimated scf accuracy    <       3.05654584 Ry

     iteration # 16     ecut=    30.00 Ry     beta=0.70
     Davidson diagonalization with overlap
     ethr =  3.96E-03,  avg # of iterations =  1.0

     negative rho (up, down):  8.716E-05 0.000E+00

     total cpu time spent up to now is        0.8 secs

     total energy              =     -31.44835133 Ry
     Harris-Foulkes estimate   =     -31.51356238 Ry
     estimated scf accuracy    <       1.50890641 Ry

     iteration # 17     ecut=    30.00 Ry     beta=0.70
     Davidson diagonalization with overlap
     ethr =  3.96E-03,  avg # of iterations =  1.0

     negative rho (up, down):  8.176E-04 0.000E+00

     total cpu time spent up to now is        0.8 secs

     total energy              =     -31.46323618 Ry
     Harris-Foulkes estimate   =     -31.50549323 Ry
     estimated scf accuracy    <       1.37193478 Ry

     iteration # 18     ecut=    30.00 Ry     beta=0.70
     Davidson diagonalization with overlap
     ethr =  3.96E-03,  avg # of iterations =  1.0

     negative rho (up, down):  1.044E-03 0.000E+00

     total cpu time spent up to now is        0.8 secs

     total energy              =     -31.47983778 Ry
     Harris-Foulkes estimate   =     -31.49722213 Ry
     estimated scf accuracy    <       0.45435283 Ry

     iteration # 19     ecut=    30.00 Ry     beta=0.70
     Davidson diagonalization with overlap
     ethr =  3.96E-03,  avg # of iterations =  1.0

     negative rho (up, down):  6.236E-04 0.000E+00

     total cpu time spent up to now is        0.9 secs

     total energy              =     -31.49540261 Ry
     Harris-Foulkes estimate   =     -31.49572924 Ry
     estimated scf accuracy    <       0.41128353 Ry

     iteration # 20     ecut=    30.00 Ry     beta=0.70
     Davidson diagonalization with overlap
     ethr =  3.96E-03,  avg # of iterations =  1.0

     negative rho (up, down):  7.280E-03 0.000E+00

     total cpu time spent up to now is        0.9 secs

     total energy              =     -31.41998553 Ry
     Harris-Foulkes estimate   =     -31.49542052 Ry
     estimated scf accuracy    <       0.37766736 Ry

     iteration # 21     ecut=    30.00 Ry     beta=0.70
     Davidson diagonalization with overlap
     ethr =  3.96E-03,  avg # of iterations =  1.0

     negative rho (up, down):  2.917E-03 0.000E+00

     total cpu time spent up to now is        0.9 secs

     total energy              =     -31.74173867 Ry
     Harris-Foulkes estimate   =     -31.66578640 Ry
     estimated scf accuracy    <       2.76884587 Ry

     iteration # 22     ecut=    30.00 Ry     beta=0.70
     Davidson diagonalization with overlap
     ethr =  3.96E-03,  avg # of iterations =  1.0

     negative rho (up, down):  1.407E-03 0.000E+00

     total cpu time spent up to now is        1.0 secs

     total energy              =     -31.78544979 Ry
     Harris-Foulkes estimate   =     -31.74193282 Ry
     estimated scf accuracy    <       2.88582054 Ry

     iteration # 23     ecut=    30.00 Ry     beta=0.70
     Davidson diagonalization with overlap
     ethr =  3.96E-03,  avg # of iterations =  1.0

     negative rho (up, down):  7.462E-04 0.000E+00

     total cpu time spent up to now is        1.0 secs

     total energy              =     -31.83844499 Ry
     Harris-Foulkes estimate   =     -31.78555532 Ry
     estimated scf accuracy    <       2.96196158 Ry

     iteration # 24     ecut=    30.00 Ry     beta=0.70
     Davidson diagonalization with overlap
     ethr =  3.96E-03,  avg # of iterations =  1.0

     negative rho (up, down):  5.475E-04 0.000E+00

     total cpu time spent up to now is        1.0 secs

     total energy              =     -32.02480970 Ry
     Harris-Foulkes estimate   =     -31.83853405 Ry
     estimated scf accuracy    <       3.04781576 Ry

     iteration # 25     ecut=    30.00 Ry     beta=0.70
     Davidson diagonalization with overlap
     ethr =  3.96E-03,  avg # of iterations =  1.0

     negative rho (up, down):  6.085E-04 0.000E+00

     total cpu time spent up to now is        1.1 secs

     total energy              =     -32.01277308 Ry
     Harris-Foulkes estimate   =     -32.03781587 Ry
     estimated scf accuracy    <       3.33784951 Ry

     iteration # 26     ecut=    30.00 Ry     beta=0.70
     Davidson diagonalization with overlap
     ethr =  3.96E-03,  avg # of iterations =  1.0

     negative rho (up, down):  5.551E-03 0.000E+00

     total cpu time spent up to now is        1.1 secs

     total energy              =     -30.95505290 Ry
     Harris-Foulkes estimate   =     -32.01280409 Ry
     estimated scf accuracy    <       3.30186511 Ry

     iteration # 27     ecut=    30.00 Ry     beta=0.70
     Davidson diagonalization with overlap
     ethr =  3.96E-03,  avg # of iterations =  2.0

     negative rho (up, down):  8.948E-03 0.000E+00

     total cpu time spent up to now is        1.1 secs

     total energy              =     -33.28744701 Ry
     Harris-Foulkes estimate   =     -32.13760295 Ry
     estimated scf accuracy    <       4.46394372 Ry

     iteration # 28     ecut=    30.00 Ry     beta=0.70
     Davidson diagonalization with overlap
     ethr =  3.96E-03,  avg # of iterations =  2.0

     negative rho (up, down):  1.499E-02 0.000E+00

     total cpu time spent up to now is        1.2 secs

     total energy              =     -33.09151168 Ry
     Harris-Foulkes estimate   =     -33.31957220 Ry
     estimated scf accuracy    <       6.80950750 Ry

     iteration # 29     ecut=    30.00 Ry     beta=0.70
     Davidson diagonalization with overlap
     ethr =  3.96E-03,  avg # of iterations =  1.0

     negative rho (up, down):  2.247E-04 0.000E+00

     total cpu time spent up to now is        1.2 secs

     total energy              =     -31.50724630 Ry
     Harris-Foulkes estimate   =     -33.09616640 Ry
     estimated scf accuracy    <       6.21956434 Ry

     iteration # 30     ecut=    30.00 Ry     beta=0.70
     Davidson diagonalization with overlap
     ethr =  3.96E-03,  avg # of iterations =  2.0

     negative rho (up, down):  7.086E-05 0.000E+00

     total cpu time spent up to now is        1.2 secs

     total energy              =     -31.49035880 Ry
     Harris-Foulkes estimate   =     -31.57167306 Ry
     estimated scf accuracy    <       4.63040821 Ry

     iteration # 31     ecut=    30.00 Ry     beta=0.70
     Davidson diagonalization with overlap
     ethr =  3.96E-03,  avg # of iterations =  1.0

     negative rho (up, down):  3.737E-04 0.000E+00

     total cpu time spent up to now is        1.3 secs

     total energy              =     -31.56954516 Ry
     Harris-Foulkes estimate   =     -31.50397593 Ry
     estimated scf accuracy    <       1.24761426 Ry

     iteration # 32     ecut=    30.00 Ry     beta=0.70
     Davidson diagonalization with overlap
     ethr =  3.96E-03,  avg # of iterations =  1.0

     negative rho (up, down):  3.653E-03 0.000E+00

     total cpu time spent up to now is        1.3 secs

     total energy              =     -31.80187100 Ry
     Harris-Foulkes estimate   =     -31.61342694 Ry
     estimated scf accuracy    <       3.95322442 Ry

     iteration # 33     ecut=    30.00 Ry     beta=0.70
     Davidson diagonalization with overlap
     ethr =  3.96E-03,  avg # of iterations =  1.0

     negative rho (up, down):  7.312E-06 0.000E+00

     total cpu time spent up to now is        1.4 secs

     total energy              =     -31.28089576 Ry
     Harris-Foulkes estimate   =     -31.79603909 Ry
     estimated scf accuracy    <       3.92033066 Ry

     iteration # 34     ecut=    30.00 Ry     beta=0.70
     Davidson diagonalization with overlap
     ethr =  3.96E-03,  avg # of iterations =  1.0

     negative rho (up, down):  2.919E-08 0.000E+00

     total cpu time spent up to now is        1.4 secs

     total energy              =     -31.42617372 Ry
     Harris-Foulkes estimate   =     -31.61814375 Ry
     estimated scf accuracy    <       2.67474640 Ry

     iteration # 35     ecut=    30.00 Ry     beta=0.70
     Davidson diagonalization with overlap
     ethr =  3.96E-03,  avg # of iterations =  1.0

     total cpu time spent up to now is        1.4 secs

     total energy              =     -31.51803424 Ry
     Harris-Foulkes estimate   =     -31.50379449 Ry
     estimated scf accuracy    <       1.22691144 Ry

     iteration # 36     ecut=    30.00 Ry     beta=0.70
     Davidson diagonalization with overlap
     ethr =  3.96E-03,  avg # of iterations =  1.0

     total cpu time spent up to now is        1.5 secs

     total energy              =     -31.53058799 Ry
     Harris-Foulkes estimate   =     -31.52175158 Ry
     estimated scf accuracy    <       2.73343046 Ry

     iteration # 37     ecut=    30.00 Ry     beta=0.70
     Davidson diagonalization with overlap
     ethr =  3.96E-03,  avg # of iterations =  1.0

     total cpu time spent up to now is        1.5 secs

     total energy              =     -31.50025740 Ry
     Harris-Foulkes estimate   =     -31.53111949 Ry
     estimated scf accuracy    <       3.37509752 Ry

     iteration # 38     ecut=    30.00 Ry     beta=0.70
     Davidson diagonalization with overlap
     ethr =  3.96E-03,  avg # of iterations =  1.0

     negative rho (up, down):  4.232E-06 0.000E+00

     total cpu time spent up to now is        1.5 secs

     total energy              =     -31.49937396 Ry
     Harris-Foulkes estimate   =     -31.50561251 Ry
     estimated scf accuracy    <       1.36680573 Ry

     iteration # 39     ecut=    30.00 Ry     beta=0.70
     Davidson diagonalization with overlap
     ethr =  3.96E-03,  avg # of iterations =  1.0

     negative rho (up, down):  2.523E-06 0.000E+00

     total cpu time spent up to now is        1.6 secs

     total energy              =     -31.49614282 Ry
     Harris-Foulkes estimate   =     -31.50016599 Ry
     estimated scf accuracy    <       0.82414758 Ry

     iteration # 40     ecut=    30.00 Ry     beta=0.70
     Davidson diagonalization with overlap
     ethr =  3.96E-03,  avg # of iterations =  1.0

     total cpu time spent up to now is        1.6 secs

     total energy              =     -31.49442537 Ry
     Harris-Foulkes estimate   =     -31.49678181 Ry
     estimated scf accuracy    <       0.46618138 Ry

     iteration # 41     ecut=    30.00 Ry     beta=0.70
     Davidson diagonalization with overlap
     ethr =  3.96E-03,  avg # of iterations =  1.0

     negative rho (up, down):  2.767E-07 0.000E+00

     total cpu time spent up to now is        1.6 secs

     total energy              =     -31.51221668 Ry
     Harris-Foulkes estimate   =     -31.49491841 Ry
     estimated scf accuracy    <       0.33416230 Ry

     iteration # 42     ecut=    30.00 Ry     beta=0.70
     Davidson diagonalization with overlap
     ethr =  3.96E-03,  avg # of iterations =  1.0

     negative rho (up, down):  1.348E-04 0.000E+00

     total cpu time spent up to now is        1.7 secs

     total energy              =     -31.40584069 Ry
     Harris-Foulkes estimate   =     -31.53453163 Ry
     estimated scf accuracy    <       3.68189297 Ry

     iteration # 43     ecut=    30.00 Ry     beta=0.70
     Davidson diagonalization with overlap
     ethr =  3.96E-03,  avg # of iterations =  1.0

     negative rho (up, down):  2.187E-04 0.000E+00

     total cpu time spent up to now is        1.7 secs

     total energy              =     -31.47826344 Ry
     Harris-Foulkes estimate   =     -31.50761543 Ry
     estimated scf accuracy    <       1.23680386 Ry

     iteration # 44     ecut=    30.00 Ry     beta=0.70
     Davidson diagonalization with overlap
     ethr =  3.96E-03,  avg # of iterations =  1.0

     negative rho (up, down):  1.475E-04 0.000E+00

     total cpu time spent up to now is        1.7 secs

     total energy              =     -31.49161091 Ry
     Harris-Foulkes estimate   =     -31.49159987 Ry
     estimated scf accuracy    <       0.00024006 Ry

     iteration # 45     ecut=    30.00 Ry     beta=0.70
     Davidson diagonalization with overlap
     ethr =  3.00E-06,  avg # of iterations = 14.0

     negative rho (up, down):  5.741E-07 0.000E+00

     total cpu time spent up to now is        1.8 secs

     total energy              =     -31.49165262 Ry
     Harris-Foulkes estimate   =     -31.49164837 Ry
     estimated scf accuracy    <       0.00392841 Ry

     iteration # 46     ecut=    30.00 Ry     beta=0.70
     Davidson diagonalization with overlap
     ethr =  3.00E-06,  avg # of iterations =  1.0

     negative rho (up, down):  1.424E-06 0.000E+00

     total cpu time spent up to now is        1.8 secs

     total energy              =     -31.49153576 Ry
     Harris-Foulkes estimate   =     -31.49165642 Ry
     estimated scf accuracy    <       0.00510687 Ry

     iteration # 47     ecut=    30.00 Ry     beta=0.70
     Davidson diagonalization with overlap
     ethr =  3.00E-06,  avg # of iterations =  1.0

     negative rho (up, down):  3.099E-07 0.000E+00

     total cpu time spent up to now is        1.8 secs

     total energy              =     -31.49159074 Ry
     Harris-Foulkes estimate   =     -31.49159122 Ry
     estimated scf accuracy    <       0.00002436 Ry

     iteration # 48     ecut=    30.00 Ry     beta=0.70
     Davidson diagonalization with overlap
     ethr =  3.04E-07,  avg # of iterations =  1.0

     total cpu time spent up to now is        1.9 secs

     total energy              =     -31.49159061 Ry
     Harris-Foulkes estimate   =     -31.49159099 Ry
     estimated scf accuracy    <       0.00000865 Ry

     iteration # 49     ecut=    30.00 Ry     beta=0.70
     Davidson diagonalization with overlap
     ethr =  1.08E-07,  avg # of iterations =  1.0

     total cpu time spent up to now is        1.9 secs

     total energy              =     -31.49159064 Ry
     Harris-Foulkes estimate   =     -31.49159075 Ry
     estimated scf accuracy    <       0.00000401 Ry

     iteration # 50     ecut=    30.00 Ry     beta=0.70
     Davidson diagonalization with overlap
     ethr =  5.02E-08,  avg # of iterations =  1.0

     total cpu time spent up to now is        1.9 secs

     total energy              =     -31.49159063 Ry
     Harris-Foulkes estimate   =     -31.49159068 Ry
     estimated scf accuracy    <       0.00000047 Ry

     iteration # 51     ecut=    30.00 Ry     beta=0.70
     Davidson diagonalization with overlap
     ethr =  5.93E-09,  avg # of iterations =  1.0

     total cpu time spent up to now is        2.0 secs

     total energy              =     -31.49159065 Ry
     Harris-Foulkes estimate   =     -31.49159064 Ry
     estimated scf accuracy    <       0.00000003 Ry

     iteration # 52     ecut=    30.00 Ry     beta=0.70
     Davidson diagonalization with overlap
     ethr =  3.47E-10,  avg # of iterations =  1.0

     total cpu time spent up to now is        2.0 secs

     total energy              =     -31.49159062 Ry
     Harris-Foulkes estimate   =     -31.49159065 Ry
     estimated scf accuracy    <       0.00000006 Ry

     iteration # 53     ecut=    30.00 Ry     beta=0.70
     Davidson diagonalization with overlap
     ethr =  3.47E-10,  avg # of iterations =  1.0

     total cpu time spent up to now is        2.0 secs

     End of self-consistent calculation

          k = 0.0000 0.0000 0.0000 ( 22119 PWs)   bands (ev):

   -23.5657  -6.9959  -6.9859  -6.9831  -6.8760  -6.8641  -0.2167   0.6704

     the Fermi energy is    -6.8484 ev

!    total energy              =     -31.49159052 Ry
     Harris-Foulkes estimate   =     -31.49159062 Ry
     estimated scf accuracy    <          9.4E-10 Ry

     convergence has been achieved in  53 iterations

     Forces acting on atoms (Ry/au):

     atom    1 type  1   force =     0.00017377    0.00022038    0.00008782
     atom    2 type  1   force =     0.00048551    0.00085991    0.00007939
     atom    3 type  2   force =    -0.00065928   -0.00108029   -0.00016721

     Total force =     0.001642     Total SCF correction =     0.000060

     Molecular Dynamics Calculation

     Starting temperature  =  1000.00 K

     temperature is controlled by Andersen thermostat
     Collision frequency = 1.0000/timestep
     mass H                =     1.01
     mass O                =    16.00
     Time step             =   100.00 a.u.,  4.8378 femto-seconds

     Entering Dynamics:    iteration =     1
                           time      =   0.0048 pico-seconds


     Andersen thermostat:    3 collisions

ATOMIC_POSITIONS (bohr)
H        0.715493891  14.126499151  16.567477140
H       12.408626454   4.941678602   9.236639076
O       14.943210559  12.711570502   8.788655559


     kinetic energy (Ekin) =     0.01319564 Ry
     temperature           =   694.47456190 K 
     Ekin + Etot (const)   =   -31.47839489 Ry

     Linear momentum :    0.0000000000    0.0000000000    0.0000000000

     Writing output data file pwscf.save
     Check: negative starting charge=   -0.344528
     NEW-OLD atomic charge density approx. for the potential
     Check: negative starting charge=   -0.344030

     negative rho (up, down):  7.831E-02 0.000E+00

     total cpu time spent up to now is        2.3 secs

     per-process dynamical memory:    20.4 Mb

     Self-consistent Calculation

     iteration #  1     ecut=    30.00 Ry     beta=0.70
     Davidson diagonalization with overlap
     c_bands:  1 eigenvalues not converged
     ethr =  1.00E-06,  avg # of iterations = 20.0

     negative rho (up, down):  1.806E-02 0.000E+00

     total cpu time spent up to now is        2.5 secs

     total energy              =     -31.44299643 Ry
     Harris-Foulkes estimate   =     -31.43103279 Ry
     estimated scf accuracy    <       0.04027220 Ry

     iteration #  2     ecut=    30.00 Ry     beta=0.70
     Davidson diagonalization with overlap
     ethr =  5.03E-04,  avg # of iterations =  2.0

     negative rho (up, down):  1.664E-02 0.000E+00

     total cpu time spent up to now is        2.5 secs

     total energy              =     -31.47513361 Ry
     Harris-Foulkes estimate   =     -31.91324477 Ry
     estimated scf accuracy    <       4.16764795 Ry

     iteration #  3     ecut=    30.00 Ry     beta=0.70
     Davidson diagonalization with overlap
     ethr =  5.03E-04,  avg # of iterations =  2.0

     negative rho (up, down):  1.637E-02 0.000E+00

     total cpu time spent up to now is        2.6 secs

     total energy              =     -31.47708415 Ry
     Harris-Foulkes estimate   =     -31.48837178 Ry
     estimated scf accuracy    <       1.02564569 Ry

     iteration #  4     ecut=    30.00 Ry     beta=0.70
     Davidson diagonalization with overlap
     ethr =  5.03E-04,  avg # of iterations =  1.0

     negative rho (up, down):  7.092E-03 0.000E+00

     total cpu time spent up to now is        2.6 secs

     total energy              =     -31.42368083 Ry
     Harris-Foulkes estimate   =     -31.48144586 Ry
     estimated scf accuracy    <       0.58283387 Ry

     iteration #  5     ecut=    30.00 Ry     beta=0.70
     Davidson diagonalization with overlap
     ethr =  5.03E-04,  avg # of iterations =  1.0

     negative rho (up, down):  3.277E-03 0.000E+00

     total cpu time spent up to now is        2.7 secs

     total energy              =     -31.46307659 Ry
     Harris-Foulkes estimate   =     -31.57616375 Ry
     estimated scf accuracy    <       2.64985219 Ry

     iteration #  6     ecut=    30.00 Ry     beta=0.70
     Davidson diagonalization with overlap
     ethr =  5.03E-04,  avg # of iterations =  1.0

     negative rho (up, down):  8.645E-04 0.000E+00

     total cpu time spent up to now is        2.7 secs

     total energy              =     -31.49208211 Ry
     Harris-Foulkes estimate   =     -31.48977840 Ry
     estimated scf accuracy    <       0.04062931 Ry

     iteration #  7     ecut=    30.00 Ry     beta=0.70
     Davidson diagonalization with overlap
     ethr =  5.03E-04,  avg # of iterations =  1.0

     negative rho (up, down):  5.119E-04 0.000E+00

     total cpu time spent up to now is        2.8 secs

     total energy              =     -31.49185006 Ry
     Harris-Foulkes estimate   =     -31.49214253 Ry
     estimated scf accuracy    <       0.04040855 Ry

     iteration #  8     ecut=    30.00 Ry     beta=0.70
     Davidson diagonalization with overlap
     ethr =  5.03E-04,  avg # of iterations =  1.0

     negative rho (up, down):  2.733E-06 0.000E+00

     total cpu time spent up to now is        2.8 secs

     total energy              =     -31.49194708 Ry
     Harris-Foulkes estimate   =     -31.49195625 Ry
     estimated scf accuracy    <       0.01004376 Ry

     iteration #  9     ecut=    30.00 Ry     beta=0.70
     Davidson diagonalization with overlap
     ethr =  1.26E-04,  avg # of iterations =  7.0

     negative rho (up, down):  1.542E-08 0.000E+00

     total cpu time spent up to now is        2.9 secs

     total energy              =     -31.49171507 Ry
     Harris-Foulkes estimate   =     -31.49195694 Ry
     estimated scf accuracy    <       0.00625507 Ry

     iteration # 10     ecut=    30.00 Ry     beta=0.70
     Davidson diagonalization with overlap
     ethr =  7.82E-05,  avg # of iterations =  1.0

     total cpu time spent up to now is        3.0 secs

     total energy              =     -31.49195218 Ry
     Harris-Foulkes estimate   =     -31.49196994 Ry
     estimated scf accuracy    <       0.00698600 Ry

     iteration # 11     ecut=    30.00 Ry     beta=0.70
     Davidson diagonalization with overlap
     ethr =  7.82E-05,  avg # of iterations =  1.0

     total cpu time spent up to now is        3.0 secs

     total energy              =     -31.49181482 Ry
     Harris-Foulkes estimate   =     -31.49195346 Ry
     estimated scf accuracy    <       0.00530972 Ry

     iteration # 12     ecut=    30.00 Ry     beta=0.70
     Davidson diagonalization with overlap
     ethr =  6.64E-05,  avg # of iterations =  1.0

     total cpu time spent up to now is        3.1 secs

     total energy              =     -31.49189626 Ry
     Harris-Foulkes estimate   =     -31.49190740 Ry
     estimated scf accuracy    <       0.00061314 Ry

     iteration # 13     ecut=    30.00 Ry     beta=0.70
     Davidson diagonalization with overlap
     ethr =  7.66E-06,  avg # of iterations = 10.0

     total cpu time spent up to now is        3.1 secs

     total energy              =     -31.49190202 Ry
     Harris-Foulkes estimate   =     -31.49190169 Ry
     estimated scf accuracy    <       0.00000156 Ry

     iteration # 14     ecut=    30.00 Ry     beta=0.70
     Davidson diagonalization with overlap
     ethr =  1.95E-08,  avg # of iterations =  3.0

     total cpu time spent up to now is        3.2 secs

     total energy              =     -31.49190206 Ry
     Harris-Foulkes estimate   =     -31.49190203 Ry
     estimated scf accuracy    <       0.00000211 Ry

     iteration # 15     ecut=    30.00 Ry     beta=0.70
     Davidson diagonalization with overlap
     ethr =  1.95E-08,  avg # of iterations =  1.0

     total cpu time spent up to now is        3.2 secs

     End of self-consistent calculation

          k = 0.0000 0.0000 0.0000 ( 22119 PWs)   bands (ev):

   -23.5660  -7.0033  -6.9860  -6.9835  -6.8764  -6.8575  -0.2143   0.6654

     the Fermi energy is    -6.8488 ev

!    total energy              =     -31.49190212 Ry
     Harris-Foulkes estimate   =     -31.49190209 Ry
     estimated scf accuracy    <          1.6E-09 Ry

     convergence has been achieved in  15 iterations

     Forces acting on atoms (Ry/au):

     atom    1 type  1   force =     0.00023202    0.00032736    0.00021901
     atom    2 type  1   force =     0.00079083    0.00191279    0.00018910
     atom    3 type  2   force =    -0.00102285   -0.00224016   -0.00040811

     Total force =     0.003280     Total SCF correction =     0.000060

     Entering Dynamics:    iteration =     2
                           time      =   0.0097 pico-seconds


     Andersen thermostat:    3 collisions

ATOMIC_POSITIONS (bohr)
H        0.770428004  14.306205139  16.714986923
H       12.480473621   4.808606547   9.414934517
O       14.935207491  12.708626735   8.768089104


     kinetic energy (Ekin) =     0.00843527 Ry
     temperature           =   443.94073989 K 
     Ekin + Etot (const)   =   -31.48346685 Ry
     Message from routine dynamics:
     Total linear momentum <> 0

     Linear momentum :   -0.0482643422    0.4839037204    0.0463385468

     Writing output data file pwscf.save

     first order wave-functions extrapolation
     Check: negative starting charge=   -0.344030
     first order charge density extrapolation
     Check: negative starting charge=   -0.345035

     negative rho (up, down):  1.073E-01 0.000E+00

     total cpu time spent up to now is        3.5 secs

     per-process dynamical memory:    20.4 Mb

     Self-consistent Calculation

     iteration #  1     ecut=    30.00 Ry     beta=0.70
     Davidson diagonalization with overlap
     c_bands:  1 eigenvalues not converged
     ethr =  1.00E-06,  avg # of iterations = 20.0

     negative rho (up, down):  2.534E-02 0.000E+00

     total cpu time spent up to now is        3.6 secs

     total energy              =     -31.42368408 Ry
     Harris-Foulkes estimate   =     -31.41747362 Ry
     estimated scf accuracy    <       0.05590837 Ry

     iteration #  2     ecut=    30.00 Ry     beta=0.70
     Davidson diagonalization with overlap
     ethr =  6.99E-04,  avg # of iterations =  2.0

     negative rho (up, down):  2.309E-02 0.000E+00

     total cpu time spent up to now is        3.6 secs

     total energy              =     -31.47794879 Ry
     Harris-Foulkes estimate   =     -31.98625726 Ry
     estimated scf accuracy    <       4.31470883 Ry

     iteration #  3     ecut=    30.00 Ry     beta=0.70
     Davidson diagonalization with overlap
     ethr =  6.99E-04,  avg # of iterations =  2.0

     negative rho (up, down):  2.250E-02 0.000E+00

     total cpu time spent up to now is        3.7 secs

     total energy              =     -31.46901575 Ry
     Harris-Foulkes estimate   =     -31.50422137 Ry
     estimated scf accuracy    <       1.25347608 Ry

     iteration #  4     ecut=    30.00 Ry     beta=0.70
     Davidson diagonalization with overlap
     ethr =  6.99E-04,  avg # of iterations =  1.0

     negative rho (up, down):  1.434E-02 0.000E+00

     total cpu time spent up to now is        3.7 secs

     total energy              =     -31.36339382 Ry
     Harris-Foulkes estimate   =     -31.48112275 Ry
     estimated scf accuracy    <       1.18074443 Ry

     iteration #  5     ecut=    30.00 Ry     beta=0.70
     Davidson diagonalization with overlap
     ethr =  6.99E-04,  avg # of iterations =  1.0

     negative rho (up, down):  6.388E-03 0.000E+00

     total cpu time spent up to now is        3.7 secs

     total energy              =     -31.46982720 Ry
     Harris-Foulkes estimate   =     -31.60435398 Ry
     estimated scf accuracy    <       2.73864253 Ry

     iteration #  6     ecut=    30.00 Ry     beta=0.70
     Davidson diagonalization with overlap
     ethr =  6.99E-04,  avg # of iterations =  1.0

     negative rho (up, down):  1.693E-03 0.000E+00

     total cpu time spent up to now is        3.8 secs

     total energy              =     -31.49087240 Ry
     Harris-Foulkes estimate   =     -31.48909418 Ry
     estimated scf accuracy    <       0.28110357 Ry

     iteration #  7     ecut=    30.00 Ry     beta=0.70
     Davidson diagonalization with overlap
     ethr =  6.99E-04,  avg # of iterations =  1.0

     negative rho (up, down):  8.473E-04 0.000E+00

     total cpu time spent up to now is        3.8 secs

     total energy              =     -31.49232160 Ry
     Harris-Foulkes estimate   =     -31.49171780 Ry
     estimated scf accuracy    <       0.07892169 Ry

     iteration #  8     ecut=    30.00 Ry     beta=0.70
     Davidson diagonalization with overlap
     ethr =  6.99E-04,  avg # of iterations =  1.0

     negative rho (up, down):  9.666E-06 0.000E+00

     total cpu time spent up to now is        3.8 secs

     total energy              =     -31.48995532 Ry
     Harris-Foulkes estimate   =     -31.49233610 Ry
     estimated scf accuracy    <       0.07185888 Ry

     iteration #  9     ecut=    30.00 Ry     beta=0.70
     Davidson diagonalization with overlap
     ethr =  6.99E-04,  avg # of iterations =  1.0

     negative rho (up, down):  3.718E-07 0.000E+00

     total cpu time spent up to now is        3.9 secs

     total energy              =     -31.49195654 Ry
     Harris-Foulkes estimate   =     -31.49216953 Ry
     estimated scf accuracy    <       0.04435144 Ry

     iteration # 10     ecut=    30.00 Ry     beta=0.70
     Davidson diagonalization with overlap
     ethr =  5.54E-04,  avg # of iterations =  1.0

     negative rho (up, down):  1.386E-08 0.000E+00

     total cpu time spent up to now is        3.9 secs

     total energy              =     -31.49117690 Ry
     Harris-Foulkes estimate   =     -31.49198449 Ry
     estimated scf accuracy    <       0.02545603 Ry

     iteration # 11     ecut=    30.00 Ry     beta=0.70
     Davidson diagonalization with overlap
     ethr =  3.18E-04,  avg # of iterations =  1.0

     total cpu time spent up to now is        3.9 secs

     total energy              =     -31.49169623 Ry
     Harris-Foulkes estimate   =     -31.49183111 Ry
     estimated scf accuracy    <       0.00968370 Ry

     iteration # 12     ecut=    30.00 Ry     beta=0.70
     Davidson diagonalization with overlap
     ethr =  1.21E-04,  avg # of iterations =  1.0

     total cpu time spent up to now is        4.0 secs

     total energy              =     -31.49171258 Ry
     Harris-Foulkes estimate   =     -31.49174190 Ry
     estimated scf accuracy    <       0.00095531 Ry

     iteration # 13     ecut=    30.00 Ry     beta=0.70
     Davidson diagonalization with overlap
     ethr =  1.19E-05,  avg # of iterations = 11.0

     total cpu time spent up to now is        4.0 secs

     total energy              =     -31.49173139 Ry
     Harris-Foulkes estimate   =     -31.49173561 Ry
     estimated scf accuracy    <       0.00030013 Ry

     iteration # 14     ecut=    30.00 Ry     beta=0.70
     Davidson diagonalization with overlap
     ethr =  3.75E-06,  avg # of iterations =  4.0

     total cpu time spent up to now is        4.1 secs

     total energy              =     -31.49173181 Ry
     Harris-Foulkes estimate   =     -31.49173263 Ry
     estimated scf accuracy    <       0.00003864 Ry

     iteration # 15     ecut=    30.00 Ry     beta=0.70
     Davidson diagonalization with overlap
     ethr =  4.83E-07,  avg # of iterations =  1.0

     total cpu time spent up to now is        4.1 secs

     total energy              =     -31.49173206 Ry
     Harris-Foulkes estimate   =     -31.49173217 Ry
     estimated scf accuracy    <       0.00000004 Ry

     iteration # 16     ecut=    30.00 Ry     beta=0.70
     Davidson diagonalization with overlap
     ethr =  4.89E-10,  avg # of iterations =  1.0

     total cpu time spent up to now is        4.1 secs

     End of self-consistent calculation

          k = 0.0000 0.0000 0.0000 ( 22119 PWs)   bands (ev):

   -23.5664  -6.9999  -6.9861  -6.9839  -6.8771  -6.8618  -0.2167   0.6652

     the Fermi energy is    -6.8492 ev

!    total energy              =     -31.49173202 Ry
     Harris-Foulkes estimate   =     -31.49173206 Ry
     estimated scf accuracy    <          2.4E-09 Ry

     convergence has been achieved in  16 iterations

     Forces acting on atoms (Ry/au):

     atom    1 type  1   force =     0.00018564    0.00027087    0.00002961
     atom    2 type  1   force =     0.00060197    0.00141416    0.00000863
     atom    3 type  2   force =    -0.00078761   -0.00168503   -0.00003824

     Total force =     0.002436     Total SCF correction =     0.000072

     Entering Dynamics:    iteration =     3
                           time      =   0.0145 pico-seconds


     Andersen thermostat:    3 collisions

ATOMIC_POSITIONS (bohr)
H        0.994057142  14.026428428  16.803756262
H       12.630369909   4.896525612   9.753978444
O       14.911628699  12.720737749   8.741083392


     kinetic energy (Ekin) =     0.01675518 Ry
     temperature           =   881.81030693 K 
     Ekin + Etot (const)   =   -31.47497684 Ry
     Message from routine dynamics:
     Total linear momentum <> 0

     Linear momentum :    0.3047675616   -0.3500624036   -0.1369358232

     Writing output data file pwscf.save

     second order wave-functions extrapolation
     Check: negative starting charge=   -0.345035
     second order charge density extrapolation
     Check: negative starting charge=   -0.345383

     negative rho (up, down):  6.382E-02 0.000E+00

     total cpu time spent up to now is        4.6 secs

     per-process dynamical memory:    20.4 Mb

     Self-consistent Calculation

     iteration #  1     ecut=    30.00 Ry     beta=0.70
     Davidson diagonalization with overlap
     c_bands:  1 eigenvalues not converged
     ethr =  1.00E-06,  avg # of iterations = 20.0

     negative rho (up, down):  1.444E-02 0.000E+00

     total cpu time spent up to now is        4.7 secs

     total energy              =     -31.43589296 Ry
     Harris-Foulkes estimate   =     -31.43609709 Ry
     estimated scf accuracy    <       0.05234420 Ry

     iteration #  2     ecut=    30.00 Ry     beta=0.70
     Davidson diagonalization with overlap
     ethr =  6.54E-04,  avg # of iterations =  2.0

     negative rho (up, down):  1.316E-02 0.000E+00

     total cpu time spent up to now is        4.7 secs

     total energy              =     -31.48987731 Ry
     Harris-Foulkes estimate   =     -31.99845068 Ry
     estimated scf accuracy    <       4.31927045 Ry

     iteration #  3     ecut=    30.00 Ry     beta=0.70
     Davidson diagonalization with overlap
     ethr =  6.54E-04,  avg # of iterations =  2.0

     negative rho (up, down):  1.191E-02 0.000E+00

     total cpu time spent up to now is        4.8 secs

     total energy              =     -31.44086006 Ry
     Harris-Foulkes estimate   =     -31.49524054 Ry
     estimated scf accuracy    <       1.67349641 Ry

     iteration #  4     ecut=    30.00 Ry     beta=0.70
     Davidson diagonalization with overlap
     ethr =  6.54E-04,  avg # of iterations =  1.0

     negative rho (up, down):  8.767E-03 0.000E+00

     total cpu time spent up to now is        4.8 secs

     total energy              =     -31.51827097 Ry
     Harris-Foulkes estimate   =     -31.48912367 Ry
     estimated scf accuracy    <       0.70284604 Ry

     iteration #  5     ecut=    30.00 Ry     beta=0.70
     Davidson diagonalization with overlap
     ethr =  6.54E-04,  avg # of iterations =  1.0

     negative rho (up, down):  2.639E-03 0.000E+00

     total cpu time spent up to now is        4.9 secs

     total energy              =     -31.45723035 Ry
     Harris-Foulkes estimate   =     -31.53594367 Ry
     estimated scf accuracy    <       2.43514592 Ry

     iteration #  6     ecut=    30.00 Ry     beta=0.70
     Davidson diagonalization with overlap
     ethr =  6.54E-04,  avg # of iterations =  1.0

     negative rho (up, down):  7.216E-04 0.000E+00

     total cpu time spent up to now is        4.9 secs

     total energy              =     -31.49096728 Ry
     Harris-Foulkes estimate   =     -31.49022079 Ry
     estimated scf accuracy    <       0.02124372 Ry

     iteration #  7     ecut=    30.00 Ry     beta=0.70
     Davidson diagonalization with overlap
     ethr =  2.66E-04,  avg # of iterations =  7.0

     negative rho (up, down):  2.313E-04 0.000E+00

     total cpu time spent up to now is        5.0 secs

     total energy              =     -31.49255331 Ry
     Harris-Foulkes estimate   =     -31.49212395 Ry
     estimated scf accuracy    <       0.03827246 Ry

     iteration #  8     ecut=    30.00 Ry     beta=0.70
     Davidson diagonalization with overlap
     ethr =  2.66E-04,  avg # of iterations =  1.0

     negative rho (up, down):  3.600E-07 0.000E+00

     total cpu time spent up to now is        5.0 secs

     total energy              =     -31.49113143 Ry
     Harris-Foulkes estimate   =     -31.49265048 Ry
     estimated scf accuracy    <       0.08403111 Ry

     iteration #  9     ecut=    30.00 Ry     beta=0.70
     Davidson diagonalization with overlap
     ethr =  2.66E-04,  avg # of iterations =  1.0

     total cpu time spent up to now is        5.1 secs

     total energy              =     -31.49175009 Ry
     Harris-Foulkes estimate   =     -31.49182153 Ry
     estimated scf accuracy    <       0.00066698 Ry

     iteration # 10     ecut=    30.00 Ry     beta=0.70
     Davidson diagonalization with overlap
     ethr =  8.34E-06,  avg # of iterations = 11.0

     total cpu time spent up to now is        5.2 secs

     total energy              =     -31.49180460 Ry
     Harris-Foulkes estimate   =     -31.49196526 Ry
     estimated scf accuracy    <       0.01548141 Ry

     iteration # 11     ecut=    30.00 Ry     beta=0.70
     Davidson diagonalization with overlap
     ethr =  8.34E-06,  avg # of iterations =  1.0

     total cpu time spent up to now is        5.2 secs

     total energy              =     -31.49176968 Ry
     Harris-Foulkes estimate   =     -31.49184793 Ry
     estimated scf accuracy    <       0.00332257 Ry

     iteration # 12     ecut=    30.00 Ry     beta=0.70
     Davidson diagonalization with overlap
     ethr =  8.34E-06,  avg # of iterations =  1.0

     total cpu time spent up to now is        5.2 secs

     total energy              =     -31.49181295 Ry
     Harris-Foulkes estimate   =     -31.49181795 Ry
     estimated scf accuracy    <       0.00017695 Ry

     iteration # 13     ecut=    30.00 Ry     beta=0.70
     Davidson diagonalization with overlap
     ethr =  2.21E-06,  avg # of iterations =  1.0

     total cpu time spent up to now is        5.3 secs

     total energy              =     -31.49181556 Ry
     Harris-Foulkes estimate   =     -31.49181650 Ry
     estimated scf accuracy    <       0.00003375 Ry

     iteration # 14     ecut=    30.00 Ry     beta=0.70
     Davidson diagonalization with overlap
     ethr =  4.22E-07,  avg # of iterations =  1.0

     total cpu time spent up to now is        5.3 secs

     total energy              =     -31.49181589 Ry
     Harris-Foulkes estimate   =     -31.49181594 Ry
     estimated scf accuracy    <       0.00000008 Ry

     iteration # 15     ecut=    30.00 Ry     beta=0.70
     Davidson diagonalization with overlap
     ethr =  1.02E-09,  avg # of iterations =  1.0

     total cpu time spent up to now is        5.3 secs

     End of self-consistent calculation

          k = 0.0000 0.0000 0.0000 ( 22119 PWs)   bands (ev):

   -23.5681  -7.0036  -6.9872  -6.9855  -6.8789  -6.8609  -0.2171   0.6700

     the Fermi energy is    -6.8507 ev

!    total energy              =     -31.49181583 Ry
     Harris-Foulkes estimate   =     -31.49181589 Ry
     estimated scf accuracy    <          2.7E-09 Ry

     convergence has been achieved in  15 iterations

     Forces acting on atoms (Ry/au):

     atom    1 type  1   force =     0.00012876    0.00019870   -0.00019791
     atom    2 type  1   force =     0.00062606    0.00166873   -0.00023592
     atom    3 type  2   force =    -0.00075482   -0.00186743    0.00043383

     Total force =     0.002752     Total SCF correction =     0.000030

     Entering Dynamics:    iteration =     4
                           time      =   0.0194 pico-seconds


     Andersen thermostat:    3 collisions

ATOMIC_POSITIONS (bohr)
H        0.983873122  13.892451032  16.710661633
H       12.440333624   4.579833466   9.555915052
O       14.924267605  12.749186264   8.759462742


     kinetic energy (Ekin) =     0.01946536 Ry
     temperature           =  1024.44427435 K 
     Ekin + Etot (const)   =   -31.47235047 Ry
     Message from routine dynamics:
     Total linear momentum <> 0

     Linear momentum :    0.6585480540    0.4524520681   -0.2987964083

     Writing output data file pwscf.save

     second order wave-functions extrapolation
     Check: negative starting charge=   -0.345383
     second order charge density extrapolation
     Check: negative starting charge=   -0.345472

     negative rho (up, down):  5.343E-02 0.000E+00

     total cpu time spent up to now is        5.6 secs

     per-process dynamical memory:    20.4 Mb

     Self-consistent Calculation

     iteration #  1     ecut=    30.00 Ry     beta=0.70
     Davidson diagonalization with overlap
     c_bands:  1 eigenvalues not converged
     ethr =  1.00E-06,  avg # of iterations = 20.0

     negative rho (up, down):  1.183E-02 0.000E+00

     total cpu time spent up to now is        5.7 secs

     total energy              =     -31.46961377 Ry
     Harris-Foulkes estimate   =     -31.44557406 Ry
     estimated scf accuracy    <       0.01387144 Ry

     iteration #  2     ecut=    30.00 Ry     beta=0.70
     Davidson diagonalization with overlap
     ethr =  1.73E-04,  avg # of iterations =  2.0

     negative rho (up, down):  1.127E-02 0.000E+00

     total cpu time spent up to now is        5.8 secs

     total energy              =     -31.45726289 Ry
     Harris-Foulkes estimate   =     -31.69526440 Ry
     estimated scf accuracy    <       3.81597920 Ry

     iteration #  3     ecut=    30.00 Ry     beta=0.70
     Davidson diagonalization with overlap
     ethr =  1.73E-04,  avg # of iterations =  2.0

     negative rho (up, down):  1.093E-02 0.000E+00

     total cpu time spent up to now is        5.8 secs

     total energy              =     -31.46463006 Ry
     Harris-Foulkes estimate   =     -31.50855999 Ry
     estimated scf accuracy    <       1.06901858 Ry

     iteration #  4     ecut=    30.00 Ry     beta=0.70
     Davidson diagonalization with overlap
     ethr =  1.73E-04,  avg # of iterations =  1.0

     negative rho (up, down):  2.155E-03 0.000E+00

     total cpu time spent up to now is        5.8 secs

     total energy              =     -31.48748106 Ry
     Harris-Foulkes estimate   =     -31.48138218 Ry
     estimated scf accuracy    <       0.04270949 Ry

     iteration #  5     ecut=    30.00 Ry     beta=0.70
     Davidson diagonalization with overlap
     ethr =  1.73E-04,  avg # of iterations =  7.0

     negative rho (up, down):  1.105E-03 0.000E+00

     total cpu time spent up to now is        5.9 secs

     total energy              =     -31.48695668 Ry
     Harris-Foulkes estimate   =     -31.49273842 Ry
     estimated scf accuracy    <       0.21691784 Ry

     iteration #  6     ecut=    30.00 Ry     beta=0.70
     Davidson diagonalization with overlap
     ethr =  1.73E-04,  avg # of iterations =  1.0

     negative rho (up, down):  3.363E-05 0.000E+00

     total cpu time spent up to now is        5.9 secs

     total energy              =     -31.49081115 Ry
     Harris-Foulkes estimate   =     -31.49157934 Ry
     estimated scf accuracy    <       0.03786764 Ry

     iteration #  7     ecut=    30.00 Ry     beta=0.70
     Davidson diagonalization with overlap
     ethr =  1.73E-04,  avg # of iterations =  1.0

     negative rho (up, down):  3.545E-06 0.000E+00

     total cpu time spent up to now is        5.9 secs

     total energy              =     -31.49147739 Ry
     Harris-Foulkes estimate   =     -31.49156177 Ry
     estimated scf accuracy    <       0.00522285 Ry

     iteration #  8     ecut=    30.00 Ry     beta=0.70
     Davidson diagonalization with overlap
     ethr =  6.53E-05,  avg # of iterations =  3.0

     total cpu time spent up to now is        6.0 secs

     total energy              =     -31.49150385 Ry
     Harris-Foulkes estimate   =     -31.49151356 Ry
     estimated scf accuracy    <       0.00022807 Ry

     iteration #  9     ecut=    30.00 Ry     beta=0.70
     Davidson diagonalization with overlap
     ethr =  2.85E-06,  avg # of iterations = 16.0

     total cpu time spent up to now is        6.0 secs

     total energy              =     -31.49150855 Ry
     Harris-Foulkes estimate   =     -31.49151793 Ry
     estimated scf accuracy    <       0.00042955 Ry

     iteration # 10     ecut=    30.00 Ry     beta=0.70
     Davidson diagonalization with overlap
     ethr =  2.85E-06,  avg # of iterations =  1.0

     total cpu time spent up to now is        6.0 secs

     total energy              =     -31.49151304 Ry
     Harris-Foulkes estimate   =     -31.49151318 Ry
     estimated scf accuracy    <       0.00000078 Ry

     iteration # 11     ecut=    30.00 Ry     beta=0.70
     Davidson diagonalization with overlap
     ethr =  9.78E-09,  avg # of iterations =  1.0

     total cpu time spent up to now is        6.1 secs

     total energy              =     -31.49151295 Ry
     Harris-Foulkes estimate   =     -31.49151307 Ry
     estimated scf accuracy    <       0.00000113 Ry

     iteration # 12     ecut=    30.00 Ry     beta=0.70
     Davidson diagonalization with overlap
     ethr =  9.78E-09,  avg # of iterations =  1.0

     total cpu time spent up to now is        6.1 secs

     total energy              =     -31.49151298 Ry
     Harris-Foulkes estimate   =     -31.49151297 Ry
     estimated scf accuracy    <       0.00000007 Ry

     iteration # 13     ecut=    30.00 Ry     beta=0.70
     Davidson diagonalization with overlap
     ethr =  8.98E-10,  avg # of iterations =  1.0

     total cpu time spent up to now is        6.1 secs

     End of self-consistent calculation

          k = 0.0000 0.0000 0.0000 ( 22119 PWs)   bands (ev):

   -23.5674  -6.9959  -6.9868  -6.9846  -6.8776  -6.8668  -0.2199   0.6661

     the Fermi energy is    -6.8497 ev

!    total energy              =     -31.49151297 Ry
     Harris-Foulkes estimate   =     -31.49151298 Ry
     estimated scf accuracy    <          1.0E-10 Ry

     convergence has been achieved in  13 iterations

     Forces acting on atoms (Ry/au):

     atom    1 type  1   force =     0.00018926    0.00013163   -0.00003759
     atom    2 type  1   force =     0.00047609    0.00057210    0.00004410
     atom    3 type  2   force =    -0.00066535   -0.00070373   -0.00000650

     Total force =     0.001244     Total SCF correction =     0.000021

     Entering Dynamics:    iteration =     5
                           time      =   0.0242 pico-seconds


     Andersen thermostat:    3 collisions

ATOMIC_POSITIONS (bohr)
H        0.802618490  14.187276278  17.015175149
H       11.910851207   4.801533508   9.277809732
O       14.969132882  12.716580605   8.757795724


     kinetic energy (Ekin) =     0.03193326 Ry
     temperature           =  1680.61924317 K 
     Ekin + Etot (const)   =   -31.45957970 Ry
     Message from routine dynamics:
     Total linear momentum <> 0

     Linear momentum :    0.2555715914    0.0401351917   -0.1541686132

     Writing output data file pwscf.save

     second order wave-functions extrapolation
     Check: negative starting charge=   -0.345472
     second order charge density extrapolation
     Check: negative starting charge=   -0.345525

     negative rho (up, down):  6.876E-02 0.000E+00

     total cpu time spent up to now is        6.4 secs

     per-process dynamical memory:    20.4 Mb

     Self-consistent Calculation

     iteration #  1     ecut=    30.00 Ry     beta=0.70
     Davidson diagonalization with overlap
     c_bands:  1 eigenvalues not converged
     ethr =  1.00E-06,  avg # of iterations = 20.0

     negative rho (up, down):  1.589E-02 0.000E+00

     total cpu time spent up to now is        6.5 secs

     total energy              =     -31.27980623 Ry
     Harris-Foulkes estimate   =     -31.43931219 Ry
     estimated scf accuracy    <       0.24923883 Ry

     iteration #  2     ecut=    30.00 Ry     beta=0.70
     Davidson diagonalization with overlap
     ethr =  3.12E-03,  avg # of iterations =  2.0

     negative rho (up, down):  1.327E-02 0.000E+00

     total cpu time spent up to now is        6.6 secs

     total energy              =     -31.53261695 Ry
     Harris-Foulkes estimate   =     -32.59060400 Ry
     estimated scf accuracy    <       5.42600730 Ry

     iteration #  3     ecut=    30.00 Ry     beta=0.70
     Davidson diagonalization with overlap
     ethr =  3.12E-03,  avg # of iterations =  2.0

     negative rho (up, down):  1.210E-02 0.000E+00

     total cpu time spent up to now is        6.6 secs

     total energy              =     -31.53483749 Ry
     Harris-Foulkes estimate   =     -31.70635569 Ry
     estimated scf accuracy    <       1.37458153 Ry

     iteration #  4     ecut=    30.00 Ry     beta=0.70
     Davidson diagonalization with overlap
     ethr =  3.12E-03,  avg # of iterations =  1.0

     negative rho (up, down):  1.159E-02 0.000E+00

     total cpu time spent up to now is        6.6 secs

     total energy              =     -31.46825326 Ry
     Harris-Foulkes estimate   =     -31.59464153 Ry
     estimated scf accuracy    <       3.79147639 Ry

     iteration #  5     ecut=    30.00 Ry     beta=0.70
     Davidson diagonalization with overlap
     ethr =  3.12E-03,  avg # of iterations =  1.0

     negative rho (up, down):  1.142E-02 0.000E+00

     total cpu time spent up to now is        6.7 secs

     total energy              =     -31.47961834 Ry
     Harris-Foulkes estimate   =     -31.50175654 Ry
     estimated scf accuracy    <       1.02589344 Ry

     iteration #  6     ecut=    30.00 Ry     beta=0.70
     Davidson diagonalization with overlap
     ethr =  3.12E-03,  avg # of iterations =  1.0

     negative rho (up, down):  1.842E-03 0.000E+00

     total cpu time spent up to now is        6.7 secs

     total energy              =     -31.48624967 Ry
     Harris-Foulkes estimate   =     -31.48455303 Ry
     estimated scf accuracy    <       0.23792343 Ry

     iteration #  7     ecut=    30.00 Ry     beta=0.70
     Davidson diagonalization with overlap
     ethr =  2.97E-03,  avg # of iterations =  1.0

     negative rho (up, down):  7.126E-04 0.000E+00

     total cpu time spent up to now is        6.7 secs

     total energy              =     -31.49092136 Ry
     Harris-Foulkes estimate   =     -31.49102741 Ry
     estimated scf accuracy    <       0.05038959 Ry

     iteration #  8     ecut=    30.00 Ry     beta=0.70
     Davidson diagonalization with overlap
     ethr =  6.30E-04,  avg # of iterations =  1.0

     negative rho (up, down):  3.434E-05 0.000E+00

     total cpu time spent up to now is        6.8 secs

     total energy              =     -31.49509365 Ry
     Harris-Foulkes estimate   =     -31.49291320 Ry
     estimated scf accuracy    <       0.08349111 Ry

     iteration #  9     ecut=    30.00 Ry     beta=0.70
     Davidson diagonalization with overlap
     ethr =  6.30E-04,  avg # of iterations =  1.0

     negative rho (up, down):  1.084E-06 0.000E+00

     total cpu time spent up to now is        6.8 secs

     total energy              =     -31.49354038 Ry
     Harris-Foulkes estimate   =     -31.49586115 Ry
     estimated scf accuracy    <       0.23580040 Ry

     iteration # 10     ecut=    30.00 Ry     beta=0.70
     Davidson diagonalization with overlap
     ethr =  6.30E-04,  avg # of iterations =  1.0

     total cpu time spent up to now is        7.0 secs

     total energy              =     -31.48926073 Ry
     Harris-Foulkes estimate   =     -31.49380780 Ry
     estimated scf accuracy    <       0.13549178 Ry

     iteration # 11     ecut=    30.00 Ry     beta=0.70
     Davidson diagonalization with overlap
     ethr =  6.30E-04,  avg # of iterations =  1.0

     negative rho (up, down):  3.034E-08 0.000E+00

     total cpu time spent up to now is        7.0 secs

     total energy              =     -31.49152619 Ry
     Harris-Foulkes estimate   =     -31.49156481 Ry
     estimated scf accuracy    <       0.00530010 Ry

     iteration # 12     ecut=    30.00 Ry     beta=0.70
     Davidson diagonalization with overlap
     ethr =  6.63E-05,  avg # of iterations =  7.0

     total cpu time spent up to now is        7.0 secs

     total energy              =     -31.49149332 Ry
     Harris-Foulkes estimate   =     -31.49159321 Ry
     estimated scf accuracy    <       0.00535725 Ry

     iteration # 13     ecut=    30.00 Ry     beta=0.70
     Davidson diagonalization with overlap
     ethr =  6.63E-05,  avg # of iterations =  1.0

     total cpu time spent up to now is        7.1 secs

     total energy              =     -31.49148312 Ry
     Harris-Foulkes estimate   =     -31.49152154 Ry
     estimated scf accuracy    <       0.00120017 Ry

     iteration # 14     ecut=    30.00 Ry     beta=0.70
     Davidson diagonalization with overlap
     ethr =  1.50E-05,  avg # of iterations =  1.0

     total cpu time spent up to now is        7.1 secs

     total energy              =     -31.49150212 Ry
     Harris-Foulkes estimate   =     -31.49150308 Ry
     estimated scf accuracy    <       0.00003970 Ry

     iteration # 15     ecut=    30.00 Ry     beta=0.70
     Davidson diagonalization with overlap
     ethr =  4.96E-07,  avg # of iterations =  6.0

     total cpu time spent up to now is        7.1 secs

     total energy              =     -31.49150348 Ry
     Harris-Foulkes estimate   =     -31.49150331 Ry
     estimated scf accuracy    <       0.00002696 Ry

     iteration # 16     ecut=    30.00 Ry     beta=0.70
     Davidson diagonalization with overlap
     ethr =  3.37E-07,  avg # of iterations =  1.0

     total cpu time spent up to now is        7.2 secs

     total energy              =     -31.49150178 Ry
     Harris-Foulkes estimate   =     -31.49150349 Ry
     estimated scf accuracy    <       0.00003440 Ry

     iteration # 17     ecut=    30.00 Ry     beta=0.70
     Davidson diagonalization with overlap
     ethr =  3.37E-07,  avg # of iterations =  1.0

     total cpu time spent up to now is        7.2 secs

     total energy              =     -31.49150241 Ry
     Harris-Foulkes estimate   =     -31.49150257 Ry
     estimated scf accuracy    <       0.00000354 Ry

     iteration # 18     ecut=    30.00 Ry     beta=0.70
     Davidson diagonalization with overlap
     ethr =  4.42E-08,  avg # of iterations =  1.0

     total cpu time spent up to now is        7.2 secs

     total energy              =     -31.49150235 Ry
     Harris-Foulkes estimate   =     -31.49150242 Ry
     estimated scf accuracy    <       0.00000070 Ry

     iteration # 19     ecut=    30.00 Ry     beta=0.70
     Davidson diagonalization with overlap
     ethr =  8.70E-09,  avg # of iterations =  1.0

     total cpu time spent up to now is        7.3 secs

     total energy              =     -31.49150229 Ry
     Harris-Foulkes estimate   =     -31.49150236 Ry
     estimated scf accuracy    <       0.00000002 Ry

     iteration # 20     ecut=    30.00 Ry     beta=0.70
     Davidson diagonalization with overlap
     ethr =  1.96E-10,  avg # of iterations =  1.0

     total cpu time spent up to now is        7.3 secs

     End of self-consistent calculation

          k = 0.0000 0.0000 0.0000 ( 22119 PWs)   bands (ev):

   -23.5670  -6.9962  -6.9858  -6.9838  -6.8775  -6.8656  -0.2209   0.6569

     the Fermi energy is    -6.8492 ev

!    total energy              =     -31.49150232 Ry
     Harris-Foulkes estimate   =     -31.49150229 Ry
     estimated scf accuracy    <          2.3E-10 Ry

     convergence has been achieved in  20 iterations

     Forces acting on atoms (Ry/au):

     atom    1 type  1   force =    -0.00003858    0.00033984    0.00002593
     atom    2 type  1   force =     0.00034785    0.00097977    0.00006712
     atom    3 type  2   force =    -0.00030927   -0.00131961   -0.00009304

     Total force =     0.001746     Total SCF correction =     0.000365
     SCF correction compared to forces is large: reduce conv_thr to get better values

     Entering Dynamics:    iteration =     6
                           time      =   0.0290 pico-seconds


     Andersen thermostat:    3 collisions

ATOMIC_POSITIONS (bohr)
H        0.776754252  13.603649305  16.897073252
H       11.547850134   4.595071132   9.628939066
O       14.993680004  12.766454995   8.743085867


     kinetic energy (Ekin) =     0.03338116 Ry
     temperature           =  1756.82073625 K 
     Ekin + Etot (const)   =   -31.45812116 Ry
     Message from routine dynamics:
     Total linear momentum <> 0

     Linear momentum :    0.0271839412   -0.0722010692   -0.2133873842

     Writing output data file pwscf.save

     second order wave-functions extrapolation
     Check: negative starting charge=   -0.345525
     second order charge density extrapolation
     Check: negative starting charge=   -0.345288

     negative rho (up, down):  8.753E-02 0.000E+00

     total cpu time spent up to now is        7.6 secs

     per-process dynamical memory:    20.4 Mb

     Self-consistent Calculation

     iteration #  1     ecut=    30.00 Ry     beta=0.70
     Davidson diagonalization with overlap
     c_bands:  1 eigenvalues not converged
     ethr =  1.00E-06,  avg # of iterations = 20.0

     negative rho (up, down):  2.182E-02 0.000E+00

     total cpu time spent up to now is        7.7 secs

     total energy              =     -24.68265445 Ry
     Harris-Foulkes estimate   =     -33.72216086 Ry
     estimated scf accuracy    <       2.87444618 Ry

     iteration #  2     ecut=    30.00 Ry     beta=0.70
     Davidson diagonalization with overlap
     ethr =  1.00E-02,  avg # of iterations =  3.0

     negative rho (up, down):  1.563E-02 0.000E+00

     total cpu time spent up to now is        7.7 secs

     total energy              =     -31.34025119 Ry
     Harris-Foulkes estimate   =     -34.05738327 Ry
     estimated scf accuracy    <       6.46771706 Ry

     iteration #  3     ecut=    30.00 Ry     beta=0.70
     Davidson diagonalization with overlap
     ethr =  1.00E-02,  avg # of iterations =  2.0

     negative rho (up, down):  1.220E-02 0.000E+00

     total cpu time spent up to now is        7.8 secs

     total energy              =     -31.91921143 Ry
     Harris-Foulkes estimate   =     -32.78289754 Ry
     estimated scf accuracy    <       3.01075694 Ry

     iteration #  4     ecut=    30.00 Ry     beta=0.70
     Davidson diagonalization with overlap
     ethr =  1.00E-02,  avg # of iterations =  1.0

     negative rho (up, down):  1.013E-02 0.000E+00

     total cpu time spent up to now is        7.8 secs

     total energy              =     -31.61993457 Ry
     Harris-Foulkes estimate   =     -31.96268156 Ry
     estimated scf accuracy    <       1.68729090 Ry

     iteration #  5     ecut=    30.00 Ry     beta=0.70
     Davidson diagonalization with overlap
     ethr =  1.00E-02,  avg # of iterations =  3.0

     negative rho (up, down):  3.982E-03 0.000E+00

     total cpu time spent up to now is        7.8 secs

     total energy              =     -31.44340149 Ry
     Harris-Foulkes estimate   =     -31.80788413 Ry
     estimated scf accuracy    <       2.93355999 Ry

     iteration #  6     ecut=    30.00 Ry     beta=0.70
     Davidson diagonalization with overlap
     ethr =  1.00E-02,  avg # of iterations =  2.0

     negative rho (up, down):  6.129E-03 0.000E+00

     total cpu time spent up to now is        7.9 secs

     total energy              =     -31.43157297 Ry
     Harris-Foulkes estimate   =     -32.04881026 Ry
     estimated scf accuracy    <       2.01286594 Ry

     iteration #  7     ecut=    30.00 Ry     beta=0.70
     Davidson diagonalization with overlap
     ethr =  1.00E-02,  avg # of iterations =  1.0

     negative rho (up, down):  4.829E-03 0.000E+00

     total cpu time spent up to now is        7.9 secs

     total energy              =     -31.46053485 Ry
     Harris-Foulkes estimate   =     -31.60326766 Ry
     estimated scf accuracy    <       2.63783787 Ry

     iteration #  8     ecut=    30.00 Ry     beta=0.70
     Davidson diagonalization with overlap
     ethr =  1.00E-02,  avg # of iterations =  1.0

     negative rho (up, down):  3.286E-03 0.000E+00

     total cpu time spent up to now is        8.0 secs

     total energy              =     -31.49663438 Ry
     Harris-Foulkes estimate   =     -31.51183252 Ry
     estimated scf accuracy    <       0.61919529 Ry

     iteration #  9     ecut=    30.00 Ry     beta=0.70
     Davidson diagonalization with overlap
     ethr =  7.74E-03,  avg # of iterations =  1.0

     negative rho (up, down):  2.376E-03 0.000E+00

     total cpu time spent up to now is        8.0 secs

     total energy              =     -31.70215108 Ry
     Harris-Foulkes estimate   =     -31.58571677 Ry
     estimated scf accuracy    <       4.38324515 Ry

     iteration # 10     ecut=    30.00 Ry     beta=0.70
     Davidson diagonalization with overlap
     ethr =  7.74E-03,  avg # of iterations =  1.0

     negative rho (up, down):  7.324E-08 0.000E+00

     total cpu time spent up to now is        8.0 secs

     total energy              =     -32.12439738 Ry
     Harris-Foulkes estimate   =     -31.69972446 Ry
     estimated scf accuracy    <       4.35436411 Ry

     iteration # 11     ecut=    30.00 Ry     beta=0.70
     Davidson diagonalization with overlap
     ethr =  7.74E-03,  avg # of iterations =  1.0

     negative rho (up, down):  3.194E-06 0.000E+00

     total cpu time spent up to now is        8.1 secs

     total energy              =     -32.05287203 Ry
     Harris-Foulkes estimate   =     -32.12972428 Ry
     estimated scf accuracy    <       4.47492407 Ry

     iteration # 12     ecut=    30.00 Ry     beta=0.70
     Davidson diagonalization with overlap
     ethr =  7.74E-03,  avg # of iterations =  1.0

     negative rho (up, down):  2.402E-05 0.000E+00

     total cpu time spent up to now is        8.1 secs

     total energy              =     -31.78558330 Ry
     Harris-Foulkes estimate   =     -32.05791225 Ry
     estimated scf accuracy    <       4.37028355 Ry

     iteration # 13     ecut=    30.00 Ry     beta=0.70
     Davidson diagonalization with overlap
     ethr =  7.74E-03,  avg # of iterations =  1.0

     negative rho (up, down):  2.979E-08 0.000E+00

     total cpu time spent up to now is        8.1 secs

     total energy              =     -31.69406207 Ry
     Harris-Foulkes estimate   =     -31.78805010 Ry
     estimated scf accuracy    <       3.94749899 Ry

     iteration # 14     ecut=    30.00 Ry     beta=0.70
     Davidson diagonalization with overlap
     ethr =  7.74E-03,  avg # of iterations =  1.0

     negative rho (up, down):  3.585E-07 0.000E+00

     total cpu time spent up to now is        8.2 secs

     total energy              =     -31.58203021 Ry
     Harris-Foulkes estimate   =     -31.69391321 Ry
     estimated scf accuracy    <       4.09183275 Ry

     iteration # 15     ecut=    30.00 Ry     beta=0.70
     Davidson diagonalization with overlap
     ethr =  7.74E-03,  avg # of iterations =  1.0

     negative rho (up, down):  1.817E-07 0.000E+00

     total cpu time spent up to now is        8.2 secs

     total energy              =     -31.57504150 Ry
     Harris-Foulkes estimate   =     -31.58456411 Ry
     estimated scf accuracy    <       2.56906185 Ry

     iteration # 16     ecut=    30.00 Ry     beta=0.70
     Davidson diagonalization with overlap
     ethr =  7.74E-03,  avg # of iterations =  1.0

     negative rho (up, down):  3.031E-06 0.000E+00

     total cpu time spent up to now is        8.3 secs

     total energy              =     -31.65193798 Ry
     Harris-Foulkes estimate   =     -31.57513370 Ry
     estimated scf accuracy    <       2.39995291 Ry

     iteration # 17     ecut=    30.00 Ry     beta=0.70
     Davidson diagonalization with overlap
     ethr =  7.74E-03,  avg # of iterations =  1.0

     negative rho (up, down):  5.021E-03 0.000E+00

     total cpu time spent up to now is        8.3 secs

     total energy              =     -30.09216216 Ry
     Harris-Foulkes estimate   =     -31.67285039 Ry
     estimated scf accuracy    <       3.90501242 Ry

     iteration # 18     ecut=    30.00 Ry     beta=0.70
     Davidson diagonalization with overlap
     ethr =  7.74E-03,  avg # of iterations =  2.0

     negative rho (up, down):  1.704E-04 0.000E+00

     total cpu time spent up to now is        8.3 secs

     total energy              =     -32.51212653 Ry
     Harris-Foulkes estimate   =     -33.06349633 Ry
     estimated scf accuracy    <       5.04983330 Ry

     iteration # 19     ecut=    30.00 Ry     beta=0.70
     Davidson diagonalization with overlap
     ethr =  7.74E-03,  avg # of iterations =  1.0

     negative rho (up, down):  6.933E-08 0.000E+00

     total cpu time spent up to now is        8.4 secs

     total energy              =     -32.03211840 Ry
     Harris-Foulkes estimate   =     -32.50609214 Ry
     estimated scf accuracy    <       4.18352673 Ry

     iteration # 20     ecut=    30.00 Ry     beta=0.70
     Davidson diagonalization with overlap
     ethr =  7.74E-03,  avg # of iterations =  1.0

     total cpu time spent up to now is        8.4 secs

     total energy              =     -31.65513945 Ry
     Harris-Foulkes estimate   =     -32.05041591 Ry
     estimated scf accuracy    <       3.41926719 Ry

     iteration # 21     ecut=    30.00 Ry     beta=0.70
     Davidson diagonalization with overlap
     ethr =  7.74E-03,  avg # of iterations =  1.0

     total cpu time spent up to now is        8.4 secs

     total energy              =     -31.41948759 Ry
     Harris-Foulkes estimate   =     -31.64767667 Ry
     estimated scf accuracy    <       2.76995773 Ry

     iteration # 22     ecut=    30.00 Ry     beta=0.70
     Davidson diagonalization with overlap
     ethr =  7.74E-03,  avg # of iterations =  1.0

     total cpu time spent up to now is        8.5 secs

     total energy              =     -31.59453413 Ry
     Harris-Foulkes estimate   =     -31.59181712 Ry
     estimated scf accuracy    <       1.13603678 Ry

     iteration # 23     ecut=    30.00 Ry     beta=0.70
     Davidson diagonalization with overlap
     ethr =  7.74E-03,  avg # of iterations =  1.0

     negative rho (up, down):  1.630E-05 0.000E+00

     total cpu time spent up to now is        8.5 secs

     total energy              =     -31.54449202 Ry
     Harris-Foulkes estimate   =     -31.59469576 Ry
     estimated scf accuracy    <       1.13655640 Ry

     iteration # 24     ecut=    30.00 Ry     beta=0.70
     Davidson diagonalization with overlap
     ethr =  7.74E-03,  avg # of iterations =  1.0

     negative rho (up, down):  1.646E-05 0.000E+00

     total cpu time spent up to now is        8.5 secs

     total energy              =     -31.48095459 Ry
     Harris-Foulkes estimate   =     -31.54198780 Ry
     estimated scf accuracy    <       1.29813712 Ry

     iteration # 25     ecut=    30.00 Ry     beta=0.70
     Davidson diagonalization with overlap
     ethr =  7.74E-03,  avg # of iterations =  1.0

     negative rho (up, down):  7.700E-06 0.000E+00

     total cpu time spent up to now is        8.6 secs

     total energy              =     -31.60222114 Ry
     Harris-Foulkes estimate   =     -31.55483406 Ry
     estimated scf accuracy    <       2.36559402 Ry

     iteration # 26     ecut=    30.00 Ry     beta=0.70
     Davidson diagonalization with overlap
     ethr =  7.74E-03,  avg # of iterations =  1.0

     negative rho (up, down):  1.819E-01 0.000E+00

     total cpu time spent up to now is        8.6 secs

     total energy              =     -29.82673802 Ry
     Harris-Foulkes estimate   =     -31.60650203 Ry
     estimated scf accuracy    <       2.69990889 Ry

     iteration # 27     ecut=    30.00 Ry     beta=0.70
     Davidson diagonalization with overlap
     ethr =  7.74E-03,  avg # of iterations =  4.0

     negative rho (up, down):  2.263E-01 0.000E+00

     total cpu time spent up to now is        8.6 secs

     total energy              =     -35.78832109 Ry
     Harris-Foulkes estimate   =     -35.80307942 Ry
     estimated scf accuracy    <      17.78922174 Ry

     iteration # 28     ecut=    30.00 Ry     beta=0.70
     Davidson diagonalization with overlap
     ethr =  7.74E-03,  avg # of iterations =  1.0

     negative rho (up, down):  1.140E-01 0.000E+00

     total cpu time spent up to now is        8.7 secs

     total energy              =     -34.45270454 Ry
     Harris-Foulkes estimate   =     -35.81012445 Ry
     estimated scf accuracy    <      18.06714190 Ry

     iteration # 29     ecut=    30.00 Ry     beta=0.70
     Davidson diagonalization with overlap
     ethr =  7.74E-03,  avg # of iterations =  1.0

     negative rho (up, down):  3.669E-02 0.000E+00

     total cpu time spent up to now is        8.7 secs

     total energy              =     -32.04788766 Ry
     Harris-Foulkes estimate   =     -34.49186424 Ry
     estimated scf accuracy    <      15.79147729 Ry

     iteration # 30     ecut=    30.00 Ry     beta=0.70
[...]
     Harris-Foulkes estimate   =   -2637.40310684 Ry
     estimated scf accuracy    <      22.87280344 Ry

     iteration # 59     ecut=    30.00 Ry     beta=0.70
     Davidson diagonalization with overlap
     ethr =  1.00E-02,  avg # of iterations =  9.0

     negative rho (up, down):  4.416E-01 0.000E+00

     total cpu time spent up to now is       50.4 secs

     total energy              =      26.02010489 Ry
     Harris-Foulkes estimate   =   -5090.71457393 Ry
     estimated scf accuracy    <      26.17554190 Ry

     iteration # 60     ecut=    30.00 Ry     beta=0.70
     Davidson diagonalization with overlap
     ethr =  1.00E-02,  avg # of iterations =  7.0

     negative rho (up, down):  3.978E-01 0.000E+00

     total cpu time spent up to now is       50.5 secs

     total energy              =    -390.59999099 Ry
     Harris-Foulkes estimate   =   -2993.07491834 Ry
     estimated scf accuracy    <      25.78052996 Ry

     iteration # 61     ecut=    30.00 Ry     beta=0.70
     Davidson diagonalization with overlap
     ethr =  1.00E-02,  avg # of iterations = 10.0

     negative rho (up, down):  2.655E-01 0.000E+00

     total cpu time spent up to now is       50.5 secs

     total energy              =     -52.44270364 Ry
     Harris-Foulkes estimate   =   -6458.39783693 Ry
     estimated scf accuracy    <      25.29442153 Ry

     iteration # 62     ecut=    30.00 Ry     beta=0.70
     Davidson diagonalization with overlap
     ethr =  1.00E-02,  avg # of iterations =  8.0

     negative rho (up, down):  2.319E-01 0.000E+00

     total cpu time spent up to now is       50.6 secs

     total energy              =      21.66189207 Ry
     Harris-Foulkes estimate   =   -6977.17408816 Ry
     estimated scf accuracy    <      19.14214967 Ry

     iteration # 63     ecut=    30.00 Ry     beta=0.70
     Davidson diagonalization with overlap
     ethr =  1.00E-02,  avg # of iterations =  6.0

     negative rho (up, down):  1.114E-01 0.000E+00

     total cpu time spent up to now is       50.6 secs

     total energy              =      87.22840785 Ry
     Harris-Foulkes estimate   =   -1901.56920264 Ry
     estimated scf accuracy    <      18.48580583 Ry

     iteration # 64     ecut=    30.00 Ry     beta=0.70
     Davidson diagonalization with overlap
     ethr =  1.00E-02,  avg # of iterations =  9.0

     negative rho (up, down):  1.784E-01 0.000E+00

     total cpu time spent up to now is       50.7 secs

     total energy              =    -116.12776480 Ry
     Harris-Foulkes estimate   =    -124.08191248 Ry
     estimated scf accuracy    <      20.19818631 Ry

     iteration # 65     ecut=    30.00 Ry     beta=0.70
     Davidson diagonalization with overlap
     ethr =  1.00E-02,  avg # of iterations =  7.0

     negative rho (up, down):  3.664E-01 0.000E+00

     total cpu time spent up to now is       50.7 secs

     total energy              =       5.57208196 Ry
     Harris-Foulkes estimate   =   -1164.06330545 Ry
     estimated scf accuracy    <      22.71663770 Ry

     iteration # 66     ecut=    30.00 Ry     beta=0.70
     Davidson diagonalization with overlap
     ethr =  1.00E-02,  avg # of iterations =  8.0

     negative rho (up, down):  2.722E-01 0.000E+00

     total cpu time spent up to now is       50.8 secs

     total energy              =      39.56279550 Ry
     Harris-Foulkes estimate   =   -2429.38655447 Ry
     estimated scf accuracy    <      26.55223850 Ry

     iteration # 67     ecut=    30.00 Ry     beta=0.70
     Davidson diagonalization with overlap
     ethr =  1.00E-02,  avg # of iterations =  7.0

     negative rho (up, down):  3.179E-01 0.000E+00

     total cpu time spent up to now is       50.9 secs

     total energy              =    -275.97972945 Ry
     Harris-Foulkes estimate   =   -1065.30525547 Ry
     estimated scf accuracy    <      22.25900616 Ry

     iteration # 68     ecut=    30.00 Ry     beta=0.70
     Davidson diagonalization with overlap
     ethr =  1.00E-02,  avg # of iterations =  7.0

     negative rho (up, down):  3.851E-01 0.000E+00

     total cpu time spent up to now is       50.9 secs

     total energy              =    -761.49407122 Ry
     Harris-Foulkes estimate   =  -18036.35704428 Ry
     estimated scf accuracy    <      21.64042112 Ry

     iteration # 69     ecut=    30.00 Ry     beta=0.70
     Davidson diagonalization with overlap
     ethr =  1.00E-02,  avg # of iterations =  8.0

     negative rho (up, down):  1.176E-01 0.000E+00

     total cpu time spent up to now is       51.0 secs

     total energy              =      92.67728424 Ry
     Harris-Foulkes estimate   =   -3843.22019135 Ry
     estimated scf accuracy    <      22.08647405 Ry

     iteration # 70     ecut=    30.00 Ry     beta=0.70
     Davidson diagonalization with overlap
     ethr =  1.00E-02,  avg # of iterations = 12.0

     negative rho (up, down):  1.639E-01 0.000E+00

     total cpu time spent up to now is       51.0 secs

     total energy              =       0.46382568 Ry
     Harris-Foulkes estimate   =     -87.88774723 Ry
     estimated scf accuracy    <      22.32393187 Ry

     iteration # 71     ecut=    30.00 Ry     beta=0.70
     Davidson diagonalization with overlap
     ethr =  1.00E-02,  avg # of iterations =  8.0

     negative rho (up, down):  9.769E-02 0.000E+00

     total cpu time spent up to now is       51.1 secs

     total energy              =      32.88951031 Ry
     Harris-Foulkes estimate   =   -7335.01547989 Ry
     estimated scf accuracy    <      32.54929614 Ry

     iteration # 72     ecut=    30.00 Ry     beta=0.70
     Davidson diagonalization with overlap
     ethr =  1.00E-02,  avg # of iterations =  5.0

     negative rho (up, down):  1.323E-01 0.000E+00

     total cpu time spent up to now is       51.1 secs

     total energy              =   -5773.08804873 Ry
     Harris-Foulkes estimate   =    -399.18454704 Ry
     estimated scf accuracy    <      24.01809539 Ry

     iteration # 73     ecut=    30.00 Ry     beta=0.70
     Davidson diagonalization with overlap
     ethr =  1.00E-02,  avg # of iterations =  8.0

     negative rho (up, down):  2.890E-01 0.000E+00

     total cpu time spent up to now is       51.2 secs

     total energy              =    -290.97781396 Ry
     Harris-Foulkes estimate   =  -14406.12267481 Ry
     estimated scf accuracy    <      21.78892827 Ry

     iteration # 74     ecut=    30.00 Ry     beta=0.70
     Davidson diagonalization with overlap
     ethr =  1.00E-02,  avg # of iterations = 10.0

     negative rho (up, down):  2.756E-01 0.000E+00

     total cpu time spent up to now is       51.3 secs

     total energy              =     -54.04741961 Ry
     Harris-Foulkes estimate   =   -1156.51519920 Ry
     estimated scf accuracy    <      34.27343103 Ry

     iteration # 75     ecut=    30.00 Ry     beta=0.70
     Davidson diagonalization with overlap
     ethr =  1.00E-02,  avg # of iterations =  8.0

     negative rho (up, down):  2.530E-03 0.000E+00

     total cpu time spent up to now is       51.3 secs

     total energy              =     109.07270424 Ry
     Harris-Foulkes estimate   =  -11829.05316096 Ry
     estimated scf accuracy    <      15.52177863 Ry

     iteration # 76     ecut=    30.00 Ry     beta=0.70
     Davidson diagonalization with overlap
     ethr =  1.00E-02,  avg # of iterations = 10.0

     negative rho (up, down):  2.191E-01 0.000E+00

     total cpu time spent up to now is       51.4 secs

     total energy              =     -67.16267655 Ry
     Harris-Foulkes estimate   =     -64.09960028 Ry
     estimated scf accuracy    <      21.12847476 Ry

     iteration # 77     ecut=    30.00 Ry     beta=0.70
     Davidson diagonalization with overlap
     ethr =  1.00E-02,  avg # of iterations =  7.0

     negative rho (up, down):  2.709E-01 0.000E+00

     total cpu time spent up to now is       51.4 secs

     total energy              =       6.16993849 Ry
     Harris-Foulkes estimate   =    -332.89663432 Ry
     estimated scf accuracy    <      15.47585347 Ry

     iteration # 78     ecut=    30.00 Ry     beta=0.70
     Davidson diagonalization with overlap
     ethr =  1.00E-02,  avg # of iterations =  5.0

     negative rho (up, down):  5.188E-01 0.000E+00

     total cpu time spent up to now is       51.5 secs

     total energy              =      81.84794710 Ry
     Harris-Foulkes estimate   =   -3407.70928560 Ry
     estimated scf accuracy    <      27.91810583 Ry

     iteration # 79     ecut=    30.00 Ry     beta=0.70
     Davidson diagonalization with overlap
     ethr =  1.00E-02,  avg # of iterations =  8.0

     negative rho (up, down):  5.895E-01 0.000E+00

     total cpu time spent up to now is       51.5 secs

     total energy              =      40.40833626 Ry
     Harris-Foulkes estimate   =   -1206.50639383 Ry
     estimated scf accuracy    <      34.34682101 Ry

     iteration # 80     ecut=    30.00 Ry     beta=0.70
     Davidson diagonalization with overlap
     ethr =  1.00E-02,  avg # of iterations =  6.0

     negative rho (up, down):  6.516E-01 0.000E+00

     total cpu time spent up to now is       51.6 secs

     total energy              =      12.61095076 Ry
     Harris-Foulkes estimate   =  -21864.52629366 Ry
     estimated scf accuracy    <      36.25159618 Ry

     iteration # 81     ecut=    30.00 Ry     beta=0.70
     Davidson diagonalization with overlap
     ethr =  1.00E-02,  avg # of iterations =  5.0

     negative rho (up, down):  7.916E-01 0.000E+00

     total cpu time spent up to now is       51.6 secs

     total energy              =     -36.07845299 Ry
     Harris-Foulkes estimate   =    -952.02366731 Ry
     estimated scf accuracy    <      27.28396016 Ry

     iteration # 82     ecut=    30.00 Ry     beta=0.70
     Davidson diagonalization with overlap
     ethr =  1.00E-02,  avg # of iterations =  7.0

     negative rho (up, down):  9.951E-01 0.000E+00

     total cpu time spent up to now is       51.7 secs

     total energy              =      73.49492670 Ry
     Harris-Foulkes estimate   =   -1973.06951630 Ry
     estimated scf accuracy    <      23.82632844 Ry

     iteration # 83     ecut=    30.00 Ry     beta=0.70
     Davidson diagonalization with overlap
     ethr =  1.00E-02,  avg # of iterations =  7.0

     negative rho (up, down):  1.038E-01 0.000E+00

     total cpu time spent up to now is       51.8 secs

     total energy              =      76.71476154 Ry
     Harris-Foulkes estimate   =   -1189.81784851 Ry
     estimated scf accuracy    <      26.25650135 Ry

     iteration # 84     ecut=    30.00 Ry     beta=0.70
     Davidson diagonalization with overlap
     ethr =  1.00E-02,  avg # of iterations =  7.0

     negative rho (up, down):  2.052E-01 0.000E+00

     total cpu time spent up to now is       51.8 secs

     total energy              =    -306.37705178 Ry
     Harris-Foulkes estimate   =    -881.75728039 Ry
     estimated scf accuracy    <      19.02871293 Ry

     iteration # 85     ecut=    30.00 Ry     beta=0.70
     Davidson diagonalization with overlap
     ethr =  1.00E-02,  avg # of iterations =  8.0

     negative rho (up, down):  3.761E-01 0.000E+00

     total cpu time spent up to now is       51.9 secs

     total energy              =      -7.83215171 Ry
     Harris-Foulkes estimate   =   -4693.79182221 Ry
     estimated scf accuracy    <      28.87698710 Ry

     iteration # 86     ecut=    30.00 Ry     beta=0.70
     Davidson diagonalization with overlap
     ethr =  1.00E-02,  avg # of iterations =  6.0

     negative rho (up, down):  2.399E-01 0.000E+00

     total cpu time spent up to now is       51.9 secs

     total energy              =     -85.54441719 Ry
     Harris-Foulkes estimate   =   -2961.76852178 Ry
     estimated scf accuracy    <      25.11498317 Ry

     iteration # 87     ecut=    30.00 Ry     beta=0.70
     Davidson diagonalization with overlap
     ethr =  1.00E-02,  avg # of iterations =  7.0

     negative rho (up, down):  1.593E-01 0.000E+00

     total cpu time spent up to now is       52.0 secs

     total energy              =   66839.40416265 Ry
     Harris-Foulkes estimate   =   -3930.19420090 Ry
     estimated scf accuracy    <      19.37101817 Ry

     iteration # 88     ecut=    30.00 Ry     beta=0.70
     Davidson diagonalization with overlap
     ethr =  1.00E-02,  avg # of iterations =  9.0

     negative rho (up, down):  2.562E-02 0.000E+00

     total cpu time spent up to now is       52.0 secs

     total energy              =     119.90526620 Ry
     Harris-Foulkes estimate   =   -2873.05846446 Ry
     estimated scf accuracy    <      13.81738411 Ry

     iteration # 89     ecut=    30.00 Ry     beta=0.70
     Davidson diagonalization with overlap
     ethr =  1.00E-02,  avg # of iterations = 11.0

     negative rho (up, down):  1.873E-05 0.000E+00

     total cpu time spent up to now is       52.1 secs

     total energy              =     -16.53405466 Ry
     Harris-Foulkes estimate   =     -49.56444613 Ry
     estimated scf accuracy    <      19.58695240 Ry

     iteration # 90     ecut=    30.00 Ry     beta=0.70
     Davidson diagonalization with overlap
     ethr =  1.00E-02,  avg # of iterations =  5.0

     negative rho (up, down):  4.532E-05 0.000E+00

     total cpu time spent up to now is       52.1 secs

     total energy              =     -39.62888882 Ry
     Harris-Foulkes estimate   =     -41.45582148 Ry
     estimated scf accuracy    <      21.09272190 Ry

     iteration # 91     ecut=    30.00 Ry     beta=0.70
     Davidson diagonalization with overlap
     ethr =  1.00E-02,  avg # of iterations =  1.0

     negative rho (up, down):  3.369E-03 0.000E+00

     total cpu time spent up to now is       52.2 secs

     total energy              =     -38.98461135 Ry
     Harris-Foulkes estimate   =     -39.95435792 Ry
     estimated scf accuracy    <      14.27134150 Ry

     iteration # 92     ecut=    30.00 Ry     beta=0.70
     Davidson diagonalization with overlap
     ethr =  1.00E-02,  avg # of iterations =  1.0

     negative rho (up, down):  3.189E-01 0.000E+00

     total cpu time spent up to now is       52.2 secs

     total energy              =     -38.26292751 Ry
     Harris-Foulkes estimate   =     -39.32657022 Ry
     estimated scf accuracy    <      17.18144985 Ry

     iteration # 93     ecut=    30.00 Ry     beta=0.70
     Davidson diagonalization with overlap
     ethr =  1.00E-02,  avg # of iterations =  4.0

     negative rho (up, down):  2.521E-04 0.000E+00

     total cpu time spent up to now is       52.3 secs

     total energy              =      60.52242069 Ry
     Harris-Foulkes estimate   =    -424.37460382 Ry
     estimated scf accuracy    <      20.28258276 Ry

     iteration # 94     ecut=    30.00 Ry     beta=0.70
     Davidson diagonalization with overlap
     ethr =  1.00E-02,  avg # of iterations =  7.0

     negative rho (up, down):  5.061E-02 0.000E+00

     total cpu time spent up to now is       52.3 secs

     total energy              =     -43.72917488 Ry
     Harris-Foulkes estimate   =     -39.94509378 Ry
     estimated scf accuracy    <      18.14873035 Ry

     iteration # 95     ecut=    30.00 Ry     beta=0.70
     Davidson diagonalization with overlap
     ethr =  1.00E-02,  avg # of iterations =  5.0

     negative rho (up, down):  8.054E-04 0.000E+00

     total cpu time spent up to now is       52.4 secs

     total energy              =      28.81144900 Ry
     Harris-Foulkes estimate   =    -195.61400205 Ry
     estimated scf accuracy    <      20.97086113 Ry

     iteration # 96     ecut=    30.00 Ry     beta=0.70
     Davidson diagonalization with overlap
     ethr =  1.00E-02,  avg # of iterations =  6.0

     negative rho (up, down):  2.698E-02 0.000E+00

     total cpu time spent up to now is       52.4 secs

     total energy              =     -48.71122237 Ry
     Harris-Foulkes estimate   =     -42.51368321 Ry
     estimated scf accuracy    <      22.43649320 Ry

     iteration # 97     ecut=    30.00 Ry     beta=0.70
     Davidson diagonalization with overlap
     ethr =  1.00E-02,  avg # of iterations =  7.0

     negative rho (up, down):  2.107E-01 0.000E+00

     total cpu time spent up to now is       52.5 secs

     total energy              =      50.21996175 Ry
     Harris-Foulkes estimate   =    -166.00632538 Ry
     estimated scf accuracy    <      27.88842389 Ry

     iteration # 98     ecut=    30.00 Ry     beta=0.70
     Davidson diagonalization with overlap
     ethr =  1.00E-02,  avg # of iterations =  7.0

     negative rho (up, down):  1.345E-03 0.000E+00

     total cpu time spent up to now is       52.5 secs

     total energy              =      70.09052762 Ry
     Harris-Foulkes estimate   =    -179.26893933 Ry
     estimated scf accuracy    <      28.51967377 Ry

     iteration # 99     ecut=    30.00 Ry     beta=0.70
     Davidson diagonalization with overlap
     ethr =  1.00E-02,  avg # of iterations = 13.0

     negative rho (up, down):  3.744E-02 0.000E+00

     total cpu time spent up to now is       52.6 secs

     total energy              =     -37.45240112 Ry
     Harris-Foulkes estimate   =     -40.83560207 Ry
     estimated scf accuracy    <      14.94511612 Ry

     iteration #100     ecut=    30.00 Ry     beta=0.70
     Davidson diagonalization with overlap
     ethr =  1.00E-02,  avg # of iterations =  5.0

     negative rho (up, down):  6.422E-03 0.000E+00

     total cpu time spent up to now is       52.6 secs

     total energy              =      59.31412475 Ry
     Harris-Foulkes estimate   =    -209.90707601 Ry
     estimated scf accuracy    <      18.35272440 Ry

     End of self-consistent calculation

     convergence NOT achieved after 100 iterations: stopping

     Writing output data file pwscf.save
 
     init_run     :      0.09s CPU      0.12s WALL (       1 calls)
     electrons    :     31.90s CPU     42.52s WALL (      36 calls)
     update_pot   :      4.56s CPU      6.78s WALL (      35 calls)
     forces       :      1.00s CPU      1.11s WALL (      35 calls)

     Called by init_run:
     wfcinit      :      0.01s CPU      0.03s WALL (       1 calls)
     potinit      :      0.02s CPU      0.03s WALL (       1 calls)

     Called by electrons:
     c_bands      :     13.54s CPU     14.76s WALL (    1019 calls)
     sum_band     :      2.99s CPU      3.24s WALL (    1019 calls)
     v_of_rho     :      7.51s CPU      8.31s WALL (    1055 calls)
     mix_rho      :      6.57s CPU     11.72s WALL (    1019 calls)

     Called by c_bands:
     init_us_2    :      0.09s CPU      0.12s WALL (    2039 calls)
     cegterg      :     13.30s CPU     14.18s WALL (    1019 calls)

     Called by sum_band:

     Called by *egterg:
     h_psi        :     11.15s CPU     11.80s WALL (    3953 calls)
     g_psi        :      0.10s CPU      0.10s WALL (    2933 calls)
     cdiaghg      :      0.84s CPU      0.95s WALL (    3917 calls)

     Called by h_psi:
     h_psi:pot    :     11.08s CPU     11.74s WALL (    3953 calls)
     h_psi:calbec :      0.24s CPU      0.33s WALL (    3953 calls)
     vloc_psi     :     10.79s CPU     11.35s WALL (    3953 calls)
     add_vuspsi   :      0.03s CPU      0.04s WALL (    3953 calls)

     General routines
     calbec       :      0.55s CPU      0.78s WALL (    4127 calls)
     fft          :      5.48s CPU      5.91s WALL (   11675 calls)
     fftw         :     11.59s CPU     12.30s WALL (   51582 calls)
     davcio       :      1.04s CPU      4.31s WALL (   17189 calls)
 
     Parallel routines
     fft_scatter  :      7.36s CPU      8.19s WALL (   63257 calls)
 
     PWSCF        :    38.50s CPU        52.72s WALL

 
   This run was terminated on:   0:48: 3  11Feb2018            

=------------------------------------------------------------------------------=
   JOB DONE.
=------------------------------------------------------------------------------=
