
     Program PWSCF v.6.0 (svn rev. 13079) starts on 11Feb2018 at  0:55:22 

     This program is part of the open-source Quantum ESPRESSO suite
     for quantum simulation of materials; please cite
         "P. Giannozzi et al., J. Phys.:Condens. Matter 21 395502 (2009);
          URL http://www.quantum-espresso.org", 
     in publications or presentations arising from this work. More details at
     http://www.quantum-espresso.org/quote

     Parallel version (MPI), running on    28 processors
     R & G space division:  proc/nbgrp/npool/nimage =      28
     Reading input from inputs/water-1-md/254.in

     Current dimensions of program PWSCF are:
     Max number of different atomic species (ntypx) = 10
     Max number of k-points (npk) =  40000
     Max angular momentum in pseudopotentials (lmaxx) =  3

     Subspace diagonalization in iterative solution of the eigenvalue problem:
     a serial algorithm will be used

 
     Parallelization info
     --------------------
     sticks:   dense  smooth     PW     G-vecs:    dense   smooth      PW
     Min         136     136     33                 6338     6338     787
     Max         137     137     34                 6341     6341     792
     Sum        3809    3809    949               177509   177509   22119
 


     bravais-lattice index     =            1
     lattice parameter (alat)  =      20.0000  a.u.
     unit-cell volume          =    8000.0000 (a.u.)^3
     number of atoms/cell      =            3
     number of atomic types    =            2
     number of electrons       =         8.00
     number of Kohn-Sham states=            8
     kinetic-energy cutoff     =      30.0000  Ry
     charge density cutoff     =     120.0000  Ry
     convergence threshold     =      1.0E-08
     mixing beta               =       0.7000
     number of iterations used =            8  plain     mixing
     Exchange-correlation      = BLYP ( 1  3  1  3 0 0)
     nstep                     =         5000


     celldm(1)=  20.000000  celldm(2)=   0.000000  celldm(3)=   0.000000
     celldm(4)=   0.000000  celldm(5)=   0.000000  celldm(6)=   0.000000

     crystal axes: (cart. coord. in units of alat)
               a(1) = (   1.000000   0.000000   0.000000 )  
               a(2) = (   0.000000   1.000000   0.000000 )  
               a(3) = (   0.000000   0.000000   1.000000 )  

     reciprocal axes: (cart. coord. in units 2 pi/alat)
               b(1) = (  1.000000  0.000000  0.000000 )  
               b(2) = (  0.000000  1.000000  0.000000 )  
               b(3) = (  0.000000  0.000000  1.000000 )  


     PseudoPot. # 1 for  H read from file:
     ./H.blyp-hgh.UPF
     MD5 check sum: c576e69559cde411e611be972c763230
     Pseudo is Norm-conserving, Zval =  1.0
     Generated in analytical, separable form
     Using radial grid of  929 points,  0 beta functions with: 

     PseudoPot. # 2 for  O read from file:
     ./O.blyp-hgh.UPF
     MD5 check sum: d0b7156309aa9befef28faac7bc56342
     Pseudo is Norm-conserving, Zval =  6.0
     Generated in analytical, separable form
     Using radial grid of 1095 points,  1 beta functions with: 
                l(1) =   0

     atomic species   valence    mass     pseudopotential
        H              1.00     1.01000      H( 1.00)
        O              6.00    16.00000      O( 1.00)

     No symmetry found



   Cartesian axes

     site n.     atom                  positions (alat units)
         1           H   tau(   1) = (   0.8013444   0.6543638   0.2488653  )
         2           H   tau(   2) = (   0.6025002   0.4751930   0.5702691  )
         3           O   tau(   3) = (   0.9822912   0.2245040   0.7471389  )

     number of k points=     1  Marzari-Vanderbilt smearing, width (Ry)=  0.0250
                       cart. coord. in units 2pi/alat
        k(    1) = (   0.0000000   0.0000000   0.0000000), wk =   2.0000000

     Dense  grid:   177509 G-vectors     FFT dimensions: (  72,  72,  72)

     Estimated max dynamical RAM per process >       6.09Mb

     Estimated total allocated dynamical RAM >     170.64Mb

     Initial potential from superposition of free atoms
     Check: negative starting charge=   -0.351105

     starting charge    7.99998, renormalised to    8.00000

     negative rho (up, down):  3.511E-01 0.000E+00
     Starting wfc are    6 randomized atomic wfcs +    2 random wfc

     total cpu time spent up to now is        0.2 secs

     per-process dynamical memory:    18.8 Mb

     Self-consistent Calculation

     iteration #  1     ecut=    30.00 Ry     beta=0.70
     Davidson diagonalization with overlap
     ethr =  1.00E-02,  avg # of iterations =  7.0

     negative rho (up, down):  8.537E-02 0.000E+00

     total cpu time spent up to now is        0.3 secs

     total energy              =     -28.02704900 Ry
     Harris-Foulkes estimate   =     -32.08364781 Ry
     estimated scf accuracy    <       4.64917954 Ry

     iteration #  2     ecut=    30.00 Ry     beta=0.70
     Davidson diagonalization with overlap
     ethr =  1.00E-02,  avg # of iterations =  4.0

     negative rho (up, down):  6.253E-02 0.000E+00

     total cpu time spent up to now is        0.3 secs

     total energy              =     -32.68185095 Ry
     Harris-Foulkes estimate   =     -38.04915078 Ry
     estimated scf accuracy    <      13.06358556 Ry

     iteration #  3     ecut=    30.00 Ry     beta=0.70
     Davidson diagonalization with overlap
     ethr =  1.00E-02,  avg # of iterations =  2.0

     negative rho (up, down):  6.449E-02 0.000E+00

     total cpu time spent up to now is        0.3 secs

     total energy              =     -33.23170121 Ry
     Harris-Foulkes estimate   =     -33.02115478 Ry
     estimated scf accuracy    <       5.08065012 Ry

     iteration #  4     ecut=    30.00 Ry     beta=0.70
     Davidson diagonalization with overlap
     ethr =  1.00E-02,  avg # of iterations =  1.0

     negative rho (up, down):  2.580E-02 0.000E+00

     total cpu time spent up to now is        0.4 secs

     total energy              =     -30.17468653 Ry
     Harris-Foulkes estimate   =     -33.23225281 Ry
     estimated scf accuracy    <       5.38860495 Ry

     iteration #  5     ecut=    30.00 Ry     beta=0.70
     Davidson diagonalization with overlap
     ethr =  1.00E-02,  avg # of iterations =  6.0

     negative rho (up, down):  2.398E-02 0.000E+00

     total cpu time spent up to now is        0.4 secs

     total energy              =     -33.30008006 Ry
     Harris-Foulkes estimate   =     -33.33557923 Ry
     estimated scf accuracy    <      13.88414310 Ry

     iteration #  6     ecut=    30.00 Ry     beta=0.70
     Davidson diagonalization with overlap
     ethr =  1.00E-02,  avg # of iterations =  1.0

     negative rho (up, down):  4.167E-02 0.000E+00

     total cpu time spent up to now is        0.4 secs

     total energy              =     -33.19615125 Ry
     Harris-Foulkes estimate   =     -33.30442802 Ry
     estimated scf accuracy    <      13.79120834 Ry

     iteration #  7     ecut=    30.00 Ry     beta=0.70
     Davidson diagonalization with overlap
     ethr =  1.00E-02,  avg # of iterations =  1.0

     negative rho (up, down):  5.404E-02 0.000E+00

     total cpu time spent up to now is        0.5 secs

     total energy              =     -32.46944238 Ry
     Harris-Foulkes estimate   =     -33.20276142 Ry
     estimated scf accuracy    <      12.12609740 Ry

     iteration #  8     ecut=    30.00 Ry     beta=0.70
     Davidson diagonalization with overlap
     ethr =  1.00E-02,  avg # of iterations =  1.0

     negative rho (up, down):  4.582E-04 0.000E+00

     total cpu time spent up to now is        0.5 secs

     total energy              =     -32.43525242 Ry
     Harris-Foulkes estimate   =     -32.66411773 Ry
     estimated scf accuracy    <       5.59025766 Ry

     iteration #  9     ecut=    30.00 Ry     beta=0.70
     Davidson diagonalization with overlap
     ethr =  1.00E-02,  avg # of iterations =  1.0

     negative rho (up, down):  2.214E-02 0.000E+00

     total cpu time spent up to now is        0.5 secs

     total energy              =     -31.86117433 Ry
     Harris-Foulkes estimate   =     -32.43954176 Ry
     estimated scf accuracy    <       5.20279070 Ry

     iteration # 10     ecut=    30.00 Ry     beta=0.70
     Davidson diagonalization with overlap
     ethr =  1.00E-02,  avg # of iterations =  1.0

     negative rho (up, down):  4.155E-02 0.000E+00

     total cpu time spent up to now is        0.6 secs

     total energy              =     -31.63313433 Ry
     Harris-Foulkes estimate   =     -31.87318101 Ry
     estimated scf accuracy    <       4.23851375 Ry

     iteration # 11     ecut=    30.00 Ry     beta=0.70
     Davidson diagonalization with overlap
     ethr =  1.00E-02,  avg # of iterations =  1.0

     negative rho (up, down):  2.810E-02 0.000E+00

     total cpu time spent up to now is        0.6 secs

     total energy              =     -32.08538186 Ry
     Harris-Foulkes estimate   =     -31.63567519 Ry
     estimated scf accuracy    <       3.92434335 Ry

     iteration # 12     ecut=    30.00 Ry     beta=0.70
     Davidson diagonalization with overlap
     ethr =  1.00E-02,  avg # of iterations =  1.0

     negative rho (up, down):  1.549E-01 0.000E+00

     total cpu time spent up to now is        0.6 secs

     total energy              =     -30.60614809 Ry
     Harris-Foulkes estimate   =     -32.08803932 Ry
     estimated scf accuracy    <       4.56247410 Ry

     iteration # 13     ecut=    30.00 Ry     beta=0.70
     Davidson diagonalization with overlap
     ethr =  1.00E-02,  avg # of iterations =  2.0

     negative rho (up, down):  2.246E-01 0.000E+00

     total cpu time spent up to now is        0.7 secs

     total energy              =     -32.39488767 Ry
     Harris-Foulkes estimate   =     -32.28215171 Ry
     estimated scf accuracy    <       3.94488933 Ry

     iteration # 14     ecut=    30.00 Ry     beta=0.70
     Davidson diagonalization with overlap
     ethr =  1.00E-02,  avg # of iterations =  1.0

     negative rho (up, down):  7.396E-03 0.000E+00

     total cpu time spent up to now is        0.7 secs

     total energy              =     -31.02738992 Ry
     Harris-Foulkes estimate   =     -32.40810361 Ry
     estimated scf accuracy    <       4.15049057 Ry

     iteration # 15     ecut=    30.00 Ry     beta=0.70
     Davidson diagonalization with overlap
     ethr =  1.00E-02,  avg # of iterations =  1.0

     negative rho (up, down):  1.969E-03 0.000E+00

     total cpu time spent up to now is        0.7 secs

     total energy              =     -32.23970850 Ry
     Harris-Foulkes estimate   =     -31.95583719 Ry
     estimated scf accuracy    <       4.33369697 Ry

     iteration # 16     ecut=    30.00 Ry     beta=0.70
     Davidson diagonalization with overlap
     ethr =  1.00E-02,  avg # of iterations =  1.0

     negative rho (up, down):  5.392E-03 0.000E+00

     total cpu time spent up to now is        0.8 secs

     total energy              =     -31.24777311 Ry
     Harris-Foulkes estimate   =     -32.24506685 Ry
     estimated scf accuracy    <       4.79958991 Ry

     iteration # 17     ecut=    30.00 Ry     beta=0.70
     Davidson diagonalization with overlap
     ethr =  1.00E-02,  avg # of iterations =  1.0

     negative rho (up, down):  5.162E-03 0.000E+00

     total cpu time spent up to now is        0.8 secs

     total energy              =     -31.35427849 Ry
     Harris-Foulkes estimate   =     -31.63288312 Ry
     estimated scf accuracy    <       2.88095387 Ry

     iteration # 18     ecut=    30.00 Ry     beta=0.70
     Davidson diagonalization with overlap
     ethr =  1.00E-02,  avg # of iterations =  1.0

     negative rho (up, down):  4.967E-03 0.000E+00

     total cpu time spent up to now is        0.8 secs

     total energy              =     -31.49073328 Ry
     Harris-Foulkes estimate   =     -31.58356896 Ry
     estimated scf accuracy    <       4.63199165 Ry

     iteration # 19     ecut=    30.00 Ry     beta=0.70
     Davidson diagonalization with overlap
     ethr =  1.00E-02,  avg # of iterations =  1.0

     negative rho (up, down):  5.315E-03 0.000E+00

     total cpu time spent up to now is        0.9 secs

     total energy              =     -31.46844064 Ry
     Harris-Foulkes estimate   =     -31.50348783 Ry
     estimated scf accuracy    <       1.24551509 Ry

     iteration # 20     ecut=    30.00 Ry     beta=0.70
     Davidson diagonalization with overlap
     ethr =  1.00E-02,  avg # of iterations =  1.0

     negative rho (up, down):  5.050E-03 0.000E+00

     total cpu time spent up to now is        0.9 secs

     total energy              =     -31.48924908 Ry
     Harris-Foulkes estimate   =     -31.49560736 Ry
     estimated scf accuracy    <       0.37034843 Ry

     iteration # 21     ecut=    30.00 Ry     beta=0.70
     Davidson diagonalization with overlap
     ethr =  4.63E-03,  avg # of iterations =  1.0

     negative rho (up, down):  4.756E-03 0.000E+00

     total cpu time spent up to now is        0.9 secs

     total energy              =     -31.48796675 Ry
     Harris-Foulkes estimate   =     -31.49199401 Ry
     estimated scf accuracy    <       0.04264346 Ry

     iteration # 22     ecut=    30.00 Ry     beta=0.70
     Davidson diagonalization with overlap
     ethr =  5.33E-04,  avg # of iterations =  1.0

     negative rho (up, down):  4.207E-03 0.000E+00

     total cpu time spent up to now is        1.0 secs

     total energy              =     -31.68254455 Ry
     Harris-Foulkes estimate   =     -31.61586870 Ry
     estimated scf accuracy    <       4.06478652 Ry

     iteration # 23     ecut=    30.00 Ry     beta=0.70
     Davidson diagonalization with overlap
     ethr =  5.33E-04,  avg # of iterations =  1.0

     negative rho (up, down):  5.642E-03 0.000E+00

     total cpu time spent up to now is        1.0 secs

     total energy              =     -31.92665754 Ry
     Harris-Foulkes estimate   =     -31.68104854 Ry
     estimated scf accuracy    <       3.91294318 Ry

     iteration # 24     ecut=    30.00 Ry     beta=0.70
     Davidson diagonalization with overlap
     ethr =  5.33E-04,  avg # of iterations =  1.0

     negative rho (up, down):  1.288E-03 0.000E+00

     total cpu time spent up to now is        1.0 secs

     total energy              =     -31.79052014 Ry
     Harris-Foulkes estimate   =     -31.92795617 Ry
     estimated scf accuracy    <       4.28894130 Ry

     iteration # 25     ecut=    30.00 Ry     beta=0.70
     Davidson diagonalization with overlap
     ethr =  5.33E-04,  avg # of iterations =  1.0

     negative rho (up, down):  5.777E-04 0.000E+00

     total cpu time spent up to now is        1.1 secs

     total energy              =     -31.74440687 Ry
     Harris-Foulkes estimate   =     -31.79106120 Ry
     estimated scf accuracy    <       4.07590339 Ry

     iteration # 26     ecut=    30.00 Ry     beta=0.70
     Davidson diagonalization with overlap
     ethr =  5.33E-04,  avg # of iterations =  1.0

     negative rho (up, down):  2.197E-04 0.000E+00

     total cpu time spent up to now is        1.1 secs

     total energy              =     -31.67827283 Ry
     Harris-Foulkes estimate   =     -31.74453138 Ry
     estimated scf accuracy    <       3.99858429 Ry

     iteration # 27     ecut=    30.00 Ry     beta=0.70
     Davidson diagonalization with overlap
     ethr =  5.33E-04,  avg # of iterations =  1.0

     negative rho (up, down):  2.818E-04 0.000E+00

     total cpu time spent up to now is        1.1 secs

     total energy              =     -31.66372594 Ry
     Harris-Foulkes estimate   =     -31.67840790 Ry
     estimated scf accuracy    <       3.89786453 Ry

     iteration # 28     ecut=    30.00 Ry     beta=0.70
     Davidson diagonalization with overlap
     ethr =  5.33E-04,  avg # of iterations =  1.0

     negative rho (up, down):  2.863E-04 0.000E+00

     total cpu time spent up to now is        1.2 secs

     total energy              =     -31.66636469 Ry
     Harris-Foulkes estimate   =     -31.66373990 Ry
     estimated scf accuracy    <       3.88182664 Ry

     iteration # 29     ecut=    30.00 Ry     beta=0.70
     Davidson diagonalization with overlap
     ethr =  5.33E-04,  avg # of iterations =  1.0

     negative rho (up, down):  4.363E-02 0.000E+00

     total cpu time spent up to now is        1.2 secs

     total energy              =     -29.54663574 Ry
     Harris-Foulkes estimate   =     -31.66636605 Ry
     estimated scf accuracy    <       3.88208663 Ry

     iteration # 30     ecut=    30.00 Ry     beta=0.70
     Davidson diagonalization with overlap
     ethr =  5.33E-04,  avg # of iterations =  4.0

     negative rho (up, down):  1.121E-02 0.000E+00

     total cpu time spent up to now is        1.2 secs

     total energy              =     -33.09231757 Ry
     Harris-Foulkes estimate   =     -34.11995053 Ry
     estimated scf accuracy    <       6.76075886 Ry

     iteration # 31     ecut=    30.00 Ry     beta=0.70
     Davidson diagonalization with overlap
     ethr =  5.33E-04,  avg # of iterations =  3.0

     negative rho (up, down):  1.075E-03 0.000E+00

     total cpu time spent up to now is        1.3 secs

     total energy              =     -32.16198832 Ry
     Harris-Foulkes estimate   =     -33.11086046 Ry
     estimated scf accuracy    <       5.19992888 Ry

     iteration # 32     ecut=    30.00 Ry     beta=0.70
     Davidson diagonalization with overlap
     ethr =  5.33E-04,  avg # of iterations =  3.0

     negative rho (up, down):  5.108E-05 0.000E+00

     total cpu time spent up to now is        1.3 secs

     total energy              =     -31.42624459 Ry
     Harris-Foulkes estimate   =     -32.16641120 Ry
     estimated scf accuracy    <       3.76233429 Ry

     iteration # 33     ecut=    30.00 Ry     beta=0.70
     Davidson diagonalization with overlap
     ethr =  5.33E-04,  avg # of iterations =  4.0

     negative rho (up, down):  2.651E-04 0.000E+00

     total cpu time spent up to now is        1.4 secs

     total energy              =     -31.48845222 Ry
     Harris-Foulkes estimate   =     -31.49436621 Ry
     estimated scf accuracy    <       0.38694377 Ry

     iteration # 34     ecut=    30.00 Ry     beta=0.70
     Davidson diagonalization with overlap
     ethr =  5.33E-04,  avg # of iterations =  1.0

     negative rho (up, down):  3.190E-05 0.000E+00

     total cpu time spent up to now is        1.4 secs

     total energy              =     -31.48341365 Ry
     Harris-Foulkes estimate   =     -31.49091567 Ry
     estimated scf accuracy    <       0.01371260 Ry

     iteration # 35     ecut=    30.00 Ry     beta=0.70
     Davidson diagonalization with overlap
     ethr =  1.71E-04,  avg # of iterations =  1.0

     negative rho (up, down):  1.847E-06 0.000E+00

     total cpu time spent up to now is        1.4 secs

     total energy              =     -31.56527306 Ry
     Harris-Foulkes estimate   =     -31.61464210 Ry
     estimated scf accuracy    <       2.88171877 Ry

     iteration # 36     ecut=    30.00 Ry     beta=0.70
     Davidson diagonalization with overlap
     ethr =  1.71E-04,  avg # of iterations =  1.0

     negative rho (up, down):  7.020E-06 0.000E+00

     total cpu time spent up to now is        1.5 secs

     total energy              =     -31.64586974 Ry
     Harris-Foulkes estimate   =     -31.56536854 Ry
     estimated scf accuracy    <       2.78989826 Ry

     iteration # 37     ecut=    30.00 Ry     beta=0.70
     Davidson diagonalization with overlap
     ethr =  1.71E-04,  avg # of iterations =  1.0

     negative rho (up, down):  5.200E-06 0.000E+00

     total cpu time spent up to now is        1.5 secs

     total energy              =     -31.60446978 Ry
     Harris-Foulkes estimate   =     -31.64635437 Ry
     estimated scf accuracy    <       2.94139628 Ry

     iteration # 38     ecut=    30.00 Ry     beta=0.70
     Davidson diagonalization with overlap
     ethr =  1.71E-04,  avg # of iterations =  1.0

     negative rho (up, down):  2.360E-05 0.000E+00

     total cpu time spent up to now is        1.5 secs

     total energy              =     -31.35721616 Ry
     Harris-Foulkes estimate   =     -31.60451056 Ry
     estimated scf accuracy    <       2.87985450 Ry

     iteration # 39     ecut=    30.00 Ry     beta=0.70
     Davidson diagonalization with overlap
     ethr =  1.71E-04,  avg # of iterations =  6.0

     negative rho (up, down):  1.556E-06 0.000E+00

     total cpu time spent up to now is        1.6 secs

     total energy              =     -31.68685642 Ry
     Harris-Foulkes estimate   =     -31.58052244 Ry
     estimated scf accuracy    <       4.72711565 Ry

     iteration # 40     ecut=    30.00 Ry     beta=0.70
     Davidson diagonalization with overlap
     ethr =  1.71E-04,  avg # of iterations =  1.0

     negative rho (up, down):  8.707E-07 0.000E+00

     total cpu time spent up to now is        1.6 secs

     total energy              =     -31.59696031 Ry
     Harris-Foulkes estimate   =     -31.67855378 Ry
     estimated scf accuracy    <       3.90252385 Ry

     iteration # 41     ecut=    30.00 Ry     beta=0.70
     Davidson diagonalization with overlap
     ethr =  1.71E-04,  avg # of iterations =  1.0

     negative rho (up, down):  2.121E-08 0.000E+00

     total cpu time spent up to now is        1.6 secs

     total energy              =     -31.31694573 Ry
     Harris-Foulkes estimate   =     -31.59561861 Ry
     estimated scf accuracy    <       4.40703032 Ry

     iteration # 42     ecut=    30.00 Ry     beta=0.70
     Davidson diagonalization with overlap
     ethr =  1.71E-04,  avg # of iterations =  3.0

     negative rho (up, down):  1.181E-06 0.000E+00

     total cpu time spent up to now is        1.7 secs

     total energy              =     -31.25888597 Ry
     Harris-Foulkes estimate   =     -31.56807522 Ry
     estimated scf accuracy    <       2.79846851 Ry

     iteration # 43     ecut=    30.00 Ry     beta=0.70
     Davidson diagonalization with overlap
     ethr =  1.71E-04,  avg # of iterations =  3.0

     total cpu time spent up to now is        1.7 secs

     total energy              =     -31.54346113 Ry
     Harris-Foulkes estimate   =     -31.70763147 Ry
     estimated scf accuracy    <       3.94107629 Ry

     iteration # 44     ecut=    30.00 Ry     beta=0.70
     Davidson diagonalization with overlap
     ethr =  1.71E-04,  avg # of iterations =  1.0

     total cpu time spent up to now is        1.7 secs

     total energy              =     -31.46493941 Ry
     Harris-Foulkes estimate   =     -31.53645280 Ry
     estimated scf accuracy    <       4.06067166 Ry

     iteration # 45     ecut=    30.00 Ry     beta=0.70
     Davidson diagonalization with overlap
     ethr =  1.71E-04,  avg # of iterations =  1.0

     total cpu time spent up to now is        1.8 secs

     total energy              =     -31.49272287 Ry
     Harris-Foulkes estimate   =     -31.49162514 Ry
     estimated scf accuracy    <       0.11178325 Ry

     iteration # 46     ecut=    30.00 Ry     beta=0.70
     Davidson diagonalization with overlap
     ethr =  1.71E-04,  avg # of iterations =  1.0

     total cpu time spent up to now is        1.8 secs

     total energy              =     -31.49025567 Ry
     Harris-Foulkes estimate   =     -31.49302898 Ry
     estimated scf accuracy    <       0.26908212 Ry

     iteration # 47     ecut=    30.00 Ry     beta=0.70
     Davidson diagonalization with overlap
     ethr =  1.71E-04,  avg # of iterations =  1.0

     total cpu time spent up to now is        1.8 secs

     total energy              =     -31.49118510 Ry
     Harris-Foulkes estimate   =     -31.49106139 Ry
     estimated scf accuracy    <       0.04798730 Ry

     iteration # 48     ecut=    30.00 Ry     beta=0.70
     Davidson diagonalization with overlap
     ethr =  1.71E-04,  avg # of iterations =  1.0

     total cpu time spent up to now is        1.9 secs

     total energy              =     -31.49155347 Ry
     Harris-Foulkes estimate   =     -31.49119473 Ry
     estimated scf accuracy    <       0.06314878 Ry

     iteration # 49     ecut=    30.00 Ry     beta=0.70
     Davidson diagonalization with overlap
     ethr =  1.71E-04,  avg # of iterations =  1.0

     total cpu time spent up to now is        1.9 secs

     total energy              =     -31.49011029 Ry
     Harris-Foulkes estimate   =     -31.49161150 Ry
     estimated scf accuracy    <       0.10999270 Ry

     iteration # 50     ecut=    30.00 Ry     beta=0.70
     Davidson diagonalization with overlap
     ethr =  1.71E-04,  avg # of iterations =  1.0

     total cpu time spent up to now is        1.9 secs

     total energy              =     -31.49056643 Ry
     Harris-Foulkes estimate   =     -31.49068052 Ry
     estimated scf accuracy    <       0.00666767 Ry

     iteration # 51     ecut=    30.00 Ry     beta=0.70
     Davidson diagonalization with overlap
     ethr =  8.33E-05,  avg # of iterations =  1.0

     total cpu time spent up to now is        2.0 secs

     total energy              =     -31.49090343 Ry
     Harris-Foulkes estimate   =     -31.49061877 Ry
     estimated scf accuracy    <       0.00033165 Ry

     iteration # 52     ecut=    30.00 Ry     beta=0.70
     Davidson diagonalization with overlap
     ethr =  4.15E-06,  avg # of iterations =  7.0

     negative rho (up, down):  8.485E-08 0.000E+00

     total cpu time spent up to now is        2.0 secs

     total energy              =     -31.44508523 Ry
     Harris-Foulkes estimate   =     -31.51634250 Ry
     estimated scf accuracy    <       2.62903013 Ry

     iteration # 53     ecut=    30.00 Ry     beta=0.70
     Davidson diagonalization with overlap
     ethr =  4.15E-06,  avg # of iterations =  4.0

     total cpu time spent up to now is        2.1 secs

     total energy              =     -31.48624269 Ry
     Harris-Foulkes estimate   =     -31.49561445 Ry
     estimated scf accuracy    <       0.47168219 Ry

     iteration # 54     ecut=    30.00 Ry     beta=0.70
     Davidson diagonalization with overlap
     ethr =  4.15E-06,  avg # of iterations =  2.0

     total cpu time spent up to now is        2.1 secs

     total energy              =     -31.49056878 Ry
     Harris-Foulkes estimate   =     -31.49060772 Ry
     estimated scf accuracy    <       0.00041797 Ry

     iteration # 55     ecut=    30.00 Ry     beta=0.70
     Davidson diagonalization with overlap
     ethr =  4.15E-06,  avg # of iterations =  1.0

     total cpu time spent up to now is        2.2 secs

     total energy              =     -31.49062173 Ry
     Harris-Foulkes estimate   =     -31.49059838 Ry
     estimated scf accuracy    <       0.00145510 Ry

     iteration # 56     ecut=    30.00 Ry     beta=0.70
     Davidson diagonalization with overlap
     ethr =  4.15E-06,  avg # of iterations =  1.0

     total cpu time spent up to now is        2.2 secs

     total energy              =     -31.49063630 Ry
     Harris-Foulkes estimate   =     -31.49063837 Ry
     estimated scf accuracy    <       0.00606228 Ry

     iteration # 57     ecut=    30.00 Ry     beta=0.70
     Davidson diagonalization with overlap
     ethr =  4.15E-06,  avg # of iterations =  1.0

     total cpu time spent up to now is        2.3 secs

     total energy              =     -31.49056289 Ry
     Harris-Foulkes estimate   =     -31.49063717 Ry
     estimated scf accuracy    <       0.00673970 Ry

     iteration # 58     ecut=    30.00 Ry     beta=0.70
     Davidson diagonalization with overlap
     ethr =  4.15E-06,  avg # of iterations =  1.0

     total cpu time spent up to now is        2.3 secs

     total energy              =     -31.49056367 Ry
     Harris-Foulkes estimate   =     -31.49058485 Ry
     estimated scf accuracy    <       0.00114327 Ry

     iteration # 59     ecut=    30.00 Ry     beta=0.70
     Davidson diagonalization with overlap
     ethr =  4.15E-06,  avg # of iterations =  1.0

     total cpu time spent up to now is        2.4 secs

     total energy              =     -31.49057607 Ry
     Harris-Foulkes estimate   =     -31.49057468 Ry
     estimated scf accuracy    <       0.00000417 Ry

     iteration # 60     ecut=    30.00 Ry     beta=0.70
     Davidson diagonalization with overlap
     ethr =  5.22E-08,  avg # of iterations =  1.0

     total cpu time spent up to now is        2.4 secs

     total energy              =     -31.49057689 Ry
     Harris-Foulkes estimate   =     -31.49057670 Ry
     estimated scf accuracy    <       0.00002126 Ry

     iteration # 61     ecut=    30.00 Ry     beta=0.70
     Davidson diagonalization with overlap
     ethr =  5.22E-08,  avg # of iterations =  1.0

     total cpu time spent up to now is        2.5 secs

     total energy              =     -31.49057780 Ry
     Harris-Foulkes estimate   =     -31.49057706 Ry
     estimated scf accuracy    <       0.00000249 Ry

     iteration # 62     ecut=    30.00 Ry     beta=0.70
     Davidson diagonalization with overlap
     ethr =  3.11E-08,  avg # of iterations =  1.0

     total cpu time spent up to now is        2.5 secs

     total energy              =     -31.49057798 Ry
     Harris-Foulkes estimate   =     -31.49057784 Ry
     estimated scf accuracy    <       0.00000021 Ry

     iteration # 63     ecut=    30.00 Ry     beta=0.70
     Davidson diagonalization with overlap
     ethr =  2.68E-09,  avg # of iterations =  1.0

     total cpu time spent up to now is        2.6 secs

     total energy              =     -31.49057801 Ry
     Harris-Foulkes estimate   =     -31.49057799 Ry
     estimated scf accuracy    <       0.00000008 Ry

     iteration # 64     ecut=    30.00 Ry     beta=0.70
     Davidson diagonalization with overlap
     ethr =  9.69E-10,  avg # of iterations =  1.0

     total cpu time spent up to now is        2.6 secs

     End of self-consistent calculation

          k = 0.0000 0.0000 0.0000 ( 22119 PWs)   bands (ev):

   -23.6420  -7.0531  -7.0493  -7.0492  -6.9851  -6.9003  -0.2321   0.6205

     the Fermi energy is    -6.9153 ev

!    total energy              =     -31.49057801 Ry
     Harris-Foulkes estimate   =     -31.49057801 Ry
     estimated scf accuracy    <          3.0E-09 Ry

     convergence has been achieved in  64 iterations

     Forces acting on atoms (Ry/au):

     atom    1 type  1   force =     0.00025701   -0.00062249    0.00086751
     atom    2 type  1   force =     0.00091716   -0.00022735    0.00010543
     atom    3 type  2   force =    -0.00117417    0.00084983   -0.00097294

     Total force =     0.002271     Total SCF correction =     0.000043

     Molecular Dynamics Calculation

     Starting temperature  =  1000.00 K

     temperature is controlled by Andersen thermostat
     Collision frequency = 1.0000/timestep
     mass H                =     1.01
     mass O                =    16.00
     Time step             =   100.00 a.u.,  4.8378 femto-seconds

     Entering Dynamics:    iteration =     1
                           time      =   0.0048 pico-seconds


     Andersen thermostat:    3 collisions

ATOMIC_POSITIONS (bohr)
H       16.259842012  13.360435133   4.783890011
H       12.061516926   9.731639166  11.217058524
O       19.630392025   4.458458270  14.966875304


     kinetic energy (Ekin) =     0.01319564 Ry
     temperature           =   694.47456190 K 
     Ekin + Etot (const)   =   -31.47738237 Ry

     Linear momentum :    0.0000000000    0.0000000000    0.0000000000

     Writing output data file pwscf.save
     Check: negative starting charge=   -0.351105
     NEW-OLD atomic charge density approx. for the potential
     Check: negative starting charge=   -0.351270

     negative rho (up, down):  8.016E-02 0.000E+00

     total cpu time spent up to now is        2.9 secs

     per-process dynamical memory:    20.4 Mb

     Self-consistent Calculation

     iteration #  1     ecut=    30.00 Ry     beta=0.70
     Davidson diagonalization with overlap
     c_bands:  1 eigenvalues not converged
     ethr =  1.00E-06,  avg # of iterations = 20.0

     negative rho (up, down):  1.855E-02 0.000E+00

     total cpu time spent up to now is        3.0 secs

     total energy              =     -31.44583740 Ry
     Harris-Foulkes estimate   =     -31.42893174 Ry
     estimated scf accuracy    <       0.03479674 Ry

     iteration #  2     ecut=    30.00 Ry     beta=0.70
     Davidson diagonalization with overlap
     ethr =  4.35E-04,  avg # of iterations =  2.0

     negative rho (up, down):  1.727E-02 0.000E+00

     total cpu time spent up to now is        3.1 secs

     total energy              =     -31.46525465 Ry
     Harris-Foulkes estimate   =     -31.86926516 Ry
     estimated scf accuracy    <       4.24889167 Ry

     iteration #  3     ecut=    30.00 Ry     beta=0.70
     Davidson diagonalization with overlap
     ethr =  4.35E-04,  avg # of iterations =  2.0

     negative rho (up, down):  1.671E-02 0.000E+00

     total cpu time spent up to now is        3.1 secs

     total energy              =     -31.46195357 Ry
     Harris-Foulkes estimate   =     -31.51401051 Ry
     estimated scf accuracy    <       1.17980775 Ry

     iteration #  4     ecut=    30.00 Ry     beta=0.70
     Davidson diagonalization with overlap
     ethr =  4.35E-04,  avg # of iterations =  1.0

     negative rho (up, down):  6.342E-03 0.000E+00

     total cpu time spent up to now is        3.1 secs

     total energy              =     -31.43717074 Ry
     Harris-Foulkes estimate   =     -31.47858615 Ry
     estimated scf accuracy    <       0.45000468 Ry

     iteration #  5     ecut=    30.00 Ry     beta=0.70
     Davidson diagonalization with overlap
     ethr =  4.35E-04,  avg # of iterations =  1.0

     negative rho (up, down):  2.772E-03 0.000E+00

     total cpu time spent up to now is        3.2 secs

     total energy              =     -31.46376196 Ry
     Harris-Foulkes estimate   =     -31.55949411 Ry
     estimated scf accuracy    <       2.74398432 Ry

     iteration #  6     ecut=    30.00 Ry     beta=0.70
     Davidson diagonalization with overlap
     ethr =  4.35E-04,  avg # of iterations =  1.0

     negative rho (up, down):  6.796E-04 0.000E+00

     total cpu time spent up to now is        3.2 secs

     total energy              =     -31.48967702 Ry
     Harris-Foulkes estimate   =     -31.48951354 Ry
     estimated scf accuracy    <       0.07190773 Ry

     iteration #  7     ecut=    30.00 Ry     beta=0.70
     Davidson diagonalization with overlap
     ethr =  4.35E-04,  avg # of iterations =  3.0

     negative rho (up, down):  3.315E-04 0.000E+00

     total cpu time spent up to now is        3.2 secs

     total energy              =     -31.49026320 Ry
     Harris-Foulkes estimate   =     -31.49056008 Ry
     estimated scf accuracy    <       0.01991493 Ry

     iteration #  8     ecut=    30.00 Ry     beta=0.70
     Davidson diagonalization with overlap
     ethr =  2.49E-04,  avg # of iterations =  1.0

     negative rho (up, down):  7.017E-06 0.000E+00

     total cpu time spent up to now is        3.3 secs

     total energy              =     -31.49032257 Ry
     Harris-Foulkes estimate   =     -31.49043964 Ry
     estimated scf accuracy    <       0.00122308 Ry

     iteration #  9     ecut=    30.00 Ry     beta=0.70
     Davidson diagonalization with overlap
     ethr =  1.53E-05,  avg # of iterations = 12.0

     negative rho (up, down):  3.991E-08 0.000E+00

     total cpu time spent up to now is        3.3 secs

     total energy              =     -31.49031912 Ry
     Harris-Foulkes estimate   =     -31.49053743 Ry
     estimated scf accuracy    <       0.00543178 Ry

     iteration # 10     ecut=    30.00 Ry     beta=0.70
     Davidson diagonalization with overlap
     ethr =  1.53E-05,  avg # of iterations =  1.0

     total cpu time spent up to now is        3.3 secs

     total energy              =     -31.49038405 Ry
     Harris-Foulkes estimate   =     -31.49057050 Ry
     estimated scf accuracy    <       0.01357193 Ry

     iteration # 11     ecut=    30.00 Ry     beta=0.70
     Davidson diagonalization with overlap
     ethr =  1.53E-05,  avg # of iterations =  1.0

     total cpu time spent up to now is        3.4 secs

     total energy              =     -31.49042199 Ry
     Harris-Foulkes estimate   =     -31.49045463 Ry
     estimated scf accuracy    <       0.00098148 Ry

     iteration # 12     ecut=    30.00 Ry     beta=0.70
     Davidson diagonalization with overlap
     ethr =  1.23E-05,  avg # of iterations =  1.0

     total cpu time spent up to now is        3.4 secs

     total energy              =     -31.49044549 Ry
     Harris-Foulkes estimate   =     -31.49045549 Ry
     estimated scf accuracy    <       0.00105385 Ry

     iteration # 13     ecut=    30.00 Ry     beta=0.70
     Davidson diagonalization with overlap
     ethr =  1.23E-05,  avg # of iterations =  1.0

     total cpu time spent up to now is        3.4 secs

     total energy              =     -31.49044489 Ry
     Harris-Foulkes estimate   =     -31.49044779 Ry
     estimated scf accuracy    <       0.00030803 Ry

     iteration # 14     ecut=    30.00 Ry     beta=0.70
     Davidson diagonalization with overlap
     ethr =  3.85E-06,  avg # of iterations =  1.0

     total cpu time spent up to now is        3.5 secs

     total energy              =     -31.49044382 Ry
     Harris-Foulkes estimate   =     -31.49044559 Ry
     estimated scf accuracy    <       0.00008580 Ry

     iteration # 15     ecut=    30.00 Ry     beta=0.70
     Davidson diagonalization with overlap
     ethr =  1.07E-06,  avg # of iterations =  1.0

     total cpu time spent up to now is        3.5 secs

     End of self-consistent calculation

          k = 0.0000 0.0000 0.0000 ( 22119 PWs)   bands (ev):

   -23.6401  -7.0504  -7.0472  -7.0470  -6.9798  -6.9024  -0.2342   0.6264

     the Fermi energy is    -6.9131 ev

!    total energy              =     -31.49044464 Ry
     Harris-Foulkes estimate   =     -31.49044469 Ry
     estimated scf accuracy    <          5.2E-09 Ry

     convergence has been achieved in  15 iterations

     Forces acting on atoms (Ry/au):

     atom    1 type  1   force =     0.00028911   -0.00057949    0.00086737
     atom    2 type  1   force =     0.00085865   -0.00032973    0.00028691
     atom    3 type  2   force =    -0.00114776    0.00090922   -0.00115428

     Total force =     0.002361     Total SCF correction =     0.000993
     SCF correction compared to forces is large: reduce conv_thr to get better values

     Entering Dynamics:    iteration =     2
                           time      =   0.0097 pico-seconds


     Andersen thermostat:    3 collisions

ATOMIC_POSITIONS (bohr)
H       16.315396234  13.530290051   4.938442961
H       12.134100913   9.574206625  11.396416393
O       19.622303300   4.457674107  14.945797183


     kinetic energy (Ekin) =     0.00858949 Ry
     temperature           =   452.05713883 K 
     Ekin + Etot (const)   =   -31.48185515 Ry
     Message from routine dynamics:
     Total linear momentum <> 0

     Linear momentum :   -0.0482643422    0.4839037204    0.0463385468

     Writing output data file pwscf.save

     first order wave-functions extrapolation
     Check: negative starting charge=   -0.351270
     first order charge density extrapolation
     Check: negative starting charge=   -0.351044

     negative rho (up, down):  1.124E-01 0.000E+00

     total cpu time spent up to now is        3.8 secs

     per-process dynamical memory:    20.4 Mb

     Self-consistent Calculation

     iteration #  1     ecut=    30.00 Ry     beta=0.70
     Davidson diagonalization with overlap
     c_bands:  1 eigenvalues not converged
     ethr =  1.00E-06,  avg # of iterations = 20.0

     negative rho (up, down):  2.666E-02 0.000E+00

     total cpu time spent up to now is        3.9 secs

     total energy              =     -31.40140991 Ry
     Harris-Foulkes estimate   =     -31.41448906 Ry
     estimated scf accuracy    <       0.08157738 Ry

     iteration #  2     ecut=    30.00 Ry     beta=0.70
     Davidson diagonalization with overlap
     ethr =  1.02E-03,  avg # of iterations =  2.0

     negative rho (up, down):  2.399E-02 0.000E+00

     total cpu time spent up to now is        3.9 secs

     total energy              =     -31.47976228 Ry
     Harris-Foulkes estimate   =     -32.09667112 Ry
     estimated scf accuracy    <       4.64360703 Ry

     iteration #  3     ecut=    30.00 Ry     beta=0.70
     Davidson diagonalization with overlap
     ethr =  1.02E-03,  avg # of iterations =  2.0

     negative rho (up, down):  2.264E-02 0.000E+00

     total cpu time spent up to now is        4.0 secs

     total energy              =     -31.46937381 Ry
     Harris-Foulkes estimate   =     -31.54869562 Ry
     estimated scf accuracy    <       1.04622769 Ry

     iteration #  4     ecut=    30.00 Ry     beta=0.70
     Davidson diagonalization with overlap
     ethr =  1.02E-03,  avg # of iterations =  1.0

     negative rho (up, down):  2.182E-02 0.000E+00

     total cpu time spent up to now is        4.0 secs

     total energy              =     -31.41725232 Ry
     Harris-Foulkes estimate   =     -31.49403340 Ry
     estimated scf accuracy    <       2.42529131 Ry

     iteration #  5     ecut=    30.00 Ry     beta=0.70
     Davidson diagonalization with overlap
     ethr =  1.02E-03,  avg # of iterations =  1.0

     negative rho (up, down):  7.507E-03 0.000E+00

     total cpu time spent up to now is        4.0 secs

     total energy              =     -31.48251465 Ry
     Harris-Foulkes estimate   =     -31.47824052 Ry
     estimated scf accuracy    <       0.76761257 Ry

     iteration #  6     ecut=    30.00 Ry     beta=0.70
     Davidson diagonalization with overlap
     ethr =  1.02E-03,  avg # of iterations =  1.0

     negative rho (up, down):  2.211E-03 0.000E+00

     total cpu time spent up to now is        4.0 secs

     total energy              =     -31.48634602 Ry
     Harris-Foulkes estimate   =     -31.48525945 Ry
     estimated scf accuracy    <       0.16318478 Ry

     iteration #  7     ecut=    30.00 Ry     beta=0.70
     Davidson diagonalization with overlap
     ethr =  1.02E-03,  avg # of iterations =  1.0

     negative rho (up, down):  1.701E-04 0.000E+00

     total cpu time spent up to now is        4.1 secs

     total energy              =     -31.48982163 Ry
     Harris-Foulkes estimate   =     -31.48925986 Ry
     estimated scf accuracy    <       0.01939664 Ry

     iteration #  8     ecut=    30.00 Ry     beta=0.70
     Davidson diagonalization with overlap
     ethr =  2.42E-04,  avg # of iterations =  4.0

     negative rho (up, down):  1.928E-06 0.000E+00

     total cpu time spent up to now is        4.1 secs

     total energy              =     -31.49078087 Ry
     Harris-Foulkes estimate   =     -31.49069007 Ry
     estimated scf accuracy    <       0.02412460 Ry

     iteration #  9     ecut=    30.00 Ry     beta=0.70
     Davidson diagonalization with overlap
     ethr =  2.42E-04,  avg # of iterations =  1.0

     negative rho (up, down):  1.855E-07 0.000E+00

     total cpu time spent up to now is        4.1 secs

     total energy              =     -31.49038036 Ry
     Harris-Foulkes estimate   =     -31.49083168 Ry
     estimated scf accuracy    <       0.03908279 Ry

     iteration # 10     ecut=    30.00 Ry     beta=0.70
     Davidson diagonalization with overlap
     ethr =  2.42E-04,  avg # of iterations =  1.0

     total cpu time spent up to now is        4.2 secs

     total energy              =     -31.49030176 Ry
     Harris-Foulkes estimate   =     -31.49051858 Ry
     estimated scf accuracy    <       0.00576999 Ry

     iteration # 11     ecut=    30.00 Ry     beta=0.70
     Davidson diagonalization with overlap
     ethr =  7.21E-05,  avg # of iterations =  1.0

     total cpu time spent up to now is        4.2 secs

     total energy              =     -31.49041036 Ry
     Harris-Foulkes estimate   =     -31.49052791 Ry
     estimated scf accuracy    <       0.00667735 Ry

     iteration # 12     ecut=    30.00 Ry     beta=0.70
     Davidson diagonalization with overlap
     ethr =  7.21E-05,  avg # of iterations =  1.0

     total cpu time spent up to now is        4.3 secs

     total energy              =     -31.49046545 Ry
     Harris-Foulkes estimate   =     -31.49046674 Ry
     estimated scf accuracy    <       0.00002233 Ry

     iteration # 13     ecut=    30.00 Ry     beta=0.70
     Davidson diagonalization with overlap
     ethr =  2.79E-07,  avg # of iterations = 15.0

     total cpu time spent up to now is        4.3 secs

     total energy              =     -31.49046541 Ry
     Harris-Foulkes estimate   =     -31.49046611 Ry
     estimated scf accuracy    <       0.00000394 Ry

     iteration # 14     ecut=    30.00 Ry     beta=0.70
     Davidson diagonalization with overlap
     ethr =  4.93E-08,  avg # of iterations =  1.0

     total cpu time spent up to now is        4.3 secs

     total energy              =     -31.49046535 Ry
     Harris-Foulkes estimate   =     -31.49046547 Ry
     estimated scf accuracy    <       0.00000007 Ry

     iteration # 15     ecut=    30.00 Ry     beta=0.70
     Davidson diagonalization with overlap
     ethr =  8.45E-10,  avg # of iterations =  1.0

     total cpu time spent up to now is        4.4 secs

     End of self-consistent calculation

          k = 0.0000 0.0000 0.0000 ( 22119 PWs)   bands (ev):

   -23.6357  -7.0472  -7.0436  -7.0434  -6.9718  -6.9029  -0.2329   0.6306

     the Fermi energy is    -6.9095 ev

!    total energy              =     -31.49046521 Ry
     Harris-Foulkes estimate   =     -31.49046535 Ry
     estimated scf accuracy    <          4.0E-09 Ry

     convergence has been achieved in  15 iterations

     Forces acting on atoms (Ry/au):

     atom    1 type  1   force =     0.00034036   -0.00018062    0.00049207
     atom    2 type  1   force =     0.00079327    0.00005694    0.00006368
     atom    3 type  2   force =    -0.00113363    0.00012368   -0.00055574

     Total force =     0.001624     Total SCF correction =     0.000609
     SCF correction compared to forces is large: reduce conv_thr to get better values

     Entering Dynamics:    iteration =     3
                           time      =   0.0145 pico-seconds


     Andersen thermostat:    3 collisions

ATOMIC_POSITIONS (bohr)
H       16.540706079  13.245608819   5.032235976
H       12.286075289   9.647382260  11.736058276
O       19.598487234   4.471025398  14.918436605


     kinetic energy (Ekin) =     0.01685125 Ry
     temperature           =   886.86618696 K 
     Ekin + Etot (const)   =   -31.47361396 Ry
     Message from routine dynamics:
     Total linear momentum <> 0

     Linear momentum :    0.3047675616   -0.3500624036   -0.1369358232

     Writing output data file pwscf.save

     second order wave-functions extrapolation
     Check: negative starting charge=   -0.351044
     second order charge density extrapolation
     Check: negative starting charge=   -0.351244

     negative rho (up, down):  6.600E-02 0.000E+00

     total cpu time spent up to now is        4.7 secs

     per-process dynamical memory:    20.4 Mb

     Self-consistent Calculation

     iteration #  1     ecut=    30.00 Ry     beta=0.70
     Davidson diagonalization with overlap
     c_bands:  1 eigenvalues not converged
     ethr =  1.00E-06,  avg # of iterations = 20.0

     negative rho (up, down):  1.493E-02 0.000E+00

     total cpu time spent up to now is        4.8 secs

     total energy              =     -31.42916264 Ry
     Harris-Foulkes estimate   =     -31.43406521 Ry
     estimated scf accuracy    <       0.05814568 Ry

     iteration #  2     ecut=    30.00 Ry     beta=0.70
     Davidson diagonalization with overlap
     ethr =  7.27E-04,  avg # of iterations =  2.0

     negative rho (up, down):  1.358E-02 0.000E+00

     total cpu time spent up to now is        4.8 secs

     total energy              =     -31.49361008 Ry
     Harris-Foulkes estimate   =     -32.04408484 Ry
     estimated scf accuracy    <       4.52679499 Ry

     iteration #  3     ecut=    30.00 Ry     beta=0.70
     Davidson diagonalization with overlap
     ethr =  7.27E-04,  avg # of iterations =  2.0

     negative rho (up, down):  1.313E-02 0.000E+00

     total cpu time spent up to now is        4.8 secs

     total energy              =     -31.46630215 Ry
     Harris-Foulkes estimate   =     -31.49773357 Ry
     estimated scf accuracy    <       2.14653074 Ry

     iteration #  4     ecut=    30.00 Ry     beta=0.70
     Davidson diagonalization with overlap
     ethr =  7.27E-04,  avg # of iterations =  1.0

     negative rho (up, down):  1.025E-02 0.000E+00

     total cpu time spent up to now is        4.9 secs

     total energy              =     -31.46189357 Ry
     Harris-Foulkes estimate   =     -31.47901769 Ry
     estimated scf accuracy    <       0.13087188 Ry

     iteration #  5     ecut=    30.00 Ry     beta=0.70
     Davidson diagonalization with overlap
     ethr =  7.27E-04,  avg # of iterations =  1.0

     negative rho (up, down):  2.808E-03 0.000E+00

     total cpu time spent up to now is        4.9 secs

     total energy              =     -31.45357065 Ry
     Harris-Foulkes estimate   =     -31.53868075 Ry
     estimated scf accuracy    <       2.67917099 Ry

     iteration #  6     ecut=    30.00 Ry     beta=0.70
     Davidson diagonalization with overlap
     ethr =  7.27E-04,  avg # of iterations =  1.0

     negative rho (up, down):  6.913E-04 0.000E+00

     total cpu time spent up to now is        4.9 secs

     total energy              =     -31.48940301 Ry
     Harris-Foulkes estimate   =     -31.48878701 Ry
     estimated scf accuracy    <       0.02619933 Ry

     iteration #  7     ecut=    30.00 Ry     beta=0.70
     Davidson diagonalization with overlap
     ethr =  3.27E-04,  avg # of iterations =  4.0

     negative rho (up, down):  3.405E-04 0.000E+00

     total cpu time spent up to now is        5.0 secs

     total energy              =     -31.49132264 Ry
     Harris-Foulkes estimate   =     -31.49127474 Ry
     estimated scf accuracy    <       0.08295750 Ry

     iteration #  8     ecut=    30.00 Ry     beta=0.70
     Davidson diagonalization with overlap
     ethr =  3.27E-04,  avg # of iterations =  1.0

     negative rho (up, down):  6.837E-07 0.000E+00

     total cpu time spent up to now is        5.0 secs

     total energy              =     -31.48982510 Ry
     Harris-Foulkes estimate   =     -31.49133036 Ry
     estimated scf accuracy    <       0.08333384 Ry

     iteration #  9     ecut=    30.00 Ry     beta=0.70
     Davidson diagonalization with overlap
     ethr =  3.27E-04,  avg # of iterations =  1.0

     total cpu time spent up to now is        5.0 secs

     total energy              =     -31.49053452 Ry
     Harris-Foulkes estimate   =     -31.49056211 Ry
     estimated scf accuracy    <       0.00025860 Ry

     iteration # 10     ecut=    30.00 Ry     beta=0.70
     Davidson diagonalization with overlap
     ethr =  3.23E-06,  avg # of iterations = 15.0

     total cpu time spent up to now is        5.1 secs

     total energy              =     -31.49013444 Ry
     Harris-Foulkes estimate   =     -31.49078740 Ry
     estimated scf accuracy    <       0.02502867 Ry

     iteration # 11     ecut=    30.00 Ry     beta=0.70
     Davidson diagonalization with overlap
     ethr =  3.23E-06,  avg # of iterations =  1.0

     total cpu time spent up to now is        5.1 secs

     total energy              =     -31.49051466 Ry
     Harris-Foulkes estimate   =     -31.49060317 Ry
     estimated scf accuracy    <       0.00466212 Ry

     iteration # 12     ecut=    30.00 Ry     beta=0.70
     Davidson diagonalization with overlap
     ethr =  3.23E-06,  avg # of iterations =  1.0

     total cpu time spent up to now is        5.1 secs

     total energy              =     -31.49056022 Ry
     Harris-Foulkes estimate   =     -31.49056003 Ry
     estimated scf accuracy    <       0.00000354 Ry

     iteration # 13     ecut=    30.00 Ry     beta=0.70
     Davidson diagonalization with overlap
     ethr =  4.43E-08,  avg # of iterations =  1.0

     total cpu time spent up to now is        5.2 secs

     total energy              =     -31.49055983 Ry
     Harris-Foulkes estimate   =     -31.49056026 Ry
     estimated scf accuracy    <       0.00001522 Ry

     iteration # 14     ecut=    30.00 Ry     beta=0.70
     Davidson diagonalization with overlap
     ethr =  4.43E-08,  avg # of iterations =  1.0

     total cpu time spent up to now is        5.2 secs

     total energy              =     -31.49056002 Ry
     Harris-Foulkes estimate   =     -31.49056005 Ry
     estimated scf accuracy    <       0.00000074 Ry

     iteration # 15     ecut=    30.00 Ry     beta=0.70
     Davidson diagonalization with overlap
     ethr =  9.22E-09,  avg # of iterations =  1.0

     total cpu time spent up to now is        5.2 secs

     End of self-consistent calculation

          k = 0.0000 0.0000 0.0000 ( 22119 PWs)   bands (ev):

   -23.6329  -7.0456  -7.0417  -7.0414  -6.9679  -6.9023  -0.2308   0.6269

     the Fermi energy is    -6.9075 ev

!    total energy              =     -31.49056004 Ry
     Harris-Foulkes estimate   =     -31.49056003 Ry
     estimated scf accuracy    <          3.2E-11 Ry

     convergence has been achieved in  15 iterations

     Forces acting on atoms (Ry/au):

     atom    1 type  1   force =    -0.00000731   -0.00028831    0.00056896
     atom    2 type  1   force =     0.00050058   -0.00018379    0.00016131
     atom    3 type  2   force =    -0.00049327    0.00047210   -0.00073028

     Total force =     0.001310     Total SCF correction =     0.000080

     Entering Dynamics:    iteration =     4
                           time      =   0.0194 pico-seconds


     Andersen thermostat:    3 collisions

ATOMIC_POSITIONS (bohr)
H       16.529043995  13.106340996   4.947471849
H       12.094675867   9.310566258  11.542310013
O       19.611305491   4.501078190  14.936017700


     kinetic energy (Ekin) =     0.01977022 Ry
     temperature           =  1040.48911157 K 
     Ekin + Etot (const)   =   -31.47078982 Ry
     Message from routine dynamics:
     Total linear momentum <> 0

     Linear momentum :    0.6585480540    0.4524520681   -0.2987964083

     Writing output data file pwscf.save

     second order wave-functions extrapolation
     Check: negative starting charge=   -0.351244
     second order charge density extrapolation
     Check: negative starting charge=   -0.351205

     negative rho (up, down):  6.168E-02 0.000E+00

     total cpu time spent up to now is        5.6 secs

     per-process dynamical memory:    20.4 Mb

     Self-consistent Calculation

     iteration #  1     ecut=    30.00 Ry     beta=0.70
     Davidson diagonalization with overlap
     c_bands:  1 eigenvalues not converged
     ethr =  1.00E-06,  avg # of iterations = 20.0

     negative rho (up, down):  1.395E-02 0.000E+00

     total cpu time spent up to now is        5.7 secs

     total energy              =     -31.45766681 Ry
     Harris-Foulkes estimate   =     -31.44006334 Ry
     estimated scf accuracy    <       0.02548627 Ry

     iteration #  2     ecut=    30.00 Ry     beta=0.70
     Davidson diagonalization with overlap
     ethr =  3.19E-04,  avg # of iterations =  2.0

     negative rho (up, down):  1.312E-02 0.000E+00

     total cpu time spent up to now is        5.7 secs

     total energy              =     -31.45989773 Ry
     Harris-Foulkes estimate   =     -31.79657850 Ry
     estimated scf accuracy    <       4.10796806 Ry

     iteration #  3     ecut=    30.00 Ry     beta=0.70
     Davidson diagonalization with overlap
     ethr =  3.19E-04,  avg # of iterations =  2.0

     negative rho (up, down):  1.266E-02 0.000E+00

     total cpu time spent up to now is        5.7 secs

     total energy              =     -31.46171504 Ry
     Harris-Foulkes estimate   =     -31.52164775 Ry
     estimated scf accuracy    <       1.21755799 Ry

     iteration #  4     ecut=    30.00 Ry     beta=0.70
     Davidson diagonalization with overlap
     ethr =  3.19E-04,  avg # of iterations =  1.0

     negative rho (up, down):  3.563E-03 0.000E+00

     total cpu time spent up to now is        5.7 secs

     total energy              =     -31.47074730 Ry
     Harris-Foulkes estimate   =     -31.48026960 Ry
     estimated scf accuracy    <       0.18926950 Ry

     iteration #  5     ecut=    30.00 Ry     beta=0.70
     Davidson diagonalization with overlap
     ethr =  3.19E-04,  avg # of iterations =  1.0

     negative rho (up, down):  1.777E-03 0.000E+00

     total cpu time spent up to now is        5.8 secs

     total energy              =     -31.46810756 Ry
     Harris-Foulkes estimate   =     -31.51305048 Ry
     estimated scf accuracy    <       1.56248912 Ry

     iteration #  6     ecut=    30.00 Ry     beta=0.70
     Davidson diagonalization with overlap
     ethr =  3.19E-04,  avg # of iterations =  3.0

     negative rho (up, down):  7.202E-04 0.000E+00

     total cpu time spent up to now is        5.8 secs

     total energy              =     -31.48955763 Ry
     Harris-Foulkes estimate   =     -31.48999031 Ry
     estimated scf accuracy    <       0.04461532 Ry

     iteration #  7     ecut=    30.00 Ry     beta=0.70
     Davidson diagonalization with overlap
     ethr =  3.19E-04,  avg # of iterations =  1.0

     negative rho (up, down):  6.555E-05 0.000E+00

     total cpu time spent up to now is        5.8 secs

     total energy              =     -31.49045907 Ry
     Harris-Foulkes estimate   =     -31.49066309 Ry
     estimated scf accuracy    <       0.02223712 Ry

     iteration #  8     ecut=    30.00 Ry     beta=0.70
     Davidson diagonalization with overlap
     ethr =  2.78E-04,  avg # of iterations =  1.0

     negative rho (up, down):  9.927E-06 0.000E+00

     total cpu time spent up to now is        5.9 secs

     total energy              =     -31.49007591 Ry
     Harris-Foulkes estimate   =     -31.49058511 Ry
     estimated scf accuracy    <       0.00942637 Ry

     iteration #  9     ecut=    30.00 Ry     beta=0.70
     Davidson diagonalization with overlap
     ethr =  1.18E-04,  avg # of iterations = 10.0

     total cpu time spent up to now is        5.9 secs

     total energy              =     -31.49026522 Ry
     Harris-Foulkes estimate   =     -31.49088552 Ry
     estimated scf accuracy    <       0.04115618 Ry

     iteration # 10     ecut=    30.00 Ry     beta=0.70
     Davidson diagonalization with overlap
     ethr =  1.18E-04,  avg # of iterations =  1.0

     total cpu time spent up to now is        5.9 secs

     total energy              =     -31.49050387 Ry
     Harris-Foulkes estimate   =     -31.49053383 Ry
     estimated scf accuracy    <       0.00110467 Ry

     iteration # 11     ecut=    30.00 Ry     beta=0.70
     Davidson diagonalization with overlap
     ethr =  1.38E-05,  avg # of iterations =  7.0

     total cpu time spent up to now is        6.0 secs

     total energy              =     -31.49051735 Ry
     Harris-Foulkes estimate   =     -31.49052693 Ry
     estimated scf accuracy    <       0.00035777 Ry

     iteration # 12     ecut=    30.00 Ry     beta=0.70
     Davidson diagonalization with overlap
     ethr =  4.47E-06,  avg # of iterations =  1.0

     total cpu time spent up to now is        6.0 secs

     total energy              =     -31.49052378 Ry
     Harris-Foulkes estimate   =     -31.49052413 Ry
     estimated scf accuracy    <       0.00004601 Ry

     iteration # 13     ecut=    30.00 Ry     beta=0.70
     Davidson diagonalization with overlap
     ethr =  5.75E-07,  avg # of iterations =  9.0

     total cpu time spent up to now is        6.1 secs

     total energy              =     -31.49052327 Ry
     Harris-Foulkes estimate   =     -31.49052385 Ry
     estimated scf accuracy    <       0.00002041 Ry

     iteration # 14     ecut=    30.00 Ry     beta=0.70
     Davidson diagonalization with overlap
     ethr =  2.55E-07,  avg # of iterations =  1.0

     total cpu time spent up to now is        6.1 secs

     total energy              =     -31.49052340 Ry
     Harris-Foulkes estimate   =     -31.49052346 Ry
     estimated scf accuracy    <       0.00000034 Ry

     iteration # 15     ecut=    30.00 Ry     beta=0.70
     Davidson diagonalization with overlap
     ethr =  4.28E-09,  avg # of iterations =  1.0

     total cpu time spent up to now is        6.1 secs

     End of self-consistent calculation

          k = 0.0000 0.0000 0.0000 ( 22119 PWs)   bands (ev):

   -23.6306  -7.0431  -7.0396  -7.0393  -6.9639  -6.9027  -0.2311   0.6300

     the Fermi energy is    -6.9053 ev

!    total energy              =     -31.49052342 Ry
     Harris-Foulkes estimate   =     -31.49052340 Ry
     estimated scf accuracy    <          2.0E-10 Ry

     convergence has been achieved in  15 iterations

     Forces acting on atoms (Ry/au):

     atom    1 type  1   force =     0.00014835   -0.00044079    0.00053440
     atom    2 type  1   force =     0.00057889   -0.00030412    0.00021953
     atom    3 type  2   force =    -0.00072724    0.00074491   -0.00075394

     Total force =     0.001622     Total SCF correction =     0.000013

     Entering Dynamics:    iteration =     5
                           time      =   0.0242 pico-seconds


     Andersen thermostat:    3 collisions

ATOMIC_POSITIONS (bohr)
H       16.347344968  13.394948024   5.258198947
H       11.566310117   9.522747966  11.266110448
O       19.656128330   4.469465901  14.933838149


     kinetic energy (Ekin) =     0.03177044 Ry
     temperature           =  1672.04973915 K 
     Ekin + Etot (const)   =   -31.45875299 Ry
     Message from routine dynamics:
     Total linear momentum <> 0

     Linear momentum :    0.2555715914    0.0401351917   -0.1541686132

     Writing output data file pwscf.save

     second order wave-functions extrapolation
     Check: negative starting charge=   -0.351205
     second order charge density extrapolation
     Check: negative starting charge=   -0.351380

     negative rho (up, down):  6.976E-02 0.000E+00

     total cpu time spent up to now is        6.5 secs

     per-process dynamical memory:    20.4 Mb

     Self-consistent Calculation

     iteration #  1     ecut=    30.00 Ry     beta=0.70
     Davidson diagonalization with overlap
     c_bands:  1 eigenvalues not converged
     ethr =  1.00E-06,  avg # of iterations = 20.0

     negative rho (up, down):  1.584E-02 0.000E+00

     total cpu time spent up to now is        6.6 secs

     total energy              =     -31.46064650 Ry
     Harris-Foulkes estimate   =     -31.43547269 Ry
     estimated scf accuracy    <       0.02005808 Ry

     iteration #  2     ecut=    30.00 Ry     beta=0.70
     Davidson diagonalization with overlap
     ethr =  2.51E-04,  avg # of iterations =  2.0

     negative rho (up, down):  1.515E-02 0.000E+00

     total cpu time spent up to now is        6.6 secs

     total energy              =     -31.43285841 Ry
     Harris-Foulkes estimate   =     -31.63917512 Ry
     estimated scf accuracy    <       3.44817635 Ry

     iteration #  3     ecut=    30.00 Ry     beta=0.70
     Davidson diagonalization with overlap
     ethr =  2.51E-04,  avg # of iterations =  2.0

     negative rho (up, down):  1.434E-02 0.000E+00

     total cpu time spent up to now is        6.6 secs

     total energy              =     -31.46167330 Ry
     Harris-Foulkes estimate   =     -31.56355645 Ry
     estimated scf accuracy    <       1.29983068 Ry

     iteration #  4     ecut=    30.00 Ry     beta=0.70
     Davidson diagonalization with overlap
     ethr =  2.51E-04,  avg # of iterations =  2.0

     negative rho (up, down):  3.244E-03 0.000E+00

     total cpu time spent up to now is        6.7 secs

     total energy              =     -31.48250946 Ry
     Harris-Foulkes estimate   =     -31.47786209 Ry
     estimated scf accuracy    <       0.08015215 Ry

     iteration #  5     ecut=    30.00 Ry     beta=0.70
     Davidson diagonalization with overlap
     ethr =  2.51E-04,  avg # of iterations =  3.0

     negative rho (up, down):  1.397E-03 0.000E+00

     total cpu time spent up to now is        6.7 secs

     total energy              =     -31.48785933 Ry
     Harris-Foulkes estimate   =     -31.49316655 Ry
     estimated scf accuracy    <       0.46162965 Ry

     iteration #  6     ecut=    30.00 Ry     beta=0.70
     Davidson diagonalization with overlap
     ethr =  2.51E-04,  avg # of iterations =  1.0

     negative rho (up, down):  1.094E-03 0.000E+00

     total cpu time spent up to now is        6.7 secs

     total energy              =     -31.48862636 Ry
     Harris-Foulkes estimate   =     -31.49372591 Ry
     estimated scf accuracy    <       0.19279954 Ry

     iteration #  7     ecut=    30.00 Ry     beta=0.70
     Davidson diagonalization with overlap
     ethr =  2.51E-04,  avg # of iterations =  1.0

     negative rho (up, down):  3.419E-04 0.000E+00

     total cpu time spent up to now is        6.8 secs

     total energy              =     -31.48896796 Ry
     Harris-Foulkes estimate   =     -31.49061654 Ry
     estimated scf accuracy    <       0.04624567 Ry

     iteration #  8     ecut=    30.00 Ry     beta=0.70
     Davidson diagonalization with overlap
     ethr =  2.51E-04,  avg # of iterations =  1.0

     negative rho (up, down):  2.540E-06 0.000E+00

     total cpu time spent up to now is        6.8 secs

     total energy              =     -31.48962438 Ry
     Harris-Foulkes estimate   =     -31.49083349 Ry
     estimated scf accuracy    <       0.03609275 Ry

     iteration #  9     ecut=    30.00 Ry     beta=0.70
     Davidson diagonalization with overlap
     ethr =  2.51E-04,  avg # of iterations =  1.0

     negative rho (up, down):  2.379E-08 0.000E+00

     total cpu time spent up to now is        6.8 secs

     total energy              =     -31.49035911 Ry
     Harris-Foulkes estimate   =     -31.49044922 Ry
     estimated scf accuracy    <       0.00725834 Ry

     iteration # 10     ecut=    30.00 Ry     beta=0.70
     Davidson diagonalization with overlap
     ethr =  9.07E-05,  avg # of iterations =  9.0

     total cpu time spent up to now is        6.9 secs

     total energy              =     -31.49037870 Ry
     Harris-Foulkes estimate   =     -31.49039359 Ry
     estimated scf accuracy    <       0.00084890 Ry

     iteration # 11     ecut=    30.00 Ry     beta=0.70
     Davidson diagonalization with overlap
     ethr =  1.06E-05,  avg # of iterations =  6.0

     total cpu time spent up to now is        6.9 secs

     total energy              =     -31.49038147 Ry
     Harris-Foulkes estimate   =     -31.49038386 Ry
     estimated scf accuracy    <       0.00008193 Ry

     iteration # 12     ecut=    30.00 Ry     beta=0.70
     Davidson diagonalization with overlap
     ethr =  1.02E-06,  avg # of iterations =  8.0

     total cpu time spent up to now is        7.0 secs

     total energy              =     -31.49038207 Ry
     Harris-Foulkes estimate   =     -31.49038285 Ry
     estimated scf accuracy    <       0.00000929 Ry

     iteration # 13     ecut=    30.00 Ry     beta=0.70
     Davidson diagonalization with overlap
     ethr =  1.16E-07,  avg # of iterations =  1.0

     total cpu time spent up to now is        7.0 secs

     total energy              =     -31.49038236 Ry
     Harris-Foulkes estimate   =     -31.49038226 Ry
     estimated scf accuracy    <       0.00000120 Ry

     iteration # 14     ecut=    30.00 Ry     beta=0.70
     Davidson diagonalization with overlap
     ethr =  1.50E-08,  avg # of iterations =  1.0

     total cpu time spent up to now is        7.0 secs

     total energy              =     -31.49038232 Ry
     Harris-Foulkes estimate   =     -31.49038236 Ry
     estimated scf accuracy    <       0.00000031 Ry

     iteration # 15     ecut=    30.00 Ry     beta=0.70
     Davidson diagonalization with overlap
     ethr =  3.88E-09,  avg # of iterations =  1.0

     total cpu time spent up to now is        7.1 secs

     total energy              =     -31.49038229 Ry
     Harris-Foulkes estimate   =     -31.49038232 Ry
     estimated scf accuracy    <       0.00000007 Ry

     iteration # 16     ecut=    30.00 Ry     beta=0.70
     Davidson diagonalization with overlap
     ethr =  8.47E-10,  avg # of iterations =  1.0

     total cpu time spent up to now is        7.1 secs

     End of self-consistent calculation

          k = 0.0000 0.0000 0.0000 ( 22119 PWs)   bands (ev):

   -23.6374  -7.0469  -7.0447  -7.0446  -6.9752  -6.9031  -0.2356   0.6447

     the Fermi energy is    -6.9106 ev

!    total energy              =     -31.49038229 Ry
     Harris-Foulkes estimate   =     -31.49038229 Ry
     estimated scf accuracy    <          1.3E-10 Ry

     convergence has been achieved in  16 iterations

     Forces acting on atoms (Ry/au):

     atom    1 type  1   force =     0.00027907   -0.00039880    0.00096177
     atom    2 type  1   force =     0.00081847   -0.00019319    0.00048197
     atom    3 type  2   force =    -0.00109754    0.00059199   -0.00144374

     Total force =     0.002396     Total SCF correction =     0.000466
     SCF correction compared to forces is large: reduce conv_thr to get better values

     Entering Dynamics:    iteration =     6
                           time      =   0.0290 pico-seconds


     Andersen thermostat:    3 collisions

ATOMIC_POSITIONS (bohr)
H       16.324931321  12.803297225   5.150263058
H       11.208421421   9.303543695  11.621746335
O       19.680134916   4.520651127  14.918202087


     kinetic energy (Ekin) =     0.03370238 Ry
     temperature           =  1773.72615922 K 
     Ekin + Etot (const)   =   -31.45667991 Ry
     Message from routine dynamics:
     Total linear momentum <> 0

     Linear momentum :    0.0271839412   -0.0722010692   -0.2133873842

     Writing output data file pwscf.save

     second order wave-functions extrapolation
     Check: negative starting charge=   -0.351380
     second order charge density extrapolation
     Check: negative starting charge=   -0.351278

     negative rho (up, down):  8.944E-02 0.000E+00

     total cpu time spent up to now is        7.4 secs

     per-process dynamical memory:    20.4 Mb

     Self-consistent Calculation

     iteration #  1     ecut=    30.00 Ry     beta=0.70
     Davidson diagonalization with overlap
     c_bands:  1 eigenvalues not converged
     ethr =  1.00E-06,  avg # of iterations = 20.0

     negative rho (up, down):  2.120E-02 0.000E+00

     total cpu time spent up to now is        7.5 secs

     total energy              =     -30.67488153 Ry
     Harris-Foulkes estimate   =     -31.55440553 Ry
     estimated scf accuracy    <       0.94875569 Ry

     iteration #  2     ecut=    30.00 Ry     beta=0.70
     Davidson diagonalization with overlap
     ethr =  1.00E-02,  avg # of iterations =  3.0

     negative rho (up, down):  1.697E-02 0.000E+00

     total cpu time spent up to now is        7.5 secs

     total energy              =     -31.49912265 Ry
     Harris-Foulkes estimate   =     -33.25709065 Ry
     estimated scf accuracy    <       5.64935945 Ry

     iteration #  3     ecut=    30.00 Ry     beta=0.70
     Davidson diagonalization with overlap
     ethr =  1.00E-02,  avg # of iterations =  2.0

     negative rho (up, down):  1.409E-02 0.000E+00

     total cpu time spent up to now is        7.6 secs

     total energy              =     -31.75268024 Ry
     Harris-Foulkes estimate   =     -32.24193808 Ry
     estimated scf accuracy    <       2.10524011 Ry

     iteration #  4     ecut=    30.00 Ry     beta=0.70
     Davidson diagonalization with overlap
     ethr =  1.00E-02,  avg # of iterations =  3.0

     negative rho (up, down):  1.261E-02 0.000E+00

     total cpu time spent up to now is        7.7 secs

     total energy              =     -31.60909651 Ry
     Harris-Foulkes estimate   =     -31.76006759 Ry
     estimated scf accuracy    <       1.24328382 Ry

     iteration #  5     ecut=    30.00 Ry     beta=0.70
     Davidson diagonalization with overlap
     ethr =  1.00E-02,  avg # of iterations =  1.0

     negative rho (up, down):  1.103E-02 0.000E+00

     total cpu time spent up to now is        7.8 secs

     total energy              =     -31.57548993 Ry
     Harris-Foulkes estimate   =     -31.73837060 Ry
     estimated scf accuracy    <       3.09061478 Ry

     iteration #  6     ecut=    30.00 Ry     beta=0.70
     Davidson diagonalization with overlap
     ethr =  1.00E-02,  avg # of iterations =  1.0

     negative rho (up, down):  3.947E-03 0.000E+00

     total cpu time spent up to now is        7.8 secs

     total energy              =     -30.88747672 Ry
     Harris-Foulkes estimate   =     -31.57614768 Ry
     estimated scf accuracy    <       2.73112235 Ry

     iteration #  7     ecut=    30.00 Ry     beta=0.70
     Davidson diagonalization with overlap
     ethr =  1.00E-02,  avg # of iterations =  2.0

     negative rho (up, down):  3.609E-03 0.000E+00

     total cpu time spent up to now is        7.8 secs

     total energy              =     -32.01339399 Ry
     Harris-Foulkes estimate   =     -32.40103660 Ry
     estimated scf accuracy    <       5.02396936 Ry

     iteration #  8     ecut=    30.00 Ry     beta=0.70
     Davidson diagonalization with overlap
     ethr =  1.00E-02,  avg # of iterations =  1.0

     negative rho (up, down):  4.266E-03 0.000E+00

     total cpu time spent up to now is        7.9 secs

     total energy              =     -31.63385036 Ry
     Harris-Foulkes estimate   =     -32.01786394 Ry
     estimated scf accuracy    <       4.43200195 Ry

     iteration #  9     ecut=    30.00 Ry     beta=0.70
     Davidson diagonalization with overlap
     ethr =  1.00E-02,  avg # of iterations =  1.0

     negative rho (up, down):  4.204E-03 0.000E+00

     total cpu time spent up to now is        7.9 secs

     total energy              =     -31.66037188 Ry
     Harris-Foulkes estimate   =     -31.63983891 Ry
     estimated scf accuracy    <       4.31788156 Ry

     iteration # 10     ecut=    30.00 Ry     beta=0.70
     Davidson diagonalization with overlap
     ethr =  1.00E-02,  avg # of iterations =  1.0

     negative rho (up, down):  1.642E-03 0.000E+00

     total cpu time spent up to now is        7.9 secs

     total energy              =     -32.52769717 Ry
     Harris-Foulkes estimate   =     -31.66055125 Ry
     estimated scf accuracy    <       4.37067349 Ry

     iteration # 11     ecut=    30.00 Ry     beta=0.70
     Davidson diagonalization with overlap
     ethr =  1.00E-02,  avg # of iterations =  1.0

     negative rho (up, down):  3.866E-02 0.000E+00

     total cpu time spent up to now is        8.0 secs

     total energy              =     -32.54416094 Ry
     Harris-Foulkes estimate   =     -32.52889857 Ry
     estimated scf accuracy    <       5.22693916 Ry

     iteration # 12     ecut=    30.00 Ry     beta=0.70
     Davidson diagonalization with overlap
     ethr =  1.00E-02,  avg # of iterations =  1.0

     negative rho (up, down):  1.140E-01 0.000E+00

     total cpu time spent up to now is        8.0 secs

     total energy              =     -33.07094207 Ry
     Harris-Foulkes estimate   =     -32.55133061 Ry
     estimated scf accuracy    <       5.27238312 Ry

     iteration # 13     ecut=    30.00 Ry     beta=0.70
     Davidson diagonalization with overlap
     ethr =  1.00E-02,  avg # of iterations =  1.0

     negative rho (up, down):  3.032E-03 0.000E+00

     total cpu time spent up to now is        8.0 secs

     total energy              =     -31.46251279 Ry
     Harris-Foulkes estimate   =     -33.07960768 Ry
     estimated scf accuracy    <       6.38146986 Ry

     iteration # 14     ecut=    30.00 Ry     beta=0.70
     Davidson diagonalization with overlap
     ethr =  1.00E-02,  avg # of iterations =  2.0

     negative rho (up, down):  1.124E-02 0.000E+00

     total cpu time spent up to now is        8.1 secs

     total energy              =     -31.80218113 Ry
     Harris-Foulkes estimate   =     -31.55715102 Ry
     estimated scf accuracy    <       1.65608349 Ry

     iteration # 15     ecut=    30.00 Ry     beta=0.70
     Davidson diagonalization with overlap
     ethr =  1.00E-02,  avg # of iterations =  1.0

     negative rho (up, down):  9.791E-02 0.000E+00

     total cpu time spent up to now is        8.1 secs

     total energy              =     -32.62315437 Ry
     Harris-Foulkes estimate   =     -32.06491050 Ry
     estimated scf accuracy    <       4.47098904 Ry

     iteration # 16     ecut=    30.00 Ry     beta=0.70
     Davidson diagonalization with overlap
     ethr =  1.00E-02,  avg # of iterations =  1.0

     negative rho (up, down):  2.189E-01 0.000E+00

     total cpu time spent up to now is        8.1 secs

     total energy              =     -32.66262210 Ry
     Harris-Foulkes estimate   =     -32.63600345 Ry
     estimated scf accuracy    <       5.42609080 Ry

     iteration # 17     ecut=    30.00 Ry     beta=0.70
     Davidson diagonalization with overlap
     ethr =  1.00E-02,  avg # of iterations =  1.0

     negative rho (up, down):  1.147E-01 0.000E+00

     total cpu time spent up to now is        8.2 secs

     total energy              =     -31.06598252 Ry
     Harris-Foulkes estimate   =     -32.66925769 Ry
     estimated scf accuracy    <       5.54254539 Ry

     iteration # 18     ecut=    30.00 Ry     beta=0.70
     Davidson diagonalization with overlap
     ethr =  1.00E-02,  avg # of iterations =  2.0

     negative rho (up, down):  6.162E-02 0.000E+00

     total cpu time spent up to now is        8.2 secs

     total energy              =     -31.79395604 Ry
     Harris-Foulkes estimate   =     -32.14154080 Ry
     estimated scf accuracy    <       1.98001556 Ry

     iteration # 19     ecut=    30.00 Ry     beta=0.70
     Davidson diagonalization with overlap
     ethr =  1.00E-02,  avg # of iterations =  1.0

     negative rho (up, down):  2.749E-02 0.000E+00

     total cpu time spent up to now is        8.2 secs

     total energy              =     -32.55313426 Ry
     Harris-Foulkes estimate   =     -32.78302669 Ry
     estimated scf accuracy    <       4.71014254 Ry

     iteration # 20     ecut=    30.00 Ry     beta=0.70
     Davidson diagonalization with overlap
     ethr =  1.00E-02,  avg # of iterations =  1.0

     negative rho (up, down):  3.394E-04 0.000E+00

     total cpu time spent up to now is        8.3 secs

     total energy              =     -31.88607654 Ry
     Harris-Foulkes estimate   =     -32.54200838 Ry
     estimated scf accuracy    <       4.38701303 Ry

     iteration # 21     ecut=    30.00 Ry     beta=0.70
     Davidson diagonalization with overlap
     ethr =  1.00E-02,  avg # of iterations =  1.0

     total cpu time spent up to now is        8.3 secs

     total energy              =     -31.32377166 Ry
     Harris-Foulkes estimate   =     -31.89818844 Ry
     estimated scf accuracy    <       3.33693864 Ry

     iteration # 22     ecut=    30.00 Ry     beta=0.70
     Davidson diagonalization with overlap
     ethr =  1.00E-02,  avg # of iterations =  1.0

     total cpu time spent up to now is        8.3 secs

     total energy              =     -31.41818299 Ry
[...]
     Harris-Foulkes estimate   =     -32.31459978 Ry
     estimated scf accuracy    <       5.00405990 Ry

     iteration # 58     ecut=    30.00 Ry     beta=0.70
     Davidson diagonalization with overlap
     ethr =  1.53E-03,  avg # of iterations =  1.0

     negative rho (up, down):  7.074E-06 0.000E+00

     total cpu time spent up to now is       15.9 secs

     total energy              =     -32.00114390 Ry
     Harris-Foulkes estimate   =     -32.14014121 Ry
     estimated scf accuracy    <       4.72366870 Ry

     iteration # 59     ecut=    30.00 Ry     beta=0.70
     Davidson diagonalization with overlap
     ethr =  1.53E-03,  avg # of iterations =  1.0

     negative rho (up, down):  1.267E-07 0.000E+00

     total cpu time spent up to now is       15.9 secs

     total energy              =     -31.69747669 Ry
     Harris-Foulkes estimate   =     -32.00160659 Ry
     estimated scf accuracy    <       4.50403368 Ry

     iteration # 60     ecut=    30.00 Ry     beta=0.70
     Davidson diagonalization with overlap
     ethr =  1.53E-03,  avg # of iterations =  1.0

     negative rho (up, down):  4.728E-02 0.000E+00

     total cpu time spent up to now is       16.0 secs

     total energy              =     -29.60824537 Ry
     Harris-Foulkes estimate   =     -31.69922087 Ry
     estimated scf accuracy    <       4.04584497 Ry

     iteration # 61     ecut=    30.00 Ry     beta=0.70
     Davidson diagonalization with overlap
     ethr =  1.53E-03,  avg # of iterations =  4.0

     negative rho (up, down):  2.001E-02 0.000E+00

     total cpu time spent up to now is       16.0 secs

     total energy              =     -33.63637431 Ry
     Harris-Foulkes estimate   =     -33.99096597 Ry
     estimated scf accuracy    <       6.58536479 Ry

     iteration # 62     ecut=    30.00 Ry     beta=0.70
     Davidson diagonalization with overlap
     ethr =  1.53E-03,  avg # of iterations =  1.0

     negative rho (up, down):  3.704E-03 0.000E+00

     total cpu time spent up to now is       16.1 secs

     total energy              =     -33.03109190 Ry
     Harris-Foulkes estimate   =     -33.63867650 Ry
     estimated scf accuracy    <       6.05014126 Ry

     iteration # 63     ecut=    30.00 Ry     beta=0.70
     Davidson diagonalization with overlap
     ethr =  1.53E-03,  avg # of iterations =  1.0

     negative rho (up, down):  1.411E-02 0.000E+00

     total cpu time spent up to now is       16.1 secs

     total energy              =     -30.10789767 Ry
     Harris-Foulkes estimate   =     -33.03773991 Ry
     estimated scf accuracy    <       5.12382926 Ry

     iteration # 64     ecut=    30.00 Ry     beta=0.70
     Davidson diagonalization with overlap
     ethr =  1.53E-03,  avg # of iterations =  9.0

     negative rho (up, down):  5.653E-08 0.000E+00

     total cpu time spent up to now is       16.2 secs

     total energy              =     -29.10985267 Ry
     Harris-Foulkes estimate   =     -33.49520923 Ry
     estimated scf accuracy    <      14.38367897 Ry

     iteration # 65     ecut=    30.00 Ry     beta=0.70
     Davidson diagonalization with overlap
     ethr =  1.53E-03,  avg # of iterations =  4.0

     total cpu time spent up to now is       16.2 secs

     total energy              =     -31.61011917 Ry
     Harris-Foulkes estimate   =     -32.19163638 Ry
     estimated scf accuracy    <       3.81186021 Ry

     iteration # 66     ecut=    30.00 Ry     beta=0.70
     Davidson diagonalization with overlap
     ethr =  1.53E-03,  avg # of iterations =  1.0

     total cpu time spent up to now is       16.2 secs

     total energy              =     -31.35314852 Ry
     Harris-Foulkes estimate   =     -31.61823447 Ry
     estimated scf accuracy    <       2.91340383 Ry

     iteration # 67     ecut=    30.00 Ry     beta=0.70
     Davidson diagonalization with overlap
     ethr =  1.53E-03,  avg # of iterations =  1.0

     total cpu time spent up to now is       16.3 secs

     total energy              =     -31.28567557 Ry
     Harris-Foulkes estimate   =     -31.58629363 Ry
     estimated scf accuracy    <       4.71847573 Ry

     iteration # 68     ecut=    30.00 Ry     beta=0.70
     Davidson diagonalization with overlap
     ethr =  1.53E-03,  avg # of iterations =  1.0

     total cpu time spent up to now is       16.3 secs

     total energy              =     -31.56911901 Ry
     Harris-Foulkes estimate   =     -31.58885414 Ry
     estimated scf accuracy    <       2.83999179 Ry

     iteration # 69     ecut=    30.00 Ry     beta=0.70
     Davidson diagonalization with overlap
     ethr =  1.53E-03,  avg # of iterations =  1.0

     total cpu time spent up to now is       16.3 secs

     total energy              =     -31.51131557 Ry
     Harris-Foulkes estimate   =     -31.56921176 Ry
     estimated scf accuracy    <       2.79905956 Ry

     iteration # 70     ecut=    30.00 Ry     beta=0.70
     Davidson diagonalization with overlap
     ethr =  1.53E-03,  avg # of iterations =  1.0

     total cpu time spent up to now is       16.4 secs

     total energy              =     -31.49561892 Ry
     Harris-Foulkes estimate   =     -31.51462716 Ry
     estimated scf accuracy    <       1.75013708 Ry

     iteration # 71     ecut=    30.00 Ry     beta=0.70
     Davidson diagonalization with overlap
     ethr =  1.53E-03,  avg # of iterations =  1.0

     total cpu time spent up to now is       16.4 secs

     total energy              =     -31.47168166 Ry
     Harris-Foulkes estimate   =     -31.49944738 Ry
     estimated scf accuracy    <       0.70377015 Ry

     iteration # 72     ecut=    30.00 Ry     beta=0.70
     Davidson diagonalization with overlap
     ethr =  1.53E-03,  avg # of iterations =  1.0

     total cpu time spent up to now is       16.5 secs

     total energy              =     -31.44793249 Ry
     Harris-Foulkes estimate   =     -31.49798529 Ry
     estimated scf accuracy    <       0.85074821 Ry

     iteration # 73     ecut=    30.00 Ry     beta=0.70
     Davidson diagonalization with overlap
     ethr =  1.53E-03,  avg # of iterations =  1.0

     negative rho (up, down):  2.932E-04 0.000E+00

     total cpu time spent up to now is       16.5 secs

     total energy              =     -31.96398906 Ry
     Harris-Foulkes estimate   =     -31.52861878 Ry
     estimated scf accuracy    <       2.28387827 Ry

     iteration # 74     ecut=    30.00 Ry     beta=0.70
     Davidson diagonalization with overlap
     ethr =  1.53E-03,  avg # of iterations =  2.0

     negative rho (up, down):  2.322E-02 0.000E+00

     total cpu time spent up to now is       16.5 secs

     total energy              =     -33.01327811 Ry
     Harris-Foulkes estimate   =     -32.01737620 Ry
     estimated scf accuracy    <       3.46977011 Ry

     iteration # 75     ecut=    30.00 Ry     beta=0.70
     Davidson diagonalization with overlap
     ethr =  1.53E-03,  avg # of iterations =  3.0

     negative rho (up, down):  7.768E-03 0.000E+00

     total cpu time spent up to now is       16.6 secs

     total energy              =     -32.66475484 Ry
     Harris-Foulkes estimate   =     -33.03244530 Ry
     estimated scf accuracy    <       5.00758894 Ry

     iteration # 76     ecut=    30.00 Ry     beta=0.70
     Davidson diagonalization with overlap
     ethr =  1.53E-03,  avg # of iterations =  1.0

     negative rho (up, down):  5.985E-06 0.000E+00

     total cpu time spent up to now is       16.6 secs

     total energy              =     -31.75330739 Ry
     Harris-Foulkes estimate   =     -32.66668841 Ry
     estimated scf accuracy    <       4.47464215 Ry

     iteration # 77     ecut=    30.00 Ry     beta=0.70
     Davidson diagonalization with overlap
     ethr =  1.53E-03,  avg # of iterations =  2.0

     negative rho (up, down):  4.766E-06 0.000E+00

     total cpu time spent up to now is       16.6 secs

     total energy              =     -31.82711297 Ry
     Harris-Foulkes estimate   =     -31.75630176 Ry
     estimated scf accuracy    <       3.08977452 Ry

     iteration # 78     ecut=    30.00 Ry     beta=0.70
     Davidson diagonalization with overlap
     ethr =  1.53E-03,  avg # of iterations =  1.0

     negative rho (up, down):  5.212E-06 0.000E+00

     total cpu time spent up to now is       16.7 secs

     total energy              =     -31.89827752 Ry
     Harris-Foulkes estimate   =     -31.82735024 Ry
     estimated scf accuracy    <       3.21024741 Ry

     iteration # 79     ecut=    30.00 Ry     beta=0.70
     Davidson diagonalization with overlap
     ethr =  1.53E-03,  avg # of iterations =  1.0

     negative rho (up, down):  2.142E-04 0.000E+00

     total cpu time spent up to now is       16.7 secs

     total energy              =     -32.74385943 Ry
     Harris-Foulkes estimate   =     -31.89850132 Ry
     estimated scf accuracy    <       3.33216722 Ry

     iteration # 80     ecut=    30.00 Ry     beta=0.70
     Davidson diagonalization with overlap
     ethr =  1.53E-03,  avg # of iterations =  2.0

     negative rho (up, down):  6.834E-01 0.000E+00

     total cpu time spent up to now is       16.7 secs

     total energy              =     -29.17027298 Ry
     Harris-Foulkes estimate   =     -32.76840788 Ry
     estimated scf accuracy    <       4.61446362 Ry

     iteration # 81     ecut=    30.00 Ry     beta=0.70
     Davidson diagonalization with overlap
     ethr =  1.53E-03,  avg # of iterations = 12.0

     negative rho (up, down):  1.340E-01 0.000E+00

     total cpu time spent up to now is       16.8 secs

     total energy              =     -37.14543024 Ry
     Harris-Foulkes estimate   =     -43.63430868 Ry
     estimated scf accuracy    <      47.63680097 Ry

     iteration # 82     ecut=    30.00 Ry     beta=0.70
     Davidson diagonalization with overlap
     ethr =  1.53E-03,  avg # of iterations =  4.0

     negative rho (up, down):  4.540E-01 0.000E+00

     total cpu time spent up to now is       16.8 secs

     total energy              =     -40.82393923 Ry
     Harris-Foulkes estimate   =     -37.69068852 Ry
     estimated scf accuracy    <      39.69217527 Ry

     iteration # 83     ecut=    30.00 Ry     beta=0.70
     Davidson diagonalization with overlap
     ethr =  1.53E-03,  avg # of iterations =  3.0

     negative rho (up, down):  1.377E-01 0.000E+00

     total cpu time spent up to now is       16.9 secs

     total energy              =     -38.00836064 Ry
     Harris-Foulkes estimate   =     -41.10933585 Ry
     estimated scf accuracy    <      44.44130137 Ry

     iteration # 84     ecut=    30.00 Ry     beta=0.70
     Davidson diagonalization with overlap
     ethr =  1.53E-03,  avg # of iterations =  3.0

     negative rho (up, down):  8.164E-02 0.000E+00

     total cpu time spent up to now is       16.9 secs

     total energy              =     -35.25492010 Ry
     Harris-Foulkes estimate   =     -38.09420268 Ry
     estimated scf accuracy    <      39.99821136 Ry

     iteration # 85     ecut=    30.00 Ry     beta=0.70
     Davidson diagonalization with overlap
     ethr =  1.53E-03,  avg # of iterations =  5.0

     negative rho (up, down):  8.546E-02 0.000E+00

     total cpu time spent up to now is       17.0 secs

     total energy              =     -36.31656143 Ry
     Harris-Foulkes estimate   =     -36.53930438 Ry
     estimated scf accuracy    <      19.61424004 Ry

     iteration # 86     ecut=    30.00 Ry     beta=0.70
     Davidson diagonalization with overlap
     ethr =  1.53E-03,  avg # of iterations =  1.0

     negative rho (up, down):  7.905E-02 0.000E+00

     total cpu time spent up to now is       17.0 secs

     total energy              =     -37.76228502 Ry
     Harris-Foulkes estimate   =     -36.32301845 Ry
     estimated scf accuracy    <      19.27204676 Ry

     iteration # 87     ecut=    30.00 Ry     beta=0.70
     Davidson diagonalization with overlap
     ethr =  1.53E-03,  avg # of iterations =  2.0

     negative rho (up, down):  1.354E-01 0.000E+00

     total cpu time spent up to now is       17.0 secs

     total energy              =     -38.84643105 Ry
     Harris-Foulkes estimate   =     -37.79129495 Ry
     estimated scf accuracy    <      21.38552330 Ry

     iteration # 88     ecut=    30.00 Ry     beta=0.70
     Davidson diagonalization with overlap
     ethr =  1.53E-03,  avg # of iterations =  3.0

     negative rho (up, down):  1.327E-01 0.000E+00

     total cpu time spent up to now is       17.1 secs

     total energy              =     -29.10163011 Ry
     Harris-Foulkes estimate   =     -39.29648024 Ry
     estimated scf accuracy    <      22.54168627 Ry

     iteration # 89     ecut=    30.00 Ry     beta=0.70
     Davidson diagonalization with overlap
     ethr =  1.53E-03,  avg # of iterations = 11.0

     negative rho (up, down):  1.253E-01 0.000E+00

     total cpu time spent up to now is       17.1 secs

     total energy              =     -30.93014649 Ry
     Harris-Foulkes estimate   =     -31.63536860 Ry
     estimated scf accuracy    <       2.78931476 Ry

     iteration # 90     ecut=    30.00 Ry     beta=0.70
     Davidson diagonalization with overlap
     ethr =  1.53E-03,  avg # of iterations =  2.0

     negative rho (up, down):  1.473E-01 0.000E+00

     total cpu time spent up to now is       17.2 secs

     total energy              =     -31.96068786 Ry
     Harris-Foulkes estimate   =     -32.13913366 Ry
     estimated scf accuracy    <       4.73890722 Ry

     iteration # 91     ecut=    30.00 Ry     beta=0.70
     Davidson diagonalization with overlap
     ethr =  1.53E-03,  avg # of iterations =  1.0

     negative rho (up, down):  1.677E-01 0.000E+00

     total cpu time spent up to now is       17.2 secs

     total energy              =     -31.65141384 Ry
     Harris-Foulkes estimate   =     -31.96213321 Ry
     estimated scf accuracy    <       4.45569210 Ry

     iteration # 92     ecut=    30.00 Ry     beta=0.70
     Davidson diagonalization with overlap
     ethr =  1.53E-03,  avg # of iterations =  1.0

     negative rho (up, down):  1.703E-01 0.000E+00

     total cpu time spent up to now is       17.2 secs

     total energy              =     -31.60083678 Ry
     Harris-Foulkes estimate   =     -31.65215632 Ry
     estimated scf accuracy    <       4.53277261 Ry

     iteration # 93     ecut=    30.00 Ry     beta=0.70
     Davidson diagonalization with overlap
     ethr =  1.53E-03,  avg # of iterations =  1.0

     negative rho (up, down):  1.470E-02 0.000E+00

     total cpu time spent up to now is       17.3 secs

     total energy              =     -31.78407339 Ry
     Harris-Foulkes estimate   =     -31.62206427 Ry
     estimated scf accuracy    <       1.40700884 Ry

     iteration # 94     ecut=    30.00 Ry     beta=0.70
     Davidson diagonalization with overlap
     ethr =  1.53E-03,  avg # of iterations =  2.0

     negative rho (up, down):  9.166E-06 0.000E+00

     total cpu time spent up to now is       17.3 secs

     total energy              =     -31.82641878 Ry
     Harris-Foulkes estimate   =     -32.09544881 Ry
     estimated scf accuracy    <       4.61418912 Ry

     iteration # 95     ecut=    30.00 Ry     beta=0.70
     Davidson diagonalization with overlap
     ethr =  1.53E-03,  avg # of iterations =  1.0

     negative rho (up, down):  2.246E-06 0.000E+00

     total cpu time spent up to now is       17.3 secs

     total energy              =     -31.78678266 Ry
     Harris-Foulkes estimate   =     -31.82855047 Ry
     estimated scf accuracy    <       4.18625847 Ry

     iteration # 96     ecut=    30.00 Ry     beta=0.70
     Davidson diagonalization with overlap
     ethr =  1.53E-03,  avg # of iterations =  1.0

     negative rho (up, down):  4.716E-07 0.000E+00

     total cpu time spent up to now is       17.4 secs

     total energy              =     -31.36520706 Ry
     Harris-Foulkes estimate   =     -31.78706617 Ry
     estimated scf accuracy    <       4.10634688 Ry

     iteration # 97     ecut=    30.00 Ry     beta=0.70
     Davidson diagonalization with overlap
     ethr =  1.53E-03,  avg # of iterations =  1.0

     negative rho (up, down):  1.004E-04 0.000E+00

     total cpu time spent up to now is       17.4 secs

     total energy              =     -31.57653700 Ry
     Harris-Foulkes estimate   =     -31.53992058 Ry
     estimated scf accuracy    <       2.50883549 Ry

     iteration # 98     ecut=    30.00 Ry     beta=0.70
     Davidson diagonalization with overlap
     ethr =  1.53E-03,  avg # of iterations =  1.0

     negative rho (up, down):  2.263E-04 0.000E+00

     total cpu time spent up to now is       17.4 secs

     total energy              =     -31.61186047 Ry
     Harris-Foulkes estimate   =     -31.57813165 Ry
     estimated scf accuracy    <       2.81737384 Ry

     iteration # 99     ecut=    30.00 Ry     beta=0.70
     Davidson diagonalization with overlap
     ethr =  1.53E-03,  avg # of iterations =  1.0

     negative rho (up, down):  2.124E-04 0.000E+00

     total cpu time spent up to now is       17.5 secs

     total energy              =     -31.59525114 Ry
     Harris-Foulkes estimate   =     -31.61195453 Ry
     estimated scf accuracy    <       2.88156434 Ry

     iteration #100     ecut=    30.00 Ry     beta=0.70
     Davidson diagonalization with overlap
     ethr =  1.53E-03,  avg # of iterations =  1.0

     negative rho (up, down):  1.882E-04 0.000E+00

     total cpu time spent up to now is       17.5 secs

     total energy              =     -31.50902128 Ry
     Harris-Foulkes estimate   =     -31.59526744 Ry
     estimated scf accuracy    <       2.85423655 Ry

     End of self-consistent calculation

     convergence NOT achieved after 100 iterations: stopping

     Writing output data file pwscf.save
 
     init_run     :      0.09s CPU      0.11s WALL (       1 calls)
     electrons    :     11.31s CPU     14.75s WALL (      11 calls)
     update_pot   :      1.22s CPU      1.76s WALL (      10 calls)
     forces       :      0.27s CPU      0.28s WALL (      10 calls)

     Called by init_run:
     wfcinit      :      0.01s CPU      0.02s WALL (       1 calls)
     potinit      :      0.02s CPU      0.03s WALL (       1 calls)

     Called by electrons:
     c_bands      :      4.60s CPU      4.98s WALL (     379 calls)
     sum_band     :      1.14s CPU      1.32s WALL (     379 calls)
     v_of_rho     :      2.71s CPU      2.86s WALL (     390 calls)
     mix_rho      :      2.49s CPU      4.34s WALL (     379 calls)

     Called by c_bands:
     init_us_2    :      0.04s CPU      0.04s WALL (     759 calls)
     cegterg      :      4.52s CPU      4.79s WALL (     379 calls)

     Called by sum_band:

     Called by *egterg:
     h_psi        :      3.77s CPU      3.96s WALL (    1309 calls)
     g_psi        :      0.03s CPU      0.03s WALL (     929 calls)
     cdiaghg      :      0.23s CPU      0.24s WALL (    1298 calls)

     Called by h_psi:
     h_psi:pot    :      3.75s CPU      3.93s WALL (    1309 calls)
     h_psi:calbec :      0.05s CPU      0.15s WALL (    1309 calls)
     vloc_psi     :      3.68s CPU      3.77s WALL (    1309 calls)
     add_vuspsi   :      0.01s CPU      0.01s WALL (    1309 calls)

     General routines
     calbec       :      0.13s CPU      0.26s WALL (    1358 calls)
     fft          :      1.95s CPU      2.05s WALL (    4310 calls)
     fftw         :      4.03s CPU      4.28s WALL (   17834 calls)
     davcio       :      0.41s CPU      1.62s WALL (    6614 calls)
 
     Parallel routines
     fft_scatter  :      2.44s CPU      2.70s WALL (   22144 calls)
 
     PWSCF        :    13.19s CPU        17.62s WALL

 
   This run was terminated on:   0:55:40  11Feb2018            

=------------------------------------------------------------------------------=
   JOB DONE.
=------------------------------------------------------------------------------=
