
     Program PWSCF v.6.0 (svn rev. 13079) starts on 11Feb2018 at  0:56:53 

     This program is part of the open-source Quantum ESPRESSO suite
     for quantum simulation of materials; please cite
         "P. Giannozzi et al., J. Phys.:Condens. Matter 21 395502 (2009);
          URL http://www.quantum-espresso.org", 
     in publications or presentations arising from this work. More details at
     http://www.quantum-espresso.org/quote

     Parallel version (MPI), running on    28 processors
     R & G space division:  proc/nbgrp/npool/nimage =      28
     Reading input from inputs/water-1-md/259.in

     Current dimensions of program PWSCF are:
     Max number of different atomic species (ntypx) = 10
     Max number of k-points (npk) =  40000
     Max angular momentum in pseudopotentials (lmaxx) =  3

     Subspace diagonalization in iterative solution of the eigenvalue problem:
     a serial algorithm will be used

 
     Parallelization info
     --------------------
     sticks:   dense  smooth     PW     G-vecs:    dense   smooth      PW
     Min         136     136     33                 6338     6338     787
     Max         137     137     34                 6341     6341     792
     Sum        3809    3809    949               177509   177509   22119
 


     bravais-lattice index     =            1
     lattice parameter (alat)  =      20.0000  a.u.
     unit-cell volume          =    8000.0000 (a.u.)^3
     number of atoms/cell      =            3
     number of atomic types    =            2
     number of electrons       =         8.00
     number of Kohn-Sham states=            8
     kinetic-energy cutoff     =      30.0000  Ry
     charge density cutoff     =     120.0000  Ry
     convergence threshold     =      1.0E-08
     mixing beta               =       0.7000
     number of iterations used =            8  plain     mixing
     Exchange-correlation      = BLYP ( 1  3  1  3 0 0)
     nstep                     =         5000


     celldm(1)=  20.000000  celldm(2)=   0.000000  celldm(3)=   0.000000
     celldm(4)=   0.000000  celldm(5)=   0.000000  celldm(6)=   0.000000

     crystal axes: (cart. coord. in units of alat)
               a(1) = (   1.000000   0.000000   0.000000 )  
               a(2) = (   0.000000   1.000000   0.000000 )  
               a(3) = (   0.000000   0.000000   1.000000 )  

     reciprocal axes: (cart. coord. in units 2 pi/alat)
               b(1) = (  1.000000  0.000000  0.000000 )  
               b(2) = (  0.000000  1.000000  0.000000 )  
               b(3) = (  0.000000  0.000000  1.000000 )  


     PseudoPot. # 1 for  H read from file:
     ./H.blyp-hgh.UPF
     MD5 check sum: c576e69559cde411e611be972c763230
     Pseudo is Norm-conserving, Zval =  1.0
     Generated in analytical, separable form
     Using radial grid of  929 points,  0 beta functions with: 

     PseudoPot. # 2 for  O read from file:
     ./O.blyp-hgh.UPF
     MD5 check sum: d0b7156309aa9befef28faac7bc56342
     Pseudo is Norm-conserving, Zval =  6.0
     Generated in analytical, separable form
     Using radial grid of 1095 points,  1 beta functions with: 
                l(1) =   0

     atomic species   valence    mass     pseudopotential
        H              1.00     1.01000      H( 1.00)
        O              6.00    16.00000      O( 1.00)

     No symmetry found



   Cartesian axes

     site n.     atom                  positions (alat units)
         1           H   tau(   1) = (   0.9222492   0.2878513   0.0489057  )
         2           H   tau(   2) = (   0.6122421   0.0109080   0.5547540  )
         3           O   tau(   3) = (   0.2638544   0.3199001   0.0166073  )

     number of k points=     1  Marzari-Vanderbilt smearing, width (Ry)=  0.0250
                       cart. coord. in units 2pi/alat
        k(    1) = (   0.0000000   0.0000000   0.0000000), wk =   2.0000000

     Dense  grid:   177509 G-vectors     FFT dimensions: (  72,  72,  72)

     Estimated max dynamical RAM per process >       6.09Mb

     Estimated total allocated dynamical RAM >     170.64Mb

     Initial potential from superposition of free atoms
     Check: negative starting charge=   -0.343809

     starting charge    7.99998, renormalised to    8.00000

     negative rho (up, down):  3.438E-01 0.000E+00
     Starting wfc are    6 randomized atomic wfcs +    2 random wfc

     total cpu time spent up to now is        0.2 secs

     per-process dynamical memory:    18.8 Mb

     Self-consistent Calculation

     iteration #  1     ecut=    30.00 Ry     beta=0.70
     Davidson diagonalization with overlap
     ethr =  1.00E-02,  avg # of iterations =  7.0

     negative rho (up, down):  8.312E-02 0.000E+00

     total cpu time spent up to now is        0.3 secs

     total energy              =     -28.24472012 Ry
     Harris-Foulkes estimate   =     -32.07283504 Ry
     estimated scf accuracy    <       4.40641716 Ry

     iteration #  2     ecut=    30.00 Ry     beta=0.70
     Davidson diagonalization with overlap
     ethr =  1.00E-02,  avg # of iterations =  4.0

     negative rho (up, down):  6.094E-02 0.000E+00

     total cpu time spent up to now is        0.3 secs

     total energy              =     -32.55446778 Ry
     Harris-Foulkes estimate   =     -37.63654147 Ry
     estimated scf accuracy    <      12.44530520 Ry

     iteration #  3     ecut=    30.00 Ry     beta=0.70
     Davidson diagonalization with overlap
     ethr =  1.00E-02,  avg # of iterations =  3.0

     negative rho (up, down):  6.310E-02 0.000E+00

     total cpu time spent up to now is        0.4 secs

     total energy              =     -33.11248151 Ry
     Harris-Foulkes estimate   =     -32.89199337 Ry
     estimated scf accuracy    <       4.75731941 Ry

     iteration #  4     ecut=    30.00 Ry     beta=0.70
     Davidson diagonalization with overlap
     ethr =  1.00E-02,  avg # of iterations =  1.0

     negative rho (up, down):  2.468E-02 0.000E+00

     total cpu time spent up to now is        0.4 secs

     total energy              =     -30.24293391 Ry
     Harris-Foulkes estimate   =     -33.11323643 Ry
     estimated scf accuracy    <       5.08982176 Ry

     iteration #  5     ecut=    30.00 Ry     beta=0.70
     Davidson diagonalization with overlap
     ethr =  1.00E-02,  avg # of iterations =  5.0

     negative rho (up, down):  2.057E-02 0.000E+00

     total cpu time spent up to now is        0.4 secs

     total energy              =     -33.17133775 Ry
     Harris-Foulkes estimate   =     -33.24699021 Ry
     estimated scf accuracy    <      13.38246098 Ry

     iteration #  6     ecut=    30.00 Ry     beta=0.70
     Davidson diagonalization with overlap
     ethr =  1.00E-02,  avg # of iterations =  1.0

     negative rho (up, down):  6.572E-02 0.000E+00

     total cpu time spent up to now is        0.5 secs

     total energy              =     -32.60024196 Ry
     Harris-Foulkes estimate   =     -33.17767250 Ry
     estimated scf accuracy    <      12.89443878 Ry

     iteration #  7     ecut=    30.00 Ry     beta=0.70
     Davidson diagonalization with overlap
     ethr =  1.00E-02,  avg # of iterations =  2.0

     negative rho (up, down):  2.877E-03 0.000E+00

     total cpu time spent up to now is        0.5 secs

     total energy              =     -32.59541787 Ry
     Harris-Foulkes estimate   =     -32.76490217 Ry
     estimated scf accuracy    <       5.70338516 Ry

     iteration #  8     ecut=    30.00 Ry     beta=0.70
     Davidson diagonalization with overlap
     ethr =  1.00E-02,  avg # of iterations =  1.0

     negative rho (up, down):  6.280E-02 0.000E+00

     total cpu time spent up to now is        0.5 secs

     total energy              =     -31.43046928 Ry
     Harris-Foulkes estimate   =     -32.59775180 Ry
     estimated scf accuracy    <       5.36018322 Ry

     iteration #  9     ecut=    30.00 Ry     beta=0.70
     Davidson diagonalization with overlap
     ethr =  1.00E-02,  avg # of iterations =  2.0

     negative rho (up, down):  6.324E-02 0.000E+00

     total cpu time spent up to now is        0.6 secs

     total energy              =     -31.49929936 Ry
     Harris-Foulkes estimate   =     -31.49827192 Ry
     estimated scf accuracy    <       0.48613856 Ry

     iteration # 10     ecut=    30.00 Ry     beta=0.70
     Davidson diagonalization with overlap
     ethr =  6.08E-03,  avg # of iterations =  1.0

     negative rho (up, down):  5.912E-02 0.000E+00

     total cpu time spent up to now is        0.6 secs

     total energy              =     -31.54154661 Ry
     Harris-Foulkes estimate   =     -31.50022199 Ry
     estimated scf accuracy    <       0.66169741 Ry

     iteration # 11     ecut=    30.00 Ry     beta=0.70
     Davidson diagonalization with overlap
     ethr =  6.08E-03,  avg # of iterations =  1.0

     negative rho (up, down):  6.616E-02 0.000E+00

     total cpu time spent up to now is        0.6 secs

     total energy              =     -31.40039211 Ry
     Harris-Foulkes estimate   =     -31.60621219 Ry
     estimated scf accuracy    <       3.80337921 Ry

     iteration # 12     ecut=    30.00 Ry     beta=0.70
     Davidson diagonalization with overlap
     ethr =  6.08E-03,  avg # of iterations =  1.0

     negative rho (up, down):  6.835E-02 0.000E+00

     total cpu time spent up to now is        0.7 secs

     total energy              =     -31.52379586 Ry
     Harris-Foulkes estimate   =     -31.50438877 Ry
     estimated scf accuracy    <       1.08888068 Ry

     iteration # 13     ecut=    30.00 Ry     beta=0.70
     Davidson diagonalization with overlap
     ethr =  6.08E-03,  avg # of iterations =  1.0

     negative rho (up, down):  1.675E-02 0.000E+00

     total cpu time spent up to now is        0.7 secs

     total energy              =     -31.24452528 Ry
     Harris-Foulkes estimate   =     -31.52762193 Ry
     estimated scf accuracy    <       2.00210759 Ry

     iteration # 14     ecut=    30.00 Ry     beta=0.70
     Davidson diagonalization with overlap
     ethr =  6.08E-03,  avg # of iterations =  1.0

     negative rho (up, down):  1.105E-03 0.000E+00

     total cpu time spent up to now is        0.7 secs

     total energy              =     -31.72734279 Ry
     Harris-Foulkes estimate   =     -31.78740716 Ry
     estimated scf accuracy    <       3.88138518 Ry

     iteration # 15     ecut=    30.00 Ry     beta=0.70
     Davidson diagonalization with overlap
     ethr =  6.08E-03,  avg # of iterations =  1.0

     negative rho (up, down):  8.485E-04 0.000E+00

     total cpu time spent up to now is        0.8 secs

     total energy              =     -31.67858173 Ry
     Harris-Foulkes estimate   =     -31.72760044 Ry
     estimated scf accuracy    <       3.78409055 Ry

     iteration # 16     ecut=    30.00 Ry     beta=0.70
     Davidson diagonalization with overlap
     ethr =  6.08E-03,  avg # of iterations =  1.0

     negative rho (up, down):  2.051E-03 0.000E+00

     total cpu time spent up to now is        0.8 secs

     total energy              =     -31.70757514 Ry
     Harris-Foulkes estimate   =     -31.67872986 Ry
     estimated scf accuracy    <       3.68878778 Ry

     iteration # 17     ecut=    30.00 Ry     beta=0.70
     Davidson diagonalization with overlap
     ethr =  6.08E-03,  avg # of iterations =  1.0

     negative rho (up, down):  8.462E-04 0.000E+00

     total cpu time spent up to now is        0.8 secs

     total energy              =     -31.65546793 Ry
     Harris-Foulkes estimate   =     -31.70762524 Ry
     estimated scf accuracy    <       3.74168151 Ry

     iteration # 18     ecut=    30.00 Ry     beta=0.70
     Davidson diagonalization with overlap
     ethr =  6.08E-03,  avg # of iterations =  1.0

     negative rho (up, down):  1.952E-03 0.000E+00

     total cpu time spent up to now is        0.9 secs

     total energy              =     -31.89030458 Ry
     Harris-Foulkes estimate   =     -31.65557916 Ry
     estimated scf accuracy    <       3.66062390 Ry

     iteration # 19     ecut=    30.00 Ry     beta=0.70
     Davidson diagonalization with overlap
     ethr =  6.08E-03,  avg # of iterations =  1.0

     negative rho (up, down):  4.905E-03 0.000E+00

     total cpu time spent up to now is        0.9 secs

     total energy              =     -31.77627550 Ry
     Harris-Foulkes estimate   =     -31.89234449 Ry
     estimated scf accuracy    <       4.06162044 Ry

     iteration # 20     ecut=    30.00 Ry     beta=0.70
     Davidson diagonalization with overlap
     ethr =  6.08E-03,  avg # of iterations =  1.0

     negative rho (up, down):  1.254E-02 0.000E+00

     total cpu time spent up to now is        0.9 secs

     total energy              =     -31.74214550 Ry
     Harris-Foulkes estimate   =     -31.77673796 Ry
     estimated scf accuracy    <       3.87725263 Ry

     iteration # 21     ecut=    30.00 Ry     beta=0.70
     Davidson diagonalization with overlap
     ethr =  6.08E-03,  avg # of iterations =  1.0

     negative rho (up, down):  1.259E-02 0.000E+00

     total cpu time spent up to now is        1.0 secs

     total energy              =     -31.70016486 Ry
     Harris-Foulkes estimate   =     -31.74230935 Ry
     estimated scf accuracy    <       3.80571438 Ry

     iteration # 22     ecut=    30.00 Ry     beta=0.70
     Davidson diagonalization with overlap
     ethr =  6.08E-03,  avg # of iterations =  1.0

     negative rho (up, down):  2.196E-01 0.000E+00

     total cpu time spent up to now is        1.0 secs

     total energy              =     -29.17980894 Ry
     Harris-Foulkes estimate   =     -31.70028884 Ry
     estimated scf accuracy    <       3.72439952 Ry

     iteration # 23     ecut=    30.00 Ry     beta=0.70
     Davidson diagonalization with overlap
     ethr =  6.08E-03,  avg # of iterations =  3.0

     negative rho (up, down):  2.677E-02 0.000E+00

     total cpu time spent up to now is        1.0 secs

     total energy              =     -32.86628601 Ry
     Harris-Foulkes estimate   =     -35.10675140 Ry
     estimated scf accuracy    <       8.18930935 Ry

     iteration # 24     ecut=    30.00 Ry     beta=0.70
     Davidson diagonalization with overlap
     ethr =  6.08E-03,  avg # of iterations =  3.0

     negative rho (up, down):  5.313E-04 0.000E+00

     total cpu time spent up to now is        1.1 secs

     total energy              =     -31.77126043 Ry
     Harris-Foulkes estimate   =     -32.94375549 Ry
     estimated scf accuracy    <       4.82078591 Ry

     iteration # 25     ecut=    30.00 Ry     beta=0.70
     Davidson diagonalization with overlap
     ethr =  6.08E-03,  avg # of iterations =  1.0

     negative rho (up, down):  1.238E-03 0.000E+00

     total cpu time spent up to now is        1.1 secs

     total energy              =     -31.67582965 Ry
     Harris-Foulkes estimate   =     -31.79214617 Ry
     estimated scf accuracy    <       2.96552293 Ry

     iteration # 26     ecut=    30.00 Ry     beta=0.70
     Davidson diagonalization with overlap
     ethr =  6.08E-03,  avg # of iterations =  1.0

     negative rho (up, down):  1.661E-03 0.000E+00

     total cpu time spent up to now is        1.1 secs

     total energy              =     -31.55300308 Ry
     Harris-Foulkes estimate   =     -31.67708821 Ry
     estimated scf accuracy    <       2.77518322 Ry

     iteration # 27     ecut=    30.00 Ry     beta=0.70
     Davidson diagonalization with overlap
     ethr =  6.08E-03,  avg # of iterations =  1.0

     negative rho (up, down):  1.494E-03 0.000E+00

     total cpu time spent up to now is        1.2 secs

     total energy              =     -31.56063583 Ry
     Harris-Foulkes estimate   =     -31.55481813 Ry
     estimated scf accuracy    <       2.38076591 Ry

     iteration # 28     ecut=    30.00 Ry     beta=0.70
     Davidson diagonalization with overlap
     ethr =  6.08E-03,  avg # of iterations =  1.0

     negative rho (up, down):  1.174E-03 0.000E+00

     total cpu time spent up to now is        1.2 secs

     total energy              =     -31.53149250 Ry
     Harris-Foulkes estimate   =     -31.56070870 Ry
     estimated scf accuracy    <       2.43220672 Ry

     iteration # 29     ecut=    30.00 Ry     beta=0.70
     Davidson diagonalization with overlap
     ethr =  6.08E-03,  avg # of iterations =  1.0

     negative rho (up, down):  9.109E-04 0.000E+00

     total cpu time spent up to now is        1.2 secs

     total energy              =     -31.55149466 Ry
     Harris-Foulkes estimate   =     -31.53249508 Ry
     estimated scf accuracy    <       1.98457651 Ry

     iteration # 30     ecut=    30.00 Ry     beta=0.70
     Davidson diagonalization with overlap
     ethr =  6.08E-03,  avg # of iterations =  1.0

     negative rho (up, down):  9.795E-04 0.000E+00

     total cpu time spent up to now is        1.3 secs

     total energy              =     -31.55070508 Ry
     Harris-Foulkes estimate   =     -31.55247149 Ry
     estimated scf accuracy    <       2.35335527 Ry

     iteration # 31     ecut=    30.00 Ry     beta=0.70
     Davidson diagonalization with overlap
     ethr =  6.08E-03,  avg # of iterations =  1.0

     negative rho (up, down):  9.943E-03 0.000E+00

     total cpu time spent up to now is        1.3 secs

     total energy              =     -32.01485681 Ry
     Harris-Foulkes estimate   =     -31.55071661 Ry
     estimated scf accuracy    <       2.33818130 Ry

     iteration # 32     ecut=    30.00 Ry     beta=0.70
     Davidson diagonalization with overlap
     ethr =  6.08E-03,  avg # of iterations =  1.0

     negative rho (up, down):  8.316E-03 0.000E+00

     total cpu time spent up to now is        1.3 secs

     total energy              =     -32.06779837 Ry
     Harris-Foulkes estimate   =     -32.03821589 Ry
     estimated scf accuracy    <       3.36181221 Ry

     iteration # 33     ecut=    30.00 Ry     beta=0.70
     Davidson diagonalization with overlap
     ethr =  6.08E-03,  avg # of iterations =  1.0

     negative rho (up, down):  3.438E-03 0.000E+00

     total cpu time spent up to now is        1.4 secs

     total energy              =     -31.92320133 Ry
     Harris-Foulkes estimate   =     -32.06814250 Ry
     estimated scf accuracy    <       3.39224528 Ry

     iteration # 34     ecut=    30.00 Ry     beta=0.70
     Davidson diagonalization with overlap
     ethr =  6.08E-03,  avg # of iterations =  1.0

     negative rho (up, down):  1.628E-04 0.000E+00

     total cpu time spent up to now is        1.4 secs

     total energy              =     -31.80469013 Ry
     Harris-Foulkes estimate   =     -31.92752291 Ry
     estimated scf accuracy    <       2.53321180 Ry

     iteration # 35     ecut=    30.00 Ry     beta=0.70
     Davidson diagonalization with overlap
     ethr =  6.08E-03,  avg # of iterations =  1.0

     negative rho (up, down):  1.787E-04 0.000E+00

     total cpu time spent up to now is        1.4 secs

     total energy              =     -31.79297324 Ry
     Harris-Foulkes estimate   =     -31.80694088 Ry
     estimated scf accuracy    <       1.80280758 Ry

     iteration # 36     ecut=    30.00 Ry     beta=0.70
     Davidson diagonalization with overlap
     ethr =  6.08E-03,  avg # of iterations =  1.0

     negative rho (up, down):  1.762E-04 0.000E+00

     total cpu time spent up to now is        1.5 secs

     total energy              =     -31.78800606 Ry
     Harris-Foulkes estimate   =     -31.79311971 Ry
     estimated scf accuracy    <       1.93390650 Ry

     iteration # 37     ecut=    30.00 Ry     beta=0.70
     Davidson diagonalization with overlap
     ethr =  6.08E-03,  avg # of iterations =  1.0

     negative rho (up, down):  1.517E-04 0.000E+00

     total cpu time spent up to now is        1.5 secs

     total energy              =     -31.77714953 Ry
     Harris-Foulkes estimate   =     -31.78800943 Ry
     estimated scf accuracy    <       1.94412726 Ry

     iteration # 38     ecut=    30.00 Ry     beta=0.70
     Davidson diagonalization with overlap
     ethr =  6.08E-03,  avg # of iterations =  1.0

     negative rho (up, down):  6.991E-03 0.000E+00

     total cpu time spent up to now is        1.5 secs

     total energy              =     -31.16179213 Ry
     Harris-Foulkes estimate   =     -31.77731954 Ry
     estimated scf accuracy    <       2.10607678 Ry

     iteration # 39     ecut=    30.00 Ry     beta=0.70
     Davidson diagonalization with overlap
     ethr =  6.08E-03,  avg # of iterations =  2.0

     negative rho (up, down):  9.103E-04 0.000E+00

     total cpu time spent up to now is        1.6 secs

     total energy              =     -31.45880096 Ry
     Harris-Foulkes estimate   =     -32.16938905 Ry
     estimated scf accuracy    <       2.03377045 Ry

     iteration # 40     ecut=    30.00 Ry     beta=0.70
     Davidson diagonalization with overlap
     ethr =  6.08E-03,  avg # of iterations =  2.0

     negative rho (up, down):  9.401E-04 0.000E+00

     total cpu time spent up to now is        1.6 secs

     total energy              =     -31.78933347 Ry
     Harris-Foulkes estimate   =     -31.86626810 Ry
     estimated scf accuracy    <       4.02199612 Ry

     iteration # 41     ecut=    30.00 Ry     beta=0.70
     Davidson diagonalization with overlap
     ethr =  6.08E-03,  avg # of iterations =  1.0

     negative rho (up, down):  5.206E-04 0.000E+00

     total cpu time spent up to now is        1.6 secs

     total energy              =     -31.66323351 Ry
     Harris-Foulkes estimate   =     -31.79049368 Ry
     estimated scf accuracy    <       3.89823701 Ry

     iteration # 42     ecut=    30.00 Ry     beta=0.70
     Davidson diagonalization with overlap
     ethr =  6.08E-03,  avg # of iterations =  1.0

     negative rho (up, down):  2.346E-04 0.000E+00

     total cpu time spent up to now is        1.7 secs

     total energy              =     -31.54765523 Ry
     Harris-Foulkes estimate   =     -31.66455327 Ry
     estimated scf accuracy    <       3.74782353 Ry

     iteration # 43     ecut=    30.00 Ry     beta=0.70
     Davidson diagonalization with overlap
     ethr =  6.08E-03,  avg # of iterations =  1.0

     negative rho (up, down):  1.582E-05 0.000E+00

     total cpu time spent up to now is        1.7 secs

     total energy              =     -31.30023785 Ry
     Harris-Foulkes estimate   =     -31.55068741 Ry
     estimated scf accuracy    <       2.40221752 Ry

     iteration # 44     ecut=    30.00 Ry     beta=0.70
     Davidson diagonalization with overlap
     ethr =  6.08E-03,  avg # of iterations =  1.0

     negative rho (up, down):  1.087E-06 0.000E+00

     total cpu time spent up to now is        1.7 secs

     total energy              =     -31.55005050 Ry
     Harris-Foulkes estimate   =     -31.62822948 Ry
     estimated scf accuracy    <       1.77535661 Ry

     iteration # 45     ecut=    30.00 Ry     beta=0.70
     Davidson diagonalization with overlap
     ethr =  6.08E-03,  avg # of iterations =  1.0

     negative rho (up, down):  3.833E-08 0.000E+00

     total cpu time spent up to now is        1.8 secs

     total energy              =     -31.53711922 Ry
     Harris-Foulkes estimate   =     -31.55613345 Ry
     estimated scf accuracy    <       0.85457544 Ry

     iteration # 46     ecut=    30.00 Ry     beta=0.70
     Davidson diagonalization with overlap
     ethr =  6.08E-03,  avg # of iterations =  1.0

     negative rho (up, down):  4.500E-06 0.000E+00

     total cpu time spent up to now is        1.8 secs

     total energy              =     -31.46676660 Ry
     Harris-Foulkes estimate   =     -31.53722068 Ry
     estimated scf accuracy    <       0.87113250 Ry

     iteration # 47     ecut=    30.00 Ry     beta=0.70
     Davidson diagonalization with overlap
     ethr =  6.08E-03,  avg # of iterations =  1.0

     negative rho (up, down):  2.253E-06 0.000E+00

     total cpu time spent up to now is        1.8 secs

     total energy              =     -31.49579463 Ry
     Harris-Foulkes estimate   =     -31.50404102 Ry
     estimated scf accuracy    <       0.64235873 Ry

     iteration # 48     ecut=    30.00 Ry     beta=0.70
     Davidson diagonalization with overlap
     ethr =  6.08E-03,  avg # of iterations =  1.0

     negative rho (up, down):  1.776E-08 0.000E+00

     total cpu time spent up to now is        1.9 secs

     total energy              =     -31.48598472 Ry
     Harris-Foulkes estimate   =     -31.49795616 Ry
     estimated scf accuracy    <       0.13480887 Ry

     iteration # 49     ecut=    30.00 Ry     beta=0.70
     Davidson diagonalization with overlap
     ethr =  1.69E-03,  avg # of iterations =  1.0

     negative rho (up, down):  2.098E-08 0.000E+00

     total cpu time spent up to now is        1.9 secs

     total energy              =     -31.49794196 Ry
     Harris-Foulkes estimate   =     -31.50771645 Ry
     estimated scf accuracy    <       0.56486330 Ry

     iteration # 50     ecut=    30.00 Ry     beta=0.70
     Davidson diagonalization with overlap
     ethr =  1.69E-03,  avg # of iterations =  1.0

     negative rho (up, down):  5.947E-08 0.000E+00

     total cpu time spent up to now is        1.9 secs

     total energy              =     -31.49286922 Ry
     Harris-Foulkes estimate   =     -31.49956657 Ry
     estimated scf accuracy    <       0.22094659 Ry

     iteration # 51     ecut=    30.00 Ry     beta=0.70
     Davidson diagonalization with overlap
     ethr =  1.69E-03,  avg # of iterations =  1.0

     negative rho (up, down):  6.270E-08 0.000E+00

     total cpu time spent up to now is        2.0 secs

     total energy              =     -31.49606473 Ry
     Harris-Foulkes estimate   =     -31.49663902 Ry
     estimated scf accuracy    <       0.02124093 Ry

     iteration # 52     ecut=    30.00 Ry     beta=0.70
     Davidson diagonalization with overlap
     ethr =  2.66E-04,  avg # of iterations =  1.0

     total cpu time spent up to now is        2.0 secs

     total energy              =     -31.49617567 Ry
     Harris-Foulkes estimate   =     -31.49647322 Ry
     estimated scf accuracy    <       0.00466674 Ry

     iteration # 53     ecut=    30.00 Ry     beta=0.70
     Davidson diagonalization with overlap
     ethr =  5.83E-05,  avg # of iterations =  1.0

     total cpu time spent up to now is        2.0 secs

     total energy              =     -31.49619360 Ry
     Harris-Foulkes estimate   =     -31.49660681 Ry
     estimated scf accuracy    <       0.01519900 Ry

     iteration # 54     ecut=    30.00 Ry     beta=0.70
     Davidson diagonalization with overlap
     ethr =  5.83E-05,  avg # of iterations =  1.0

     total cpu time spent up to now is        2.1 secs

     total energy              =     -31.49642405 Ry
     Harris-Foulkes estimate   =     -31.49641575 Ry
     estimated scf accuracy    <       0.00011167 Ry

     iteration # 55     ecut=    30.00 Ry     beta=0.70
     Davidson diagonalization with overlap
     c_bands:  1 eigenvalues not converged
     ethr =  1.40E-06,  avg # of iterations = 20.0

     total cpu time spent up to now is        2.1 secs

     total energy              =     -31.49639577 Ry
     Harris-Foulkes estimate   =     -31.49643775 Ry
     estimated scf accuracy    <       0.00184409 Ry

     iteration # 56     ecut=    30.00 Ry     beta=0.70
     Davidson diagonalization with overlap
     ethr =  1.40E-06,  avg # of iterations =  1.0

     total cpu time spent up to now is        2.2 secs

     total energy              =     -31.49641439 Ry
     Harris-Foulkes estimate   =     -31.49641455 Ry
     estimated scf accuracy    <       0.00001823 Ry

     iteration # 57     ecut=    30.00 Ry     beta=0.70
     Davidson diagonalization with overlap
     ethr =  2.28E-07,  avg # of iterations =  1.0

     total cpu time spent up to now is        2.2 secs

     total energy              =     -31.49641447 Ry
     Harris-Foulkes estimate   =     -31.49641444 Ry
     estimated scf accuracy    <       0.00000536 Ry

     iteration # 58     ecut=    30.00 Ry     beta=0.70
     Davidson diagonalization with overlap
     ethr =  6.70E-08,  avg # of iterations =  1.0

     total cpu time spent up to now is        2.2 secs

     total energy              =     -31.49641424 Ry
     Harris-Foulkes estimate   =     -31.49641448 Ry
     estimated scf accuracy    <       0.00000999 Ry

     iteration # 59     ecut=    30.00 Ry     beta=0.70
     Davidson diagonalization with overlap
     ethr =  6.70E-08,  avg # of iterations =  1.0

     total cpu time spent up to now is        2.3 secs

     End of self-consistent calculation

          k = 0.0000 0.0000 0.0000 ( 22119 PWs)   bands (ev):

   -23.6090  -7.1127  -7.0183  -7.0177  -6.9139  -6.8135  -0.2061   0.6624

     the Fermi energy is    -6.8833 ev

!    total energy              =     -31.49641438 Ry
     Harris-Foulkes estimate   =     -31.49641437 Ry
     estimated scf accuracy    <          3.1E-09 Ry

     convergence has been achieved in  59 iterations

     Forces acting on atoms (Ry/au):

     atom    1 type  1   force =     0.00955136    0.00076405   -0.00183825
     atom    2 type  1   force =    -0.00003674   -0.00015310   -0.00091322
     atom    3 type  2   force =    -0.00951462   -0.00061095    0.00275147

     Total force =     0.013947     Total SCF correction =     0.000007

     Molecular Dynamics Calculation

     Starting temperature  =  1000.00 K

     temperature is controlled by Andersen thermostat
     Collision frequency = 1.0000/timestep
     mass H                =     1.01
     mass O                =    16.00
     Time step             =   100.00 a.u.,  4.8378 femto-seconds

     Entering Dynamics:    iteration =     1
                           time      =   0.0048 pico-seconds


     Andersen thermostat:    3 collisions

ATOMIC_POSITIONS (bohr)
H       18.728420158   6.037716058   0.770001686
H       12.251173817   0.446342454  10.901223743
O        5.258796397   6.365879423   0.357520266


     kinetic energy (Ekin) =     0.01319564 Ry
     temperature           =   694.47456190 K 
     Ekin + Etot (const)   =   -31.48321875 Ry

     Linear momentum :   -0.0000000000    0.0000000000    0.0000000000

     Writing output data file pwscf.save
     Check: negative starting charge=   -0.343809
     NEW-OLD atomic charge density approx. for the potential
     Check: negative starting charge=   -0.343594

     negative rho (up, down):  8.480E-02 0.000E+00

     total cpu time spent up to now is        2.5 secs

     per-process dynamical memory:    20.4 Mb

     Self-consistent Calculation

     iteration #  1     ecut=    30.00 Ry     beta=0.70
     Davidson diagonalization with overlap
     c_bands:  1 eigenvalues not converged
     ethr =  1.00E-06,  avg # of iterations = 20.0

     negative rho (up, down):  2.008E-02 0.000E+00

     total cpu time spent up to now is        2.6 secs

     total energy              =     -31.43017941 Ry
     Harris-Foulkes estimate   =     -31.43672013 Ry
     estimated scf accuracy    <       0.06766717 Ry

     iteration #  2     ecut=    30.00 Ry     beta=0.70
     Davidson diagonalization with overlap
     ethr =  8.46E-04,  avg # of iterations =  2.0

     negative rho (up, down):  1.821E-02 0.000E+00

     total cpu time spent up to now is        2.7 secs

     total energy              =     -31.46876740 Ry
     Harris-Foulkes estimate   =     -32.00743848 Ry
     estimated scf accuracy    <       4.32787750 Ry

     iteration #  3     ecut=    30.00 Ry     beta=0.70
     Davidson diagonalization with overlap
     ethr =  8.46E-04,  avg # of iterations =  2.0

     negative rho (up, down):  1.718E-02 0.000E+00

     total cpu time spent up to now is        2.7 secs

     total energy              =     -31.47349486 Ry
     Harris-Foulkes estimate   =     -31.55902192 Ry
     estimated scf accuracy    <       1.10027304 Ry

     iteration #  4     ecut=    30.00 Ry     beta=0.70
     Davidson diagonalization with overlap
     ethr =  8.46E-04,  avg # of iterations =  1.0

     negative rho (up, down):  1.431E-02 0.000E+00

     total cpu time spent up to now is        2.7 secs

     total energy              =     -31.42627711 Ry
     Harris-Foulkes estimate   =     -31.49749495 Ry
     estimated scf accuracy    <       1.16780565 Ry

     iteration #  5     ecut=    30.00 Ry     beta=0.70
     Davidson diagonalization with overlap
     ethr =  8.46E-04,  avg # of iterations =  1.0

     negative rho (up, down):  3.731E-03 0.000E+00

     total cpu time spent up to now is        2.8 secs

     total energy              =     -31.48542866 Ry
     Harris-Foulkes estimate   =     -31.52274914 Ry
     estimated scf accuracy    <       1.85385602 Ry

     iteration #  6     ecut=    30.00 Ry     beta=0.70
     Davidson diagonalization with overlap
     ethr =  8.46E-04,  avg # of iterations =  1.0

     negative rho (up, down):  1.128E-03 0.000E+00

     total cpu time spent up to now is        2.8 secs

     total energy              =     -31.49727246 Ry
     Harris-Foulkes estimate   =     -31.49992813 Ry
     estimated scf accuracy    <       0.14166992 Ry

     iteration #  7     ecut=    30.00 Ry     beta=0.70
     Davidson diagonalization with overlap
     ethr =  8.46E-04,  avg # of iterations =  1.0

     negative rho (up, down):  5.303E-04 0.000E+00

     total cpu time spent up to now is        2.8 secs

     total energy              =     -31.50014816 Ry
     Harris-Foulkes estimate   =     -31.50021070 Ry
     estimated scf accuracy    <       0.00628848 Ry

     iteration #  8     ecut=    30.00 Ry     beta=0.70
     Davidson diagonalization with overlap
     ethr =  7.86E-05,  avg # of iterations =  9.0

     negative rho (up, down):  3.542E-06 0.000E+00

     total cpu time spent up to now is        2.9 secs

     total energy              =     -31.50028723 Ry
     Harris-Foulkes estimate   =     -31.50033752 Ry
     estimated scf accuracy    <       0.00083199 Ry

     iteration #  9     ecut=    30.00 Ry     beta=0.70
     Davidson diagonalization with overlap
     ethr =  1.04E-05,  avg # of iterations =  4.0

     negative rho (up, down):  2.858E-07 0.000E+00

     total cpu time spent up to now is        2.9 secs

     total energy              =     -31.50010841 Ry
     Harris-Foulkes estimate   =     -31.50055919 Ry
     estimated scf accuracy    <       0.01907849 Ry

     iteration # 10     ecut=    30.00 Ry     beta=0.70
     Davidson diagonalization with overlap
     ethr =  1.04E-05,  avg # of iterations =  1.0

     total cpu time spent up to now is        2.9 secs

     total energy              =     -31.50038308 Ry
     Harris-Foulkes estimate   =     -31.50036766 Ry
     estimated scf accuracy    <       0.00051699 Ry

     iteration # 11     ecut=    30.00 Ry     beta=0.70
     Davidson diagonalization with overlap
     ethr =  6.46E-06,  avg # of iterations =  1.0

     total cpu time spent up to now is        3.0 secs

     total energy              =     -31.50029502 Ry
     Harris-Foulkes estimate   =     -31.50040797 Ry
     estimated scf accuracy    <       0.00404814 Ry

     iteration # 12     ecut=    30.00 Ry     beta=0.70
     Davidson diagonalization with overlap
     ethr =  6.46E-06,  avg # of iterations =  1.0

     total cpu time spent up to now is        3.0 secs

     total energy              =     -31.50036405 Ry
     Harris-Foulkes estimate   =     -31.50036852 Ry
     estimated scf accuracy    <       0.00034602 Ry

     iteration # 13     ecut=    30.00 Ry     beta=0.70
     Davidson diagonalization with overlap
     ethr =  4.33E-06,  avg # of iterations =  1.0

     total cpu time spent up to now is        3.0 secs

     total energy              =     -31.50036337 Ry
     Harris-Foulkes estimate   =     -31.50036507 Ry
     estimated scf accuracy    <       0.00009194 Ry

     iteration # 14     ecut=    30.00 Ry     beta=0.70
     Davidson diagonalization with overlap
     ethr =  1.15E-06,  avg # of iterations =  1.0

     total cpu time spent up to now is        3.1 secs

     total energy              =     -31.50036353 Ry
     Harris-Foulkes estimate   =     -31.50036388 Ry
     estimated scf accuracy    <       0.00001345 Ry

     iteration # 15     ecut=    30.00 Ry     beta=0.70
     Davidson diagonalization with overlap
     ethr =  1.68E-07,  avg # of iterations =  1.0

     total cpu time spent up to now is        3.1 secs

     End of self-consistent calculation

          k = 0.0000 0.0000 0.0000 ( 22119 PWs)   bands (ev):

   -23.6149  -7.1563  -7.0229  -7.0220  -6.9179  -6.7761  -0.2002   0.6749

     the Fermi energy is    -6.8875 ev

!    total energy              =     -31.50036371 Ry
     Harris-Foulkes estimate   =     -31.50036370 Ry
     estimated scf accuracy    <          2.1E-09 Ry

     convergence has been achieved in  15 iterations

     Forces acting on atoms (Ry/au):

     atom    1 type  1   force =     0.01354974    0.00079342   -0.00141075
     atom    2 type  1   force =     0.00018318    0.00031067   -0.00075867
     atom    3 type  2   force =    -0.01373292   -0.00110409    0.00216942

     Total force =     0.019530     Total SCF correction =     0.000084

     Entering Dynamics:    iteration =     2
                           time      =   0.0097 pico-seconds


     Andersen thermostat:    3 collisions

ATOMIC_POSITIONS (bohr)
H       18.928024181   6.222484839   0.899807449
H       12.316420188   0.295866594  11.069223570
O        5.242077715   6.363714682   0.338721288


     kinetic energy (Ekin) =     0.00901084 Ry
     temperature           =   474.23237861 K 
     Ekin + Etot (const)   =   -31.49135287 Ry
     Message from routine dynamics:
     Total linear momentum <> 0

     Linear momentum :   -0.0482643422    0.4839037204    0.0463385468

     Writing output data file pwscf.save

     first order wave-functions extrapolation
     Check: negative starting charge=   -0.343594
     first order charge density extrapolation
     Check: negative starting charge=   -0.343391

     negative rho (up, down):  1.119E-01 0.000E+00

     total cpu time spent up to now is        3.4 secs

     per-process dynamical memory:    20.4 Mb

     Self-consistent Calculation

     iteration #  1     ecut=    30.00 Ry     beta=0.70
     Davidson diagonalization with overlap
     c_bands:  1 eigenvalues not converged
     ethr =  1.00E-06,  avg # of iterations = 20.0

     negative rho (up, down):  2.698E-02 0.000E+00

     total cpu time spent up to now is        3.6 secs

     total energy              =     -31.44009646 Ry
     Harris-Foulkes estimate   =     -31.42494575 Ry
     estimated scf accuracy    <       0.04892998 Ry

     iteration #  2     ecut=    30.00 Ry     beta=0.70
     Davidson diagonalization with overlap
     ethr =  6.12E-04,  avg # of iterations =  2.0

     negative rho (up, down):  2.482E-02 0.000E+00

     total cpu time spent up to now is        3.6 secs

     total energy              =     -31.46392687 Ry
     Harris-Foulkes estimate   =     -31.90111941 Ry
     estimated scf accuracy    <       4.06670804 Ry

     iteration #  3     ecut=    30.00 Ry     beta=0.70
     Davidson diagonalization with overlap
     ethr =  6.12E-04,  avg # of iterations =  2.0

     negative rho (up, down):  2.357E-02 0.000E+00

     total cpu time spent up to now is        3.6 secs

     total energy              =     -31.47429205 Ry
     Harris-Foulkes estimate   =     -31.55275813 Ry
     estimated scf accuracy    <       1.12350159 Ry

     iteration #  4     ecut=    30.00 Ry     beta=0.70
     Davidson diagonalization with overlap
     ethr =  6.12E-04,  avg # of iterations =  1.0

     negative rho (up, down):  1.383E-02 0.000E+00

     total cpu time spent up to now is        3.6 secs

     total energy              =     -31.40951013 Ry
     Harris-Foulkes estimate   =     -31.48789894 Ry
     estimated scf accuracy    <       0.70880250 Ry

     iteration #  5     ecut=    30.00 Ry     beta=0.70
     Davidson diagonalization with overlap
     ethr =  6.12E-04,  avg # of iterations =  1.0

     negative rho (up, down):  6.416E-03 0.000E+00

     total cpu time spent up to now is        3.7 secs

     total energy              =     -31.51714069 Ry
     Harris-Foulkes estimate   =     -31.58163928 Ry
     estimated scf accuracy    <       2.13947024 Ry

     iteration #  6     ecut=    30.00 Ry     beta=0.70
     Davidson diagonalization with overlap
     ethr =  6.12E-04,  avg # of iterations =  1.0

     negative rho (up, down):  1.877E-03 0.000E+00

     total cpu time spent up to now is        3.7 secs

     total energy              =     -31.49236399 Ry
     Harris-Foulkes estimate   =     -31.52514513 Ry
     estimated scf accuracy    <       0.97693219 Ry

     iteration #  7     ecut=    30.00 Ry     beta=0.70
     Davidson diagonalization with overlap
     ethr =  6.12E-04,  avg # of iterations =  1.0

     negative rho (up, down):  8.250E-04 0.000E+00

     total cpu time spent up to now is        3.7 secs

     total energy              =     -31.50060835 Ry
     Harris-Foulkes estimate   =     -31.50358655 Ry
     estimated scf accuracy    <       0.07771409 Ry

     iteration #  8     ecut=    30.00 Ry     beta=0.70
     Davidson diagonalization with overlap
     ethr =  6.12E-04,  avg # of iterations =  1.0

     negative rho (up, down):  2.875E-04 0.000E+00

     total cpu time spent up to now is        3.8 secs

     total energy              =     -31.50063103 Ry
     Harris-Foulkes estimate   =     -31.50515343 Ry
     estimated scf accuracy    <       0.18021002 Ry

     iteration #  9     ecut=    30.00 Ry     beta=0.70
     Davidson diagonalization with overlap
     ethr =  6.12E-04,  avg # of iterations =  1.0

     negative rho (up, down):  1.533E-05 0.000E+00

     total cpu time spent up to now is        3.8 secs

     total energy              =     -31.50333539 Ry
     Harris-Foulkes estimate   =     -31.50406009 Ry
     estimated scf accuracy    <       0.03085402 Ry

     iteration # 10     ecut=    30.00 Ry     beta=0.70
     Davidson diagonalization with overlap
     ethr =  3.86E-04,  avg # of iterations =  1.0

     negative rho (up, down):  9.567E-06 0.000E+00

     total cpu time spent up to now is        3.8 secs

     total energy              =     -31.50313962 Ry
     Harris-Foulkes estimate   =     -31.50379612 Ry
     estimated scf accuracy    <       0.03335690 Ry

     iteration # 11     ecut=    30.00 Ry     beta=0.70
     Davidson diagonalization with overlap
     ethr =  3.86E-04,  avg # of iterations =  1.0

     total cpu time spent up to now is        3.9 secs

     total energy              =     -31.50317336 Ry
     Harris-Foulkes estimate   =     -31.50363838 Ry
     estimated scf accuracy    <       0.01064459 Ry

     iteration # 12     ecut=    30.00 Ry     beta=0.70
     Davidson diagonalization with overlap
     ethr =  1.33E-04,  avg # of iterations =  3.0

     total cpu time spent up to now is        3.9 secs

     total energy              =     -31.50342788 Ry
     Harris-Foulkes estimate   =     -31.50342848 Ry
     estimated scf accuracy    <       0.00046517 Ry

     iteration # 13     ecut=    30.00 Ry     beta=0.70
     Davidson diagonalization with overlap
     ethr =  5.81E-06,  avg # of iterations = 10.0

     negative rho (up, down):  1.330E-08 0.000E+00

     total cpu time spent up to now is        4.0 secs

     total energy              =     -31.50341326 Ry
     Harris-Foulkes estimate   =     -31.50343209 Ry
     estimated scf accuracy    <       0.00079511 Ry

     iteration # 14     ecut=    30.00 Ry     beta=0.70
     Davidson diagonalization with overlap
     ethr =  5.81E-06,  avg # of iterations =  1.0

     total cpu time spent up to now is        4.0 secs

     total energy              =     -31.50342278 Ry
     Harris-Foulkes estimate   =     -31.50342276 Ry
     estimated scf accuracy    <       0.00000118 Ry

     iteration # 15     ecut=    30.00 Ry     beta=0.70
     Davidson diagonalization with overlap
     ethr =  1.48E-08,  avg # of iterations =  1.0

     total cpu time spent up to now is        4.0 secs

     total energy              =     -31.50342270 Ry
     Harris-Foulkes estimate   =     -31.50342280 Ry
     estimated scf accuracy    <       0.00000416 Ry

     iteration # 16     ecut=    30.00 Ry     beta=0.70
     Davidson diagonalization with overlap
     ethr =  1.48E-08,  avg # of iterations =  1.0

     total cpu time spent up to now is        4.0 secs

     End of self-consistent calculation

          k = 0.0000 0.0000 0.0000 ( 22119 PWs)   bands (ev):

   -23.6194  -7.1860  -7.0248  -7.0242  -6.9198  -6.7490  -0.1968   0.6807

     the Fermi energy is    -6.8895 ev

!    total energy              =     -31.50342287 Ry
     Harris-Foulkes estimate   =     -31.50342275 Ry
     estimated scf accuracy    <          8.8E-09 Ry

     convergence has been achieved in  16 iterations

     Forces acting on atoms (Ry/au):

     atom    1 type  1   force =     0.01673497    0.00083355   -0.00232421
     atom    2 type  1   force =     0.00043511    0.00050949   -0.00089606
     atom    3 type  2   force =    -0.01717008   -0.00134304    0.00322027

     Total force =     0.024380     Total SCF correction =     0.000645

     Entering Dynamics:    iteration =     3
                           time      =   0.0145 pico-seconds


     Andersen thermostat:    3 collisions

ATOMIC_POSITIONS (bohr)
H       19.331428139   5.948820524   0.963007311
H       12.464503954   0.373958219  11.398439895
O        5.207265053   6.376060208   0.313950016


     kinetic energy (Ekin) =     0.01876717 Ry
     temperature           =   987.69919027 K 
     Ekin + Etot (const)   =   -31.48465570 Ry
     Message from routine dynamics:
     Total linear momentum <> 0

     Linear momentum :    0.3047675616   -0.3500624036   -0.1369358232

     Writing output data file pwscf.save

     second order wave-functions extrapolation
     Check: negative starting charge=   -0.343391
     second order charge density extrapolation
     Check: negative starting charge=   -0.342972

     negative rho (up, down):  9.596E-02 0.000E+00

     total cpu time spent up to now is        4.4 secs

     per-process dynamical memory:    20.4 Mb

     Self-consistent Calculation

     iteration #  1     ecut=    30.00 Ry     beta=0.70
     Davidson diagonalization with overlap
     c_bands:  1 eigenvalues not converged
     ethr =  1.00E-06,  avg # of iterations = 20.0

     negative rho (up, down):  2.307E-02 0.000E+00

     total cpu time spent up to now is        4.5 secs

     total energy              =     -31.42303286 Ry
     Harris-Foulkes estimate   =     -31.44503631 Ry
     estimated scf accuracy    <       0.09043686 Ry

     iteration #  2     ecut=    30.00 Ry     beta=0.70
     Davidson diagonalization with overlap
     ethr =  1.13E-03,  avg # of iterations =  2.0

     negative rho (up, down):  2.057E-02 0.000E+00

     total cpu time spent up to now is        4.5 secs

     total energy              =     -31.47829283 Ry
     Harris-Foulkes estimate   =     -32.10773696 Ry
     estimated scf accuracy    <       4.46671143 Ry

     iteration #  3     ecut=    30.00 Ry     beta=0.70
     Davidson diagonalization with overlap
     ethr =  1.13E-03,  avg # of iterations =  2.0

     negative rho (up, down):  1.939E-02 0.000E+00

     total cpu time spent up to now is        4.5 secs

     total energy              =     -31.47852307 Ry
     Harris-Foulkes estimate   =     -31.54671233 Ry
     estimated scf accuracy    <       0.89548575 Ry

     iteration #  4     ecut=    30.00 Ry     beta=0.70
     Davidson diagonalization with overlap
     ethr =  1.13E-03,  avg # of iterations =  1.0

     negative rho (up, down):  1.568E-02 0.000E+00

     total cpu time spent up to now is        4.6 secs

     total energy              =     -31.41547652 Ry
     Harris-Foulkes estimate   =     -31.51391366 Ry
     estimated scf accuracy    <       1.69489624 Ry

     iteration #  5     ecut=    30.00 Ry     beta=0.70
     Davidson diagonalization with overlap
     ethr =  1.13E-03,  avg # of iterations =  1.0

     negative rho (up, down):  4.630E-03 0.000E+00

     total cpu time spent up to now is        4.6 secs

     total energy              =     -31.49715965 Ry
     Harris-Foulkes estimate   =     -31.54081003 Ry
     estimated scf accuracy    <       1.93883412 Ry

     iteration #  6     ecut=    30.00 Ry     beta=0.70
     Davidson diagonalization with overlap
     ethr =  1.13E-03,  avg # of iterations =  1.0

     negative rho (up, down):  1.332E-03 0.000E+00

     total cpu time spent up to now is        4.6 secs

     total energy              =     -31.50644592 Ry
     Harris-Foulkes estimate   =     -31.51140115 Ry
     estimated scf accuracy    <       0.21261411 Ry

     iteration #  7     ecut=    30.00 Ry     beta=0.70
     Davidson diagonalization with overlap
     ethr =  1.13E-03,  avg # of iterations =  1.0

     negative rho (up, down):  5.133E-04 0.000E+00

     total cpu time spent up to now is        4.7 secs

     total energy              =     -31.51099036 Ry
     Harris-Foulkes estimate   =     -31.51331201 Ry
     estimated scf accuracy    <       0.10747564 Ry

     iteration #  8     ecut=    30.00 Ry     beta=0.70
     Davidson diagonalization with overlap
     ethr =  1.13E-03,  avg # of iterations =  1.0

     negative rho (up, down):  3.553E-05 0.000E+00

     total cpu time spent up to now is        4.7 secs

     total energy              =     -31.51282069 Ry
     Harris-Foulkes estimate   =     -31.51259941 Ry
     estimated scf accuracy    <       0.00289015 Ry

     iteration #  9     ecut=    30.00 Ry     beta=0.70
     Davidson diagonalization with overlap
     ethr =  3.61E-05,  avg # of iterations =  9.0

     negative rho (up, down):  6.711E-07 0.000E+00

     total cpu time spent up to now is        4.7 secs

     total energy              =     -31.51177018 Ry
     Harris-Foulkes estimate   =     -31.51317824 Ry
     estimated scf accuracy    <       0.05236752 Ry

     iteration # 10     ecut=    30.00 Ry     beta=0.70
     Davidson diagonalization with overlap
     ethr =  3.61E-05,  avg # of iterations =  1.0

     negative rho (up, down):  4.866E-08 0.000E+00

     total cpu time spent up to now is        4.8 secs

     total energy              =     -31.51262455 Ry
     Harris-Foulkes estimate   =     -31.51262128 Ry
     estimated scf accuracy    <       0.00234938 Ry

     iteration # 11     ecut=    30.00 Ry     beta=0.70
     Davidson diagonalization with overlap
     ethr =  2.94E-05,  avg # of iterations =  1.0

     total cpu time spent up to now is        4.8 secs

     total energy              =     -31.51254585 Ry
     Harris-Foulkes estimate   =     -31.51262505 Ry
     estimated scf accuracy    <       0.00246882 Ry

     iteration # 12     ecut=    30.00 Ry     beta=0.70
     Davidson diagonalization with overlap
     ethr =  2.94E-05,  avg # of iterations =  1.0

     total cpu time spent up to now is        4.8 secs

     total energy              =     -31.51259695 Ry
     Harris-Foulkes estimate   =     -31.51260266 Ry
     estimated scf accuracy    <       0.00045089 Ry

     iteration # 13     ecut=    30.00 Ry     beta=0.70
     Davidson diagonalization with overlap
     ethr =  5.64E-06,  avg # of iterations =  1.0

     total cpu time spent up to now is        4.9 secs

     total energy              =     -31.51259651 Ry
     Harris-Foulkes estimate   =     -31.51259838 Ry
     estimated scf accuracy    <       0.00009894 Ry

     iteration # 14     ecut=    30.00 Ry     beta=0.70
     Davidson diagonalization with overlap
     ethr =  1.24E-06,  avg # of iterations =  1.0

     negative rho (up, down):  5.364E-08 0.000E+00

     total cpu time spent up to now is        4.9 secs

     total energy              =     -31.51259770 Ry
     Harris-Foulkes estimate   =     -31.51259680 Ry
     estimated scf accuracy    <       0.00002709 Ry

     iteration # 15     ecut=    30.00 Ry     beta=0.70
     Davidson diagonalization with overlap
     ethr =  3.39E-07,  avg # of iterations =  1.0

     total cpu time spent up to now is        4.9 secs

     total energy              =     -31.51259722 Ry
     Harris-Foulkes estimate   =     -31.51259807 Ry
     estimated scf accuracy    <       0.00000035 Ry

     iteration # 16     ecut=    30.00 Ry     beta=0.70
     Davidson diagonalization with overlap
     ethr =  4.40E-09,  avg # of iterations =  1.0

     total cpu time spent up to now is        5.0 secs

     total energy              =     -31.51259710 Ry
     Harris-Foulkes estimate   =     -31.51259723 Ry
     estimated scf accuracy    <       0.00000002 Ry

     iteration # 17     ecut=    30.00 Ry     beta=0.70
     Davidson diagonalization with overlap
     ethr =  2.61E-10,  avg # of iterations =  2.0

     total cpu time spent up to now is        5.0 secs

     End of self-consistent calculation

          k = 0.0000 0.0000 0.0000 ( 22119 PWs)   bands (ev):

   -23.6302  -7.2645  -7.0291  -7.0288  -6.9232  -6.6783  -0.1884   0.6817

     the Fermi energy is    -6.8929 ev

!    total energy              =     -31.51259712 Ry
     Harris-Foulkes estimate   =     -31.51259710 Ry
     estimated scf accuracy    <          1.2E-09 Ry

     convergence has been achieved in  17 iterations

     Forces acting on atoms (Ry/au):

     atom    1 type  1   force =     0.03060450    0.00247328   -0.00387673
     atom    2 type  1   force =     0.00066642    0.00016567   -0.00040920
     atom    3 type  2   force =    -0.03127092   -0.00263894    0.00428593

     Total force =     0.044290     Total SCF correction =     0.000123

     Entering Dynamics:    iteration =     4
                           time      =   0.0194 pico-seconds


     Andersen thermostat:    3 collisions

ATOMIC_POSITIONS (bohr)
H       19.652301124   5.839551742   0.829949759
H       12.274906109   0.040938376  11.198494136
O        5.198978310   6.403979678   0.334970850


     kinetic energy (Ekin) =     0.02077105 Ry
     temperature           =  1093.16167234 K 
     Ekin + Etot (const)   =   -31.49182607 Ry
     Message from routine dynamics:
     Total linear momentum <> 0

     Linear momentum :    0.6585480540    0.4524520681   -0.2987964083

     Writing output data file pwscf.save

     second order wave-functions extrapolation
     Check: negative starting charge=   -0.342972
     second order charge density extrapolation
     Check: negative starting charge=   -0.343302

     negative rho (up, down):  7.376E-02 0.000E+00

     total cpu time spent up to now is        5.3 secs

     per-process dynamical memory:    20.4 Mb

     Self-consistent Calculation

     iteration #  1     ecut=    30.00 Ry     beta=0.70
     Davidson diagonalization with overlap
     c_bands:  1 eigenvalues not converged
     ethr =  1.00E-06,  avg # of iterations = 20.0

     negative rho (up, down):  1.740E-02 0.000E+00

     total cpu time spent up to now is        5.4 secs

     total energy              =     -31.45582400 Ry
     Harris-Foulkes estimate   =     -31.46409805 Ry
     estimated scf accuracy    <       0.06719104 Ry

     iteration #  2     ecut=    30.00 Ry     beta=0.70
     Davidson diagonalization with overlap
     ethr =  8.40E-04,  avg # of iterations =  2.0

     negative rho (up, down):  1.567E-02 0.000E+00

     total cpu time spent up to now is        5.5 secs

     total energy              =     -31.49194669 Ry
     Harris-Foulkes estimate   =     -32.04841548 Ry
     estimated scf accuracy    <       4.27661081 Ry

     iteration #  3     ecut=    30.00 Ry     beta=0.70
     Davidson diagonalization with overlap
     ethr =  8.40E-04,  avg # of iterations =  2.0

     negative rho (up, down):  1.512E-02 0.000E+00

     total cpu time spent up to now is        5.5 secs

     total energy              =     -31.51265409 Ry
     Harris-Foulkes estimate   =     -31.52412262 Ry
     estimated scf accuracy    <       1.07196467 Ry

     iteration #  4     ecut=    30.00 Ry     beta=0.70
     Davidson diagonalization with overlap
     ethr =  8.40E-04,  avg # of iterations =  1.0

     negative rho (up, down):  1.281E-02 0.000E+00

     total cpu time spent up to now is        5.5 secs

     total energy              =     -31.50067666 Ry
     Harris-Foulkes estimate   =     -31.51599039 Ry
     estimated scf accuracy    <       0.29517428 Ry

     iteration #  5     ecut=    30.00 Ry     beta=0.70
     Davidson diagonalization with overlap
     ethr =  8.40E-04,  avg # of iterations =  1.0

     negative rho (up, down):  2.596E-03 0.000E+00

     total cpu time spent up to now is        5.6 secs

     total energy              =     -31.52005445 Ry
     Harris-Foulkes estimate   =     -31.51569479 Ry
     estimated scf accuracy    <       0.24289226 Ry

     iteration #  6     ecut=    30.00 Ry     beta=0.70
     Davidson diagonalization with overlap
     ethr =  8.40E-04,  avg # of iterations =  1.0

     negative rho (up, down):  7.690E-04 0.000E+00

     total cpu time spent up to now is        5.6 secs

     total energy              =     -31.52456790 Ry
     Harris-Foulkes estimate   =     -31.52302007 Ry
     estimated scf accuracy    <       0.00043160 Ry

     iteration #  7     ecut=    30.00 Ry     beta=0.70
     Davidson diagonalization with overlap
     ethr =  5.39E-06,  avg # of iterations = 12.0

     negative rho (up, down):  1.465E-04 0.000E+00

     total cpu time spent up to now is        5.7 secs

     total energy              =     -31.52437728 Ry
     Harris-Foulkes estimate   =     -31.52505838 Ry
     estimated scf accuracy    <       0.04323980 Ry

     iteration #  8     ecut=    30.00 Ry     beta=0.70
     Davidson diagonalization with overlap
     ethr =  5.39E-06,  avg # of iterations =  9.0

     negative rho (up, down):  5.292E-08 0.000E+00

     total cpu time spent up to now is        5.7 secs

     total energy              =     -31.52457691 Ry
     Harris-Foulkes estimate   =     -31.52465649 Ry
     estimated scf accuracy    <       0.00281138 Ry

     iteration #  9     ecut=    30.00 Ry     beta=0.70
     Davidson diagonalization with overlap
     ethr =  5.39E-06,  avg # of iterations =  1.0

     total cpu time spent up to now is        5.7 secs

     total energy              =     -31.52463751 Ry
     Harris-Foulkes estimate   =     -31.52465255 Ry
     estimated scf accuracy    <       0.00090103 Ry

     iteration # 10     ecut=    30.00 Ry     beta=0.70
     Davidson diagonalization with overlap
     ethr =  5.39E-06,  avg # of iterations =  1.0

     total cpu time spent up to now is        5.8 secs

     total energy              =     -31.52464275 Ry
     Harris-Foulkes estimate   =     -31.52464289 Ry
     estimated scf accuracy    <       0.00007828 Ry

     iteration # 11     ecut=    30.00 Ry     beta=0.70
     Davidson diagonalization with overlap
     ethr =  9.78E-07,  avg # of iterations =  1.0

     total cpu time spent up to now is        5.8 secs

     total energy              =     -31.52463938 Ry
     Harris-Foulkes estimate   =     -31.52464305 Ry
     estimated scf accuracy    <       0.00014599 Ry

     iteration # 12     ecut=    30.00 Ry     beta=0.70
     Davidson diagonalization with overlap
     ethr =  9.78E-07,  avg # of iterations =  1.0

     total cpu time spent up to now is        5.8 secs

     total energy              =     -31.52464105 Ry
     Harris-Foulkes estimate   =     -31.52464111 Ry
     estimated scf accuracy    <       0.00000003 Ry

     iteration # 13     ecut=    30.00 Ry     beta=0.70
     Davidson diagonalization with overlap
     ethr =  4.35E-10,  avg # of iterations =  2.0

     total cpu time spent up to now is        5.8 secs

     End of self-consistent calculation

          k = 0.0000 0.0000 0.0000 ( 22119 PWs)   bands (ev):

   -23.6316  -7.3543  -7.0208  -7.0204  -6.9118  -6.5921  -0.1816   0.7004

     the Fermi energy is    -6.8813 ev

!    total energy              =     -31.52464099 Ry
     Harris-Foulkes estimate   =     -31.52464106 Ry
     estimated scf accuracy    <          4.3E-09 Ry

     convergence has been achieved in  13 iterations

     Forces acting on atoms (Ry/au):

     atom    1 type  1   force =     0.04170048    0.00367218   -0.00420096
     atom    2 type  1   force =     0.00049363   -0.00031561   -0.00070444
     atom    3 type  2   force =    -0.04219410   -0.00335657    0.00490540

     Total force =     0.059888     Total SCF correction =     0.000784

     Entering Dynamics:    iteration =     5
                           time      =   0.0242 pico-seconds


     Andersen thermostat:    3 collisions

ATOMIC_POSITIONS (bohr)
H       19.921981512   6.172837805   1.089236710
H       11.745614212   0.252995285  10.912257518
O        5.215366286   6.369554902   0.336672048


     kinetic energy (Ekin) =     0.02967394 Ry
     temperature           =  1561.71322276 K 
     Ekin + Etot (const)   =   -31.49496705 Ry
     Message from routine dynamics:
     Total linear momentum <> 0

     Linear momentum :    0.2555715914    0.0401351917   -0.1541686132

     Writing output data file pwscf.save

     second order wave-functions extrapolation
     Check: negative starting charge=   -0.343302
     second order charge density extrapolation
     Check: negative starting charge=   -0.343146

     negative rho (up, down):  8.724E-02 0.000E+00

     total cpu time spent up to now is        6.2 secs

     per-process dynamical memory:    20.4 Mb

     Self-consistent Calculation

     iteration #  1     ecut=    30.00 Ry     beta=0.70
     Davidson diagonalization with overlap
     c_bands:  1 eigenvalues not converged
     ethr =  1.00E-06,  avg # of iterations = 20.0

     negative rho (up, down):  2.204E-02 0.000E+00

     total cpu time spent up to now is        6.3 secs

     total energy              =     -30.73230092 Ry
     Harris-Foulkes estimate   =     -31.47577937 Ry
     estimated scf accuracy    <       0.99442350 Ry

     iteration #  2     ecut=    30.00 Ry     beta=0.70
     Davidson diagonalization with overlap
     ethr =  1.00E-02,  avg # of iterations =  3.0

     negative rho (up, down):  1.328E-03 0.000E+00

     total cpu time spent up to now is        6.3 secs

     total energy              =     -30.69078976 Ry
     Harris-Foulkes estimate   =     -34.24215497 Ry
     estimated scf accuracy    <      15.11495082 Ry

     iteration #  3     ecut=    30.00 Ry     beta=0.70
     Davidson diagonalization with overlap
     ethr =  1.00E-02,  avg # of iterations =  6.0

     negative rho (up, down):  1.705E-03 0.000E+00

     total cpu time spent up to now is        6.3 secs

     total energy              =     -31.69547744 Ry
     Harris-Foulkes estimate   =     -31.96775794 Ry
     estimated scf accuracy    <       1.86842876 Ry

     iteration #  4     ecut=    30.00 Ry     beta=0.70
     Davidson diagonalization with overlap
     ethr =  1.00E-02,  avg # of iterations =  1.0

     negative rho (up, down):  2.759E-03 0.000E+00

     total cpu time spent up to now is        6.4 secs

     total energy              =     -31.68416783 Ry
     Harris-Foulkes estimate   =     -31.77668565 Ry
     estimated scf accuracy    <       3.38218837 Ry

     iteration #  5     ecut=    30.00 Ry     beta=0.70
     Davidson diagonalization with overlap
     ethr =  1.00E-02,  avg # of iterations =  1.0

     negative rho (up, down):  1.983E-03 0.000E+00

     total cpu time spent up to now is        6.4 secs

     total energy              =     -31.77339236 Ry
     Harris-Foulkes estimate   =     -31.69243655 Ry
     estimated scf accuracy    <       2.34740387 Ry

     iteration #  6     ecut=    30.00 Ry     beta=0.70
     Davidson diagonalization with overlap
     ethr =  1.00E-02,  avg # of iterations =  1.0

     negative rho (up, down):  7.227E-02 0.000E+00

     total cpu time spent up to now is        6.4 secs

     total energy              =     -31.24117844 Ry
     Harris-Foulkes estimate   =     -31.77656373 Ry
     estimated scf accuracy    <       2.97825260 Ry

     iteration #  7     ecut=    30.00 Ry     beta=0.70
     Davidson diagonalization with overlap
     ethr =  1.00E-02,  avg # of iterations =  1.0

     negative rho (up, down):  5.374E-02 0.000E+00

     total cpu time spent up to now is        6.5 secs

     total energy              =     -31.45928286 Ry
     Harris-Foulkes estimate   =     -31.46520391 Ry
     estimated scf accuracy    <       1.19260269 Ry

     iteration #  8     ecut=    30.00 Ry     beta=0.70
     Davidson diagonalization with overlap
     ethr =  1.00E-02,  avg # of iterations =  1.0

     negative rho (up, down):  1.420E-01 0.000E+00

     total cpu time spent up to now is        6.5 secs

     total energy              =     -31.48756504 Ry
     Harris-Foulkes estimate   =     -31.46096950 Ry
     estimated scf accuracy    <       0.98869692 Ry

     iteration #  9     ecut=    30.00 Ry     beta=0.70
     Davidson diagonalization with overlap
     ethr =  1.00E-02,  avg # of iterations =  4.0

     negative rho (up, down):  1.286E-01 0.000E+00

     total cpu time spent up to now is        6.5 secs

     total energy              =     -31.98648318 Ry
     Harris-Foulkes estimate   =     -32.03574164 Ry
     estimated scf accuracy    <       3.26674249 Ry

     iteration # 10     ecut=    30.00 Ry     beta=0.70
     Davidson diagonalization with overlap
     ethr =  1.00E-02,  avg # of iterations =  1.0

     negative rho (up, down):  2.260E-02 0.000E+00

     total cpu time spent up to now is        6.6 secs

     total energy              =     -31.60697674 Ry
     Harris-Foulkes estimate   =     -31.98673904 Ry
     estimated scf accuracy    <       3.15685450 Ry

     iteration # 11     ecut=    30.00 Ry     beta=0.70
     Davidson diagonalization with overlap
     ethr =  1.00E-02,  avg # of iterations =  1.0

     negative rho (up, down):  7.529E-04 0.000E+00

     total cpu time spent up to now is        6.6 secs

     total energy              =     -31.53904725 Ry
     Harris-Foulkes estimate   =     -31.62061414 Ry
     estimated scf accuracy    <       1.68207738 Ry

     iteration # 12     ecut=    30.00 Ry     beta=0.70
     Davidson diagonalization with overlap
     ethr =  1.00E-02,  avg # of iterations =  1.0

     negative rho (up, down):  7.590E-04 0.000E+00

     total cpu time spent up to now is        6.6 secs

     total energy              =     -31.61854887 Ry
     Harris-Foulkes estimate   =     -31.61313863 Ry
     estimated scf accuracy    <       1.52396341 Ry

     iteration # 13     ecut=    30.00 Ry     beta=0.70
     Davidson diagonalization with overlap
     ethr =  1.00E-02,  avg # of iterations =  1.0

     negative rho (up, down):  7.373E-04 0.000E+00

     total cpu time spent up to now is        6.7 secs

     total energy              =     -31.50743157 Ry
     Harris-Foulkes estimate   =     -31.61880671 Ry
     estimated scf accuracy    <       1.52320549 Ry

     iteration # 14     ecut=    30.00 Ry     beta=0.70
     Davidson diagonalization with overlap
     ethr =  1.00E-02,  avg # of iterations =  1.0

     negative rho (up, down):  3.611E-03 0.000E+00

     total cpu time spent up to now is        6.7 secs

     total energy              =     -31.55826675 Ry
     Harris-Foulkes estimate   =     -31.54480898 Ry
     estimated scf accuracy    <       0.14050599 Ry

     iteration # 15     ecut=    30.00 Ry     beta=0.70
     Davidson diagonalization with overlap
     ethr =  1.76E-03,  avg # of iterations =  1.0

     negative rho (up, down):  5.995E-03 0.000E+00

     total cpu time spent up to now is        6.9 secs

     total energy              =     -31.65711542 Ry
     Harris-Foulkes estimate   =     -31.60430419 Ry
     estimated scf accuracy    <       1.62782288 Ry

     iteration # 16     ecut=    30.00 Ry     beta=0.70
     Davidson diagonalization with overlap
     ethr =  1.76E-03,  avg # of iterations =  1.0

     negative rho (up, down):  1.178E-03 0.000E+00

     total cpu time spent up to now is        6.9 secs

     total energy              =     -31.60567016 Ry
     Harris-Foulkes estimate   =     -31.68147623 Ry
     estimated scf accuracy    <       1.08279436 Ry

     iteration # 17     ecut=    30.00 Ry     beta=0.70
     Davidson diagonalization with overlap
     ethr =  1.76E-03,  avg # of iterations =  1.0

     negative rho (up, down):  9.778E-04 0.000E+00

     total cpu time spent up to now is        6.9 secs

     total energy              =     -31.60234870 Ry
     Harris-Foulkes estimate   =     -31.61600328 Ry
     estimated scf accuracy    <       1.40699976 Ry

     iteration # 18     ecut=    30.00 Ry     beta=0.70
     Davidson diagonalization with overlap
     ethr =  1.76E-03,  avg # of iterations =  1.0

     negative rho (up, down):  4.394E-04 0.000E+00

     total cpu time spent up to now is        7.0 secs

     total energy              =     -31.56799772 Ry
     Harris-Foulkes estimate   =     -31.60242248 Ry
     estimated scf accuracy    <       1.35124176 Ry

     iteration # 19     ecut=    30.00 Ry     beta=0.70
     Davidson diagonalization with overlap
     ethr =  1.76E-03,  avg # of iterations =  1.0

     negative rho (up, down):  2.511E-04 0.000E+00

     total cpu time spent up to now is        7.0 secs

     total energy              =     -31.56694947 Ry
     Harris-Foulkes estimate   =     -31.56894369 Ry
     estimated scf accuracy    <       1.08099554 Ry

     iteration # 20     ecut=    30.00 Ry     beta=0.70
     Davidson diagonalization with overlap
     ethr =  1.76E-03,  avg # of iterations =  1.0

     negative rho (up, down):  2.795E-04 0.000E+00

     total cpu time spent up to now is        7.0 secs

     total energy              =     -31.56578380 Ry
     Harris-Foulkes estimate   =     -31.56710255 Ry
     estimated scf accuracy    <       1.01006713 Ry

     iteration # 21     ecut=    30.00 Ry     beta=0.70
     Davidson diagonalization with overlap
     ethr =  1.76E-03,  avg # of iterations =  1.0

     negative rho (up, down):  3.751E-04 0.000E+00

     total cpu time spent up to now is        7.1 secs

     total energy              =     -31.54523974 Ry
     Harris-Foulkes estimate   =     -31.56579307 Ry
     estimated scf accuracy    <       0.99914117 Ry

     iteration # 22     ecut=    30.00 Ry     beta=0.70
     Davidson diagonalization with overlap
     ethr =  1.76E-03,  avg # of iterations =  1.0

     total cpu time spent up to now is        7.1 secs

     total energy              =     -31.55253640 Ry
     Harris-Foulkes estimate   =     -31.54690210 Ry
     estimated scf accuracy    <       0.65653151 Ry

     iteration # 23     ecut=    30.00 Ry     beta=0.70
     Davidson diagonalization with overlap
     ethr =  1.76E-03,  avg # of iterations =  1.0

     negative rho (up, down):  1.486E-07 0.000E+00

     total cpu time spent up to now is        7.1 secs

     total energy              =     -31.45962051 Ry
     Harris-Foulkes estimate   =     -31.55420007 Ry
     estimated scf accuracy    <       0.82909586 Ry

     iteration # 24     ecut=    30.00 Ry     beta=0.70
     Davidson diagonalization with overlap
     ethr =  1.76E-03,  avg # of iterations =  1.0

     total cpu time spent up to now is        7.2 secs

     total energy              =     -31.57425624 Ry
     Harris-Foulkes estimate   =     -31.61052050 Ry
     estimated scf accuracy    <       1.33811558 Ry

     iteration # 25     ecut=    30.00 Ry     beta=0.70
     Davidson diagonalization with overlap
     ethr =  1.76E-03,  avg # of iterations =  1.0

     negative rho (up, down):  6.765E-08 0.000E+00

     total cpu time spent up to now is        7.2 secs

     total energy              =     -31.64950264 Ry
     Harris-Foulkes estimate   =     -31.57250004 Ry
     estimated scf accuracy    <       1.63008411 Ry

     iteration # 26     ecut=    30.00 Ry     beta=0.70
     Davidson diagonalization with overlap
     ethr =  1.76E-03,  avg # of iterations =  1.0

     negative rho (up, down):  1.931E-07 0.000E+00

     total cpu time spent up to now is        7.2 secs

     total energy              =     -31.66410181 Ry
     Harris-Foulkes estimate   =     -31.64249907 Ry
     estimated scf accuracy    <       1.39169801 Ry

     iteration # 27     ecut=    30.00 Ry     beta=0.70
     Davidson diagonalization with overlap
     ethr =  1.76E-03,  avg # of iterations =  1.0

     negative rho (up, down):  3.207E-07 0.000E+00

     total cpu time spent up to now is        7.3 secs

     total energy              =     -31.63281679 Ry
     Harris-Foulkes estimate   =     -31.66417160 Ry
     estimated scf accuracy    <       1.43850897 Ry

     iteration # 28     ecut=    30.00 Ry     beta=0.70
     Davidson diagonalization with overlap
     ethr =  1.76E-03,  avg # of iterations =  1.0

     total cpu time spent up to now is        7.3 secs

     total energy              =     -31.53607919 Ry
     Harris-Foulkes estimate   =     -31.63289776 Ry
     estimated scf accuracy    <       1.37306416 Ry

     iteration # 29     ecut=    30.00 Ry     beta=0.70
     Davidson diagonalization with overlap
     ethr =  1.76E-03,  avg # of iterations =  1.0

     negative rho (up, down):  3.825E-07 0.000E+00

     total cpu time spent up to now is        7.3 secs

     total energy              =     -31.52499766 Ry
     Harris-Foulkes estimate   =     -31.53814514 Ry
     estimated scf accuracy    <       0.21456437 Ry

     iteration # 30     ecut=    30.00 Ry     beta=0.70
     Davidson diagonalization with overlap
     ethr =  1.76E-03,  avg # of iterations =  1.0

     negative rho (up, down):  7.976E-06 0.000E+00

     total cpu time spent up to now is        7.4 secs

     total energy              =     -31.55913389 Ry
     Harris-Foulkes estimate   =     -31.54067171 Ry
     estimated scf accuracy    <       0.34299211 Ry

     iteration # 31     ecut=    30.00 Ry     beta=0.70
     Davidson diagonalization with overlap
     ethr =  1.76E-03,  avg # of iterations =  1.0

     negative rho (up, down):  1.360E-06 0.000E+00

     total cpu time spent up to now is        7.4 secs

     total energy              =     -31.45849931 Ry
     Harris-Foulkes estimate   =     -31.56682740 Ry
     estimated scf accuracy    <       0.93551635 Ry

     iteration # 32     ecut=    30.00 Ry     beta=0.70
     Davidson diagonalization with overlap
     ethr =  1.76E-03,  avg # of iterations =  1.0

     negative rho (up, down):  1.181E-06 0.000E+00

     total cpu time spent up to now is        7.4 secs

     total energy              =     -31.58222629 Ry
     Harris-Foulkes estimate   =     -31.60215980 Ry
     estimated scf accuracy    <       1.37089201 Ry

     iteration # 33     ecut=    30.00 Ry     beta=0.70
     Davidson diagonalization with overlap
     ethr =  1.76E-03,  avg # of iterations =  1.0

     negative rho (up, down):  1.074E-07 0.000E+00

     total cpu time spent up to now is        7.5 secs

     total energy              =     -31.65083796 Ry
     Harris-Foulkes estimate   =     -31.58160560 Ry
     estimated scf accuracy    <       1.56025698 Ry

     iteration # 34     ecut=    30.00 Ry     beta=0.70
     Davidson diagonalization with overlap
     ethr =  1.76E-03,  avg # of iterations =  1.0

     total cpu time spent up to now is        7.5 secs

     total energy              =     -31.69087204 Ry
     Harris-Foulkes estimate   =     -31.64584663 Ry
     estimated scf accuracy    <       1.40053047 Ry

     iteration # 35     ecut=    30.00 Ry     beta=0.70
     Davidson diagonalization with overlap
     ethr =  1.76E-03,  avg # of iterations =  1.0

     total cpu time spent up to now is        7.5 secs

     total energy              =     -31.66203668 Ry
     Harris-Foulkes estimate   =     -31.69109286 Ry
     estimated scf accuracy    <       1.49911687 Ry

     iteration # 36     ecut=    30.00 Ry     beta=0.70
     Davidson diagonalization with overlap
     ethr =  1.76E-03,  avg # of iterations =  1.0

     total cpu time spent up to now is        7.6 secs

     total energy              =     -31.61182501 Ry
     Harris-Foulkes estimate   =     -31.66210808 Ry
     estimated scf accuracy    <       1.43124762 Ry

     iteration # 37     ecut=    30.00 Ry     beta=0.70
     Davidson diagonalization with overlap
     ethr =  1.76E-03,  avg # of iterations =  1.0

     total cpu time spent up to now is        7.6 secs

     total energy              =     -31.61115537 Ry
     Harris-Foulkes estimate   =     -31.61204296 Ry
     estimated scf accuracy    <       1.33726526 Ry

     iteration # 38     ecut=    30.00 Ry     beta=0.70
     Davidson diagonalization with overlap
     ethr =  1.76E-03,  avg # of iterations =  1.0

     total cpu time spent up to now is        7.6 secs

     total energy              =     -31.57993215 Ry
     Harris-Foulkes estimate   =     -31.61115888 Ry
     estimated scf accuracy    <       1.33803401 Ry

     iteration # 39     ecut=    30.00 Ry     beta=0.70
     Davidson diagonalization with overlap
     ethr =  1.76E-03,  avg # of iterations =  1.0

     total cpu time spent up to now is        7.7 secs

     total energy              =     -31.56506581 Ry
     Harris-Foulkes estimate   =     -31.57879823 Ry
     estimated scf accuracy    <       1.58296734 Ry

     iteration # 40     ecut=    30.00 Ry     beta=0.70
     Davidson diagonalization with overlap
     ethr =  1.76E-03,  avg # of iterations =  1.0

     negative rho (up, down):  5.112E-03 0.000E+00

     total cpu time spent up to now is        7.7 secs

     total energy              =     -31.88967188 Ry
     Harris-Foulkes estimate   =     -31.56482545 Ry
     estimated scf accuracy    <       1.60843102 Ry

     iteration # 41     ecut=    30.00 Ry     beta=0.70
     Davidson diagonalization with overlap
     ethr =  1.76E-03,  avg # of iterations =  2.0

     negative rho (up, down):  1.946E-02 0.000E+00

     total cpu time spent up to now is        7.7 secs

     total energy              =     -31.97766013 Ry
     Harris-Foulkes estimate   =     -31.86272917 Ry
     estimated scf accuracy    <       1.84181839 Ry

     iteration # 42     ecut=    30.00 Ry     beta=0.70
     Davidson diagonalization with overlap
     ethr =  1.76E-03,  avg # of iterations =  1.0

     negative rho (up, down):  1.041E-02 0.000E+00

     total cpu time spent up to now is        7.8 secs

     total energy              =     -31.93893416 Ry
     Harris-Foulkes estimate   =     -31.97923745 Ry
     estimated scf accuracy    <       2.10634184 Ry

     iteration # 43     ecut=    30.00 Ry     beta=0.70
     Davidson diagonalization with overlap
     ethr =  1.76E-03,  avg # of iterations =  1.0

     negative rho (up, down):  7.714E-03 0.000E+00

     total cpu time spent up to now is        7.8 secs

     total energy              =     -31.89344719 Ry
     Harris-Foulkes estimate   =     -31.93942950 Ry
     estimated scf accuracy    <       2.04344493 Ry

     iteration # 44     ecut=    30.00 Ry     beta=0.70
     Davidson diagonalization with overlap
     ethr =  1.76E-03,  avg # of iterations =  1.0

     negative rho (up, down):  6.540E-03 0.000E+00

     total cpu time spent up to now is        7.8 secs

     total energy              =     -31.87415578 Ry
     Harris-Foulkes estimate   =     -31.89372432 Ry
     estimated scf accuracy    <       1.92625606 Ry

     iteration # 45     ecut=    30.00 Ry     beta=0.70
[...]
     Harris-Foulkes estimate   =    -155.79535874 Ry
     estimated scf accuracy    <      14.61312569 Ry

     iteration # 59     ecut=    30.00 Ry     beta=0.70
     Davidson diagonalization with overlap
     ethr =  1.00E-02,  avg # of iterations =  6.0

     negative rho (up, down):  4.377E-02 0.000E+00

     total cpu time spent up to now is       17.3 secs

     total energy              =      -4.97171605 Ry
     Harris-Foulkes estimate   =     -62.19600835 Ry
     estimated scf accuracy    <      10.59357795 Ry

     iteration # 60     ecut=    30.00 Ry     beta=0.70
     Davidson diagonalization with overlap
     ethr =  1.00E-02,  avg # of iterations =  4.0

     negative rho (up, down):  9.522E-02 0.000E+00

     total cpu time spent up to now is       17.4 secs

     total energy              =    -653.91544779 Ry
     Harris-Foulkes estimate   =     -52.29895376 Ry
     estimated scf accuracy    <      24.28107421 Ry

     iteration # 61     ecut=    30.00 Ry     beta=0.70
     Davidson diagonalization with overlap
     ethr =  1.00E-02,  avg # of iterations =  7.0

     negative rho (up, down):  7.893E-02 0.000E+00

     total cpu time spent up to now is       17.4 secs

     total energy              =      15.54292244 Ry
     Harris-Foulkes estimate   =   -2331.74114505 Ry
     estimated scf accuracy    <      29.13984766 Ry

     iteration # 62     ecut=    30.00 Ry     beta=0.70
     Davidson diagonalization with overlap
     ethr =  1.00E-02,  avg # of iterations =  5.0

     negative rho (up, down):  1.247E-01 0.000E+00

     total cpu time spent up to now is       17.5 secs

     total energy              =    -105.06145805 Ry
     Harris-Foulkes estimate   =    -164.67581349 Ry
     estimated scf accuracy    <      24.48556702 Ry

     iteration # 63     ecut=    30.00 Ry     beta=0.70
     Davidson diagonalization with overlap
     ethr =  1.00E-02,  avg # of iterations =  5.0

     negative rho (up, down):  7.765E-02 0.000E+00

     total cpu time spent up to now is       17.5 secs

     total energy              =      16.53998186 Ry
     Harris-Foulkes estimate   =    -515.80630763 Ry
     estimated scf accuracy    <      17.42169112 Ry

     iteration # 64     ecut=    30.00 Ry     beta=0.70
     Davidson diagonalization with overlap
     ethr =  1.00E-02,  avg # of iterations =  5.0

     negative rho (up, down):  8.875E-02 0.000E+00

     total cpu time spent up to now is       17.6 secs

     total energy              =      77.58480282 Ry
     Harris-Foulkes estimate   =   -1301.03638103 Ry
     estimated scf accuracy    <      45.70094190 Ry

     iteration # 65     ecut=    30.00 Ry     beta=0.70
     Davidson diagonalization with overlap
     ethr =  1.00E-02,  avg # of iterations =  5.0

     negative rho (up, down):  5.145E-02 0.000E+00

     total cpu time spent up to now is       17.6 secs

     total energy              =     390.83842529 Ry
     Harris-Foulkes estimate   =    -180.26324804 Ry
     estimated scf accuracy    <      23.85605410 Ry

     iteration # 66     ecut=    30.00 Ry     beta=0.70
     Davidson diagonalization with overlap
     ethr =  1.00E-02,  avg # of iterations =  9.0

     negative rho (up, down):  3.919E-02 0.000E+00

     total cpu time spent up to now is       17.7 secs

     total energy              =      49.42554767 Ry
     Harris-Foulkes estimate   =    -206.22733726 Ry
     estimated scf accuracy    <      18.15745458 Ry

     iteration # 67     ecut=    30.00 Ry     beta=0.70
     Davidson diagonalization with overlap
     ethr =  1.00E-02,  avg # of iterations =  6.0

     negative rho (up, down):  1.125E-01 0.000E+00

     total cpu time spent up to now is       17.7 secs

     total energy              =      32.50094579 Ry
     Harris-Foulkes estimate   =     -84.14068354 Ry
     estimated scf accuracy    <      16.45859173 Ry

     iteration # 68     ecut=    30.00 Ry     beta=0.70
     Davidson diagonalization with overlap
     ethr =  1.00E-02,  avg # of iterations =  5.0

     negative rho (up, down):  2.963E-01 0.000E+00

     total cpu time spent up to now is       17.8 secs

     total energy              =     -60.01079211 Ry
     Harris-Foulkes estimate   =     -51.36879119 Ry
     estimated scf accuracy    <      13.97184782 Ry

     iteration # 69     ecut=    30.00 Ry     beta=0.70
     Davidson diagonalization with overlap
     ethr =  1.00E-02,  avg # of iterations =  9.0

     negative rho (up, down):  1.081E-03 0.000E+00

     total cpu time spent up to now is       17.8 secs

     total energy              =     102.15102985 Ry
     Harris-Foulkes estimate   =   -1352.90426738 Ry
     estimated scf accuracy    <      24.01828778 Ry

     iteration # 70     ecut=    30.00 Ry     beta=0.70
     Davidson diagonalization with overlap
     ethr =  1.00E-02,  avg # of iterations = 12.0

     negative rho (up, down):  4.615E-04 0.000E+00

     total cpu time spent up to now is       17.9 secs

     total energy              =     -13.58262904 Ry
     Harris-Foulkes estimate   =     -36.35644466 Ry
     estimated scf accuracy    <       8.19996126 Ry

     iteration # 71     ecut=    30.00 Ry     beta=0.70
     Davidson diagonalization with overlap
     ethr =  1.00E-02,  avg # of iterations =  4.0

     negative rho (up, down):  3.554E-02 0.000E+00

     total cpu time spent up to now is       17.9 secs

     total energy              =     -35.18346431 Ry
     Harris-Foulkes estimate   =     -33.17425835 Ry
     estimated scf accuracy    <       8.28925568 Ry

     iteration # 72     ecut=    30.00 Ry     beta=0.70
     Davidson diagonalization with overlap
     ethr =  1.00E-02,  avg # of iterations =  4.0

     negative rho (up, down):  2.173E-02 0.000E+00

     total cpu time spent up to now is       18.0 secs

     total energy              =     -23.93299280 Ry
     Harris-Foulkes estimate   =     -75.22416387 Ry
     estimated scf accuracy    <      16.03721362 Ry

     iteration # 73     ecut=    30.00 Ry     beta=0.70
     Davidson diagonalization with overlap
     ethr =  1.00E-02,  avg # of iterations =  6.0

     negative rho (up, down):  1.628E-04 0.000E+00

     total cpu time spent up to now is       18.0 secs

     total energy              =     103.11140947 Ry
     Harris-Foulkes estimate   =   -1146.50706091 Ry
     estimated scf accuracy    <      20.88264590 Ry

     iteration # 74     ecut=    30.00 Ry     beta=0.70
     Davidson diagonalization with overlap
     ethr =  1.00E-02,  avg # of iterations = 10.0

     negative rho (up, down):  1.796E-03 0.000E+00

     total cpu time spent up to now is       18.1 secs

     total energy              =     -30.75793174 Ry
     Harris-Foulkes estimate   =     -31.70800571 Ry
     estimated scf accuracy    <       6.21435912 Ry

     iteration # 75     ecut=    30.00 Ry     beta=0.70
     Davidson diagonalization with overlap
     ethr =  1.00E-02,  avg # of iterations =  3.0

     negative rho (up, down):  1.108E-02 0.000E+00

     total cpu time spent up to now is       18.1 secs

     total energy              =     -15.46363651 Ry
     Harris-Foulkes estimate   =     -35.32253358 Ry
     estimated scf accuracy    <       5.88443727 Ry

     iteration # 76     ecut=    30.00 Ry     beta=0.70
     Davidson diagonalization with overlap
     ethr =  1.00E-02,  avg # of iterations =  7.0

     negative rho (up, down):  4.927E-03 0.000E+00

     total cpu time spent up to now is       18.2 secs

     total energy              =      16.73599562 Ry
     Harris-Foulkes estimate   =    -129.20784913 Ry
     estimated scf accuracy    <      15.51478088 Ry

     iteration # 77     ecut=    30.00 Ry     beta=0.70
     Davidson diagonalization with overlap
     ethr =  1.00E-02,  avg # of iterations =  4.0

     negative rho (up, down):  2.691E-03 0.000E+00

     total cpu time spent up to now is       18.2 secs

     total energy              =       3.74617812 Ry
     Harris-Foulkes estimate   =     -53.42906431 Ry
     estimated scf accuracy    <      10.24441793 Ry

     iteration # 78     ecut=    30.00 Ry     beta=0.70
     Davidson diagonalization with overlap
     ethr =  1.00E-02,  avg # of iterations =  4.0

     negative rho (up, down):  3.474E-02 0.000E+00

     total cpu time spent up to now is       18.2 secs

     total energy              =     -27.94194954 Ry
     Harris-Foulkes estimate   =     -33.29788974 Ry
     estimated scf accuracy    <       4.70221131 Ry

     iteration # 79     ecut=    30.00 Ry     beta=0.70
     Davidson diagonalization with overlap
     ethr =  1.00E-02,  avg # of iterations =  4.0

     negative rho (up, down):  4.570E-02 0.000E+00

     total cpu time spent up to now is       18.3 secs

     total energy              =    -125.21487759 Ry
     Harris-Foulkes estimate   =     -37.53532314 Ry
     estimated scf accuracy    <       8.97431669 Ry

     iteration # 80     ecut=    30.00 Ry     beta=0.70
     Davidson diagonalization with overlap
     ethr =  1.00E-02,  avg # of iterations =  3.0

     negative rho (up, down):  1.654E-02 0.000E+00

     total cpu time spent up to now is       18.3 secs

     total energy              =      43.37023747 Ry
     Harris-Foulkes estimate   =    -549.99543526 Ry
     estimated scf accuracy    <      27.06180611 Ry

     iteration # 81     ecut=    30.00 Ry     beta=0.70
     Davidson diagonalization with overlap
     ethr =  1.00E-02,  avg # of iterations =  4.0

     negative rho (up, down):  7.181E-02 0.000E+00

     total cpu time spent up to now is       18.4 secs

     total energy              =     -25.48004046 Ry
     Harris-Foulkes estimate   =     -31.83245221 Ry
     estimated scf accuracy    <       3.18995310 Ry

     iteration # 82     ecut=    30.00 Ry     beta=0.70
     Davidson diagonalization with overlap
     ethr =  1.00E-02,  avg # of iterations =  5.0

     negative rho (up, down):  4.940E-02 0.000E+00

     total cpu time spent up to now is       18.4 secs

     total energy              =    -169.82680401 Ry
     Harris-Foulkes estimate   =     -64.27361806 Ry
     estimated scf accuracy    <      14.13835257 Ry

     iteration # 83     ecut=    30.00 Ry     beta=0.70
     Davidson diagonalization with overlap
     ethr =  1.00E-02,  avg # of iterations =  5.0

     negative rho (up, down):  6.396E-02 0.000E+00

     total cpu time spent up to now is       18.5 secs

     total energy              =      46.67374981 Ry
     Harris-Foulkes estimate   =    -266.72704625 Ry
     estimated scf accuracy    <      18.88473886 Ry

     iteration # 84     ecut=    30.00 Ry     beta=0.70
     Davidson diagonalization with overlap
     ethr =  1.00E-02,  avg # of iterations =  5.0

     negative rho (up, down):  7.161E-02 0.000E+00

     total cpu time spent up to now is       18.5 secs

     total energy              =       1.02565707 Ry
     Harris-Foulkes estimate   =    -175.20355190 Ry
     estimated scf accuracy    <       5.57495382 Ry

     iteration # 85     ecut=    30.00 Ry     beta=0.70
     Davidson diagonalization with overlap
     ethr =  1.00E-02,  avg # of iterations =  6.0

     negative rho (up, down):  4.330E-03 0.000E+00

     total cpu time spent up to now is       18.6 secs

     total energy              =     101.95970667 Ry
     Harris-Foulkes estimate   =    -612.40516603 Ry
     estimated scf accuracy    <      50.16928494 Ry

     iteration # 86     ecut=    30.00 Ry     beta=0.70
     Davidson diagonalization with overlap
     ethr =  1.00E-02,  avg # of iterations =  8.0

     negative rho (up, down):  4.166E-02 0.000E+00

     total cpu time spent up to now is       18.6 secs

     total energy              =     -29.99284247 Ry
     Harris-Foulkes estimate   =     -30.33636759 Ry
     estimated scf accuracy    <       3.53109835 Ry

     iteration # 87     ecut=    30.00 Ry     beta=0.70
     Davidson diagonalization with overlap
     ethr =  1.00E-02,  avg # of iterations =  3.0

     negative rho (up, down):  1.649E-02 0.000E+00

     total cpu time spent up to now is       18.7 secs

     total energy              =     -57.54664460 Ry
     Harris-Foulkes estimate   =     -37.55614631 Ry
     estimated scf accuracy    <       4.50295348 Ry

     iteration # 88     ecut=    30.00 Ry     beta=0.70
     Davidson diagonalization with overlap
     ethr =  1.00E-02,  avg # of iterations =  3.0

     negative rho (up, down):  3.599E-04 0.000E+00

     total cpu time spent up to now is       18.7 secs

     total energy              =       3.98816600 Ry
     Harris-Foulkes estimate   =    -232.34319258 Ry
     estimated scf accuracy    <       5.39961093 Ry

     iteration # 89     ecut=    30.00 Ry     beta=0.70
     Davidson diagonalization with overlap
     ethr =  1.00E-02,  avg # of iterations =  4.0

     negative rho (up, down):  6.745E-07 0.000E+00

     total cpu time spent up to now is       18.7 secs

     total energy              =     -29.90096280 Ry
     Harris-Foulkes estimate   =     -30.12055817 Ry
     estimated scf accuracy    <       3.18638034 Ry

     iteration # 90     ecut=    30.00 Ry     beta=0.70
     Davidson diagonalization with overlap
     ethr =  1.00E-02,  avg # of iterations =  1.0

     negative rho (up, down):  1.565E-03 0.000E+00

     total cpu time spent up to now is       18.8 secs

     total energy              =     -29.80186291 Ry
     Harris-Foulkes estimate   =     -29.93595332 Ry
     estimated scf accuracy    <       1.78925827 Ry

     iteration # 91     ecut=    30.00 Ry     beta=0.70
     Davidson diagonalization with overlap
     ethr =  1.00E-02,  avg # of iterations =  1.0

     negative rho (up, down):  4.787E-03 0.000E+00

     total cpu time spent up to now is       18.8 secs

     total energy              =     -29.63945485 Ry
     Harris-Foulkes estimate   =     -29.83272892 Ry
     estimated scf accuracy    <       2.32673709 Ry

     iteration # 92     ecut=    30.00 Ry     beta=0.70
     Davidson diagonalization with overlap
     ethr =  1.00E-02,  avg # of iterations =  1.0

     negative rho (up, down):  7.376E-03 0.000E+00

     total cpu time spent up to now is       18.8 secs

     total energy              =     -29.60353536 Ry
     Harris-Foulkes estimate   =     -29.73651073 Ry
     estimated scf accuracy    <       2.30274115 Ry

     iteration # 93     ecut=    30.00 Ry     beta=0.70
     Davidson diagonalization with overlap
     ethr =  1.00E-02,  avg # of iterations =  3.0

     negative rho (up, down):  5.265E-04 0.000E+00

     total cpu time spent up to now is       18.9 secs

     total energy              =     -27.73412637 Ry
     Harris-Foulkes estimate   =     -30.20661056 Ry
     estimated scf accuracy    <       1.72770490 Ry

     iteration # 94     ecut=    30.00 Ry     beta=0.70
     Davidson diagonalization with overlap
     ethr =  1.00E-02,  avg # of iterations =  3.0

     negative rho (up, down):  6.306E-02 0.000E+00

     total cpu time spent up to now is       18.9 secs

     total energy              =     -29.18658444 Ry
     Harris-Foulkes estimate   =     -29.65209947 Ry
     estimated scf accuracy    <       1.55793316 Ry

     iteration # 95     ecut=    30.00 Ry     beta=0.70
     Davidson diagonalization with overlap
     ethr =  1.00E-02,  avg # of iterations =  4.0

     negative rho (up, down):  2.126E-02 0.000E+00

     total cpu time spent up to now is       18.9 secs

     total energy              =     -26.05028210 Ry
     Harris-Foulkes estimate   =     -30.39978903 Ry
     estimated scf accuracy    <       3.76647726 Ry

     iteration # 96     ecut=    30.00 Ry     beta=0.70
     Davidson diagonalization with overlap
     ethr =  1.00E-02,  avg # of iterations =  3.0

     negative rho (up, down):  6.766E-03 0.000E+00

     total cpu time spent up to now is       19.0 secs

     total energy              =     -29.08710793 Ry
     Harris-Foulkes estimate   =     -29.31183023 Ry
     estimated scf accuracy    <       1.90589474 Ry

     iteration # 97     ecut=    30.00 Ry     beta=0.70
     Davidson diagonalization with overlap
     ethr =  1.00E-02,  avg # of iterations =  2.0

     negative rho (up, down):  2.487E-02 0.000E+00

     total cpu time spent up to now is       19.0 secs

     total energy              =     -29.06343811 Ry
     Harris-Foulkes estimate   =     -29.12325024 Ry
     estimated scf accuracy    <       0.35468000 Ry

     iteration # 98     ecut=    30.00 Ry     beta=0.70
     Davidson diagonalization with overlap
     ethr =  4.43E-03,  avg # of iterations =  1.0

     negative rho (up, down):  2.027E-02 0.000E+00

     total cpu time spent up to now is       19.0 secs

     total energy              =     -29.01920911 Ry
     Harris-Foulkes estimate   =     -29.08870059 Ry
     estimated scf accuracy    <       0.71406780 Ry

     iteration # 99     ecut=    30.00 Ry     beta=0.70
     Davidson diagonalization with overlap
     ethr =  4.43E-03,  avg # of iterations =  1.0

     negative rho (up, down):  9.780E-03 0.000E+00

     total cpu time spent up to now is       19.1 secs

     total energy              =     -29.04602480 Ry
     Harris-Foulkes estimate   =     -29.08382705 Ry
     estimated scf accuracy    <       0.91153105 Ry

     iteration #100     ecut=    30.00 Ry     beta=0.70
     Davidson diagonalization with overlap
     ethr =  4.43E-03,  avg # of iterations =  1.0

     negative rho (up, down):  5.748E-03 0.000E+00

     total cpu time spent up to now is       19.1 secs

     total energy              =     -29.04772960 Ry
     Harris-Foulkes estimate   =     -29.05304109 Ry
     estimated scf accuracy    <       0.16654862 Ry

     End of self-consistent calculation

     convergence NOT achieved after 100 iterations: stopping

     Writing output data file pwscf.save
 
     init_run     :      0.09s CPU      0.11s WALL (       1 calls)
     electrons    :     12.94s CPU     16.49s WALL (      10 calls)
     update_pot   :      1.12s CPU      1.60s WALL (       9 calls)
     forces       :      0.23s CPU      0.24s WALL (       9 calls)

     Called by init_run:
     wfcinit      :      0.01s CPU      0.03s WALL (       1 calls)
     potinit      :      0.02s CPU      0.03s WALL (       1 calls)

     Called by electrons:
     c_bands      :      5.87s CPU      6.35s WALL (     398 calls)
     sum_band     :      1.14s CPU      1.23s WALL (     398 calls)
     v_of_rho     :      2.86s CPU      3.02s WALL (     408 calls)
     mix_rho      :      2.67s CPU      4.66s WALL (     398 calls)

     Called by c_bands:
     init_us_2    :      0.04s CPU      0.05s WALL (     797 calls)
     cegterg      :      5.78s CPU      6.13s WALL (     398 calls)

     Called by sum_band:

     Called by *egterg:
     h_psi        :      4.90s CPU      5.20s WALL (    1673 calls)
     g_psi        :      0.05s CPU      0.05s WALL (    1274 calls)
     cdiaghg      :      0.32s CPU      0.33s WALL (    1663 calls)

     Called by h_psi:
     h_psi:pot    :      4.87s CPU      5.17s WALL (    1673 calls)
     h_psi:calbec :      0.14s CPU      0.21s WALL (    1673 calls)
     vloc_psi     :      4.71s CPU      4.93s WALL (    1673 calls)
     add_vuspsi   :      0.01s CPU      0.02s WALL (    1673 calls)

     General routines
     calbec       :      0.20s CPU      0.31s WALL (    1717 calls)
     fft          :      1.81s CPU      1.89s WALL (    4506 calls)
     fftw         :      4.95s CPU      5.21s WALL (   22504 calls)
     davcio       :      0.44s CPU      1.70s WALL (    7083 calls)
 
     Parallel routines
     fft_scatter  :      2.62s CPU      2.84s WALL (   27010 calls)
 
     PWSCF        :    14.71s CPU        19.18s WALL

 
   This run was terminated on:   0:57:12  11Feb2018            

=------------------------------------------------------------------------------=
   JOB DONE.
=------------------------------------------------------------------------------=
