
     Program PWSCF v.6.0 (svn rev. 13079) starts on 11Feb2018 at  0:59:35 

     This program is part of the open-source Quantum ESPRESSO suite
     for quantum simulation of materials; please cite
         "P. Giannozzi et al., J. Phys.:Condens. Matter 21 395502 (2009);
          URL http://www.quantum-espresso.org", 
     in publications or presentations arising from this work. More details at
     http://www.quantum-espresso.org/quote

     Parallel version (MPI), running on    28 processors
     R & G space division:  proc/nbgrp/npool/nimage =      28
     Reading input from inputs/water-1-md/266.in

     Current dimensions of program PWSCF are:
     Max number of different atomic species (ntypx) = 10
     Max number of k-points (npk) =  40000
     Max angular momentum in pseudopotentials (lmaxx) =  3

     Subspace diagonalization in iterative solution of the eigenvalue problem:
     a serial algorithm will be used

 
     Parallelization info
     --------------------
     sticks:   dense  smooth     PW     G-vecs:    dense   smooth      PW
     Min         136     136     33                 6338     6338     787
     Max         137     137     34                 6341     6341     792
     Sum        3809    3809    949               177509   177509   22119
 


     bravais-lattice index     =            1
     lattice parameter (alat)  =      20.0000  a.u.
     unit-cell volume          =    8000.0000 (a.u.)^3
     number of atoms/cell      =            3
     number of atomic types    =            2
     number of electrons       =         8.00
     number of Kohn-Sham states=            8
     kinetic-energy cutoff     =      30.0000  Ry
     charge density cutoff     =     120.0000  Ry
     convergence threshold     =      1.0E-08
     mixing beta               =       0.7000
     number of iterations used =            8  plain     mixing
     Exchange-correlation      = BLYP ( 1  3  1  3 0 0)
     nstep                     =         5000


     celldm(1)=  20.000000  celldm(2)=   0.000000  celldm(3)=   0.000000
     celldm(4)=   0.000000  celldm(5)=   0.000000  celldm(6)=   0.000000

     crystal axes: (cart. coord. in units of alat)
               a(1) = (   1.000000   0.000000   0.000000 )  
               a(2) = (   0.000000   1.000000   0.000000 )  
               a(3) = (   0.000000   0.000000   1.000000 )  

     reciprocal axes: (cart. coord. in units 2 pi/alat)
               b(1) = (  1.000000  0.000000  0.000000 )  
               b(2) = (  0.000000  1.000000  0.000000 )  
               b(3) = (  0.000000  0.000000  1.000000 )  


     PseudoPot. # 1 for  H read from file:
     ./H.blyp-hgh.UPF
     MD5 check sum: c576e69559cde411e611be972c763230
     Pseudo is Norm-conserving, Zval =  1.0
     Generated in analytical, separable form
     Using radial grid of  929 points,  0 beta functions with: 

     PseudoPot. # 2 for  O read from file:
     ./O.blyp-hgh.UPF
     MD5 check sum: d0b7156309aa9befef28faac7bc56342
     Pseudo is Norm-conserving, Zval =  6.0
     Generated in analytical, separable form
     Using radial grid of 1095 points,  1 beta functions with: 
                l(1) =   0

     atomic species   valence    mass     pseudopotential
        H              1.00     1.01000      H( 1.00)
        O              6.00    16.00000      O( 1.00)

     No symmetry found



   Cartesian axes

     site n.     atom                  positions (alat units)
         1           H   tau(   1) = (   0.8265752   0.7793393   0.8235324  )
         2           H   tau(   2) = (   0.5712617   0.0599880   0.6566646  )
         3           O   tau(   3) = (   0.5379506   0.8133166   0.9178367  )

     number of k points=     1  Marzari-Vanderbilt smearing, width (Ry)=  0.0250
                       cart. coord. in units 2pi/alat
        k(    1) = (   0.0000000   0.0000000   0.0000000), wk =   2.0000000

     Dense  grid:   177509 G-vectors     FFT dimensions: (  72,  72,  72)

     Estimated max dynamical RAM per process >       6.09Mb

     Estimated total allocated dynamical RAM >     170.64Mb

     Initial potential from superposition of free atoms
     Check: negative starting charge=   -0.337528

     starting charge    7.99998, renormalised to    8.00000

     negative rho (up, down):  3.375E-01 0.000E+00
     Starting wfc are    6 randomized atomic wfcs +    2 random wfc

     total cpu time spent up to now is        0.2 secs

     per-process dynamical memory:    18.8 Mb

     Self-consistent Calculation

     iteration #  1     ecut=    30.00 Ry     beta=0.70
     Davidson diagonalization with overlap
     ethr =  1.00E-02,  avg # of iterations =  7.0

     negative rho (up, down):  8.343E-02 0.000E+00

     total cpu time spent up to now is        0.3 secs

     total energy              =     -28.54839686 Ry
     Harris-Foulkes estimate   =     -32.05900809 Ry
     estimated scf accuracy    <       4.05662494 Ry

     iteration #  2     ecut=    30.00 Ry     beta=0.70
     Davidson diagonalization with overlap
     ethr =  1.00E-02,  avg # of iterations =  4.0

     negative rho (up, down):  6.135E-02 0.000E+00

     total cpu time spent up to now is        0.3 secs

     total energy              =     -32.39160585 Ry
     Harris-Foulkes estimate   =     -37.10640349 Ry
     estimated scf accuracy    <      11.66786120 Ry

     iteration #  3     ecut=    30.00 Ry     beta=0.70
     Davidson diagonalization with overlap
     ethr =  1.00E-02,  avg # of iterations =  3.0

     negative rho (up, down):  6.418E-02 0.000E+00

     total cpu time spent up to now is        0.4 secs

     total energy              =     -32.98783154 Ry
     Harris-Foulkes estimate   =     -32.72334291 Ry
     estimated scf accuracy    <       4.37613029 Ry

     iteration #  4     ecut=    30.00 Ry     beta=0.70
     Davidson diagonalization with overlap
     ethr =  1.00E-02,  avg # of iterations =  1.0

     negative rho (up, down):  2.534E-02 0.000E+00

     total cpu time spent up to now is        0.4 secs

     total energy              =     -30.31002993 Ry
     Harris-Foulkes estimate   =     -32.98921609 Ry
     estimated scf accuracy    <       4.78969169 Ry

     iteration #  5     ecut=    30.00 Ry     beta=0.70
     Davidson diagonalization with overlap
     ethr =  1.00E-02,  avg # of iterations =  2.0

     negative rho (up, down):  1.499E-02 0.000E+00

     total cpu time spent up to now is        0.4 secs

     total energy              =     -32.94012376 Ry
     Harris-Foulkes estimate   =     -33.11698829 Ry
     estimated scf accuracy    <      11.83210078 Ry

     iteration #  6     ecut=    30.00 Ry     beta=0.70
     Davidson diagonalization with overlap
     ethr =  1.00E-02,  avg # of iterations =  1.0

     negative rho (up, down):  3.467E-03 0.000E+00

     total cpu time spent up to now is        0.5 secs

     total energy              =     -32.84026712 Ry
     Harris-Foulkes estimate   =     -32.97100945 Ry
     estimated scf accuracy    <       7.17912950 Ry

     iteration #  7     ecut=    30.00 Ry     beta=0.70
     Davidson diagonalization with overlap
     ethr =  1.00E-02,  avg # of iterations =  1.0

     negative rho (up, down):  1.329E-03 0.000E+00

     total cpu time spent up to now is        0.5 secs

     total energy              =     -32.25996847 Ry
     Harris-Foulkes estimate   =     -32.86022155 Ry
     estimated scf accuracy    <       5.75053606 Ry

     iteration #  8     ecut=    30.00 Ry     beta=0.70
     Davidson diagonalization with overlap
     ethr =  1.00E-02,  avg # of iterations =  1.0

     negative rho (up, down):  4.679E-03 0.000E+00

     total cpu time spent up to now is        0.5 secs

     total energy              =     -31.62289806 Ry
     Harris-Foulkes estimate   =     -32.27128549 Ry
     estimated scf accuracy    <       4.66676235 Ry

     iteration #  9     ecut=    30.00 Ry     beta=0.70
     Davidson diagonalization with overlap
     ethr =  1.00E-02,  avg # of iterations =  1.0

     negative rho (up, down):  2.115E-03 0.000E+00

     total cpu time spent up to now is        0.6 secs

     total energy              =     -31.57231318 Ry
     Harris-Foulkes estimate   =     -31.64524782 Ry
     estimated scf accuracy    <       3.26242525 Ry

     iteration # 10     ecut=    30.00 Ry     beta=0.70
     Davidson diagonalization with overlap
     ethr =  1.00E-02,  avg # of iterations =  1.0

     negative rho (up, down):  7.348E-03 0.000E+00

     total cpu time spent up to now is        0.6 secs

     total energy              =     -31.63799307 Ry
     Harris-Foulkes estimate   =     -31.57164344 Ry
     estimated scf accuracy    <       3.33757460 Ry

     iteration # 11     ecut=    30.00 Ry     beta=0.70
     Davidson diagonalization with overlap
     ethr =  1.00E-02,  avg # of iterations =  1.0

     negative rho (up, down):  1.231E-02 0.000E+00

     total cpu time spent up to now is        0.6 secs

     total energy              =     -31.62133224 Ry
     Harris-Foulkes estimate   =     -31.63750991 Ry
     estimated scf accuracy    <       3.26411777 Ry

     iteration # 12     ecut=    30.00 Ry     beta=0.70
     Davidson diagonalization with overlap
     ethr =  1.00E-02,  avg # of iterations =  1.0

     negative rho (up, down):  1.461E-02 0.000E+00

     total cpu time spent up to now is        0.7 secs

     total energy              =     -31.95031386 Ry
     Harris-Foulkes estimate   =     -31.62131344 Ry
     estimated scf accuracy    <       3.31316818 Ry

     iteration # 13     ecut=    30.00 Ry     beta=0.70
     Davidson diagonalization with overlap
     ethr =  1.00E-02,  avg # of iterations =  1.0

     negative rho (up, down):  2.662E-01 0.000E+00

     total cpu time spent up to now is        0.7 secs

     total energy              =     -29.42386593 Ry
     Harris-Foulkes estimate   =     -31.95940711 Ry
     estimated scf accuracy    <       4.05089571 Ry

     iteration # 14     ecut=    30.00 Ry     beta=0.70
     Davidson diagonalization with overlap
     ethr =  1.00E-02,  avg # of iterations =  3.0

     negative rho (up, down):  1.143E-01 0.000E+00

     total cpu time spent up to now is        0.7 secs

     total energy              =     -33.15072665 Ry
     Harris-Foulkes estimate   =     -34.39081599 Ry
     estimated scf accuracy    <       6.99250056 Ry

     iteration # 15     ecut=    30.00 Ry     beta=0.70
     Davidson diagonalization with overlap
     ethr =  1.00E-02,  avg # of iterations =  1.0

     negative rho (up, down):  6.563E-04 0.000E+00

     total cpu time spent up to now is        0.8 secs

     total energy              =     -31.60667687 Ry
     Harris-Foulkes estimate   =     -33.17478602 Ry
     estimated scf accuracy    <       5.09382208 Ry

     iteration # 16     ecut=    30.00 Ry     beta=0.70
     Davidson diagonalization with overlap
     ethr =  1.00E-02,  avg # of iterations =  1.0

     negative rho (up, down):  2.148E-03 0.000E+00

     total cpu time spent up to now is        0.8 secs

     total energy              =     -31.81323903 Ry
     Harris-Foulkes estimate   =     -31.66881019 Ry
     estimated scf accuracy    <       2.39593984 Ry

     iteration # 17     ecut=    30.00 Ry     beta=0.70
     Davidson diagonalization with overlap
     ethr =  1.00E-02,  avg # of iterations =  1.0

     negative rho (up, down):  1.873E-03 0.000E+00

     total cpu time spent up to now is        0.8 secs

     total energy              =     -31.82506465 Ry
     Harris-Foulkes estimate   =     -31.81715446 Ry
     estimated scf accuracy    <       2.73635134 Ry

     iteration # 18     ecut=    30.00 Ry     beta=0.70
     Davidson diagonalization with overlap
     ethr =  1.00E-02,  avg # of iterations =  1.0

     negative rho (up, down):  2.285E-03 0.000E+00

     total cpu time spent up to now is        0.8 secs

     total energy              =     -31.78966507 Ry
     Harris-Foulkes estimate   =     -31.82516209 Ry
     estimated scf accuracy    <       2.76555660 Ry

     iteration # 19     ecut=    30.00 Ry     beta=0.70
     Davidson diagonalization with overlap
     ethr =  1.00E-02,  avg # of iterations =  1.0

     negative rho (up, down):  2.135E-03 0.000E+00

     total cpu time spent up to now is        0.9 secs

     total energy              =     -31.65433972 Ry
     Harris-Foulkes estimate   =     -31.78974256 Ry
     estimated scf accuracy    <       2.72025527 Ry

     iteration # 20     ecut=    30.00 Ry     beta=0.70
     Davidson diagonalization with overlap
     ethr =  1.00E-02,  avg # of iterations =  1.0

     negative rho (up, down):  1.157E-03 0.000E+00

     total cpu time spent up to now is        0.9 secs

     total energy              =     -31.59263965 Ry
     Harris-Foulkes estimate   =     -31.65615296 Ry
     estimated scf accuracy    <       2.38274992 Ry

     iteration # 21     ecut=    30.00 Ry     beta=0.70
     Davidson diagonalization with overlap
     ethr =  1.00E-02,  avg # of iterations =  1.0

     negative rho (up, down):  1.794E-03 0.000E+00

     total cpu time spent up to now is        0.9 secs

     total energy              =     -31.52660893 Ry
     Harris-Foulkes estimate   =     -31.59376375 Ry
     estimated scf accuracy    <       2.11061016 Ry

     iteration # 22     ecut=    30.00 Ry     beta=0.70
     Davidson diagonalization with overlap
     ethr =  1.00E-02,  avg # of iterations =  1.0

     negative rho (up, down):  1.911E-01 0.000E+00

     total cpu time spent up to now is        1.0 secs

     total energy              =     -30.67970896 Ry
     Harris-Foulkes estimate   =     -31.53227082 Ry
     estimated scf accuracy    <       1.11837778 Ry

     iteration # 23     ecut=    30.00 Ry     beta=0.70
     Davidson diagonalization with overlap
     ethr =  1.00E-02,  avg # of iterations =  7.0

     negative rho (up, down):  3.978E-02 0.000E+00

     total cpu time spent up to now is        1.0 secs

     total energy              =     -36.07855467 Ry
     Harris-Foulkes estimate   =     -37.21439383 Ry
     estimated scf accuracy    <      20.21255575 Ry

     iteration # 24     ecut=    30.00 Ry     beta=0.70
     Davidson diagonalization with overlap
     ethr =  1.00E-02,  avg # of iterations =  1.0

     negative rho (up, down):  1.532E-02 0.000E+00

     total cpu time spent up to now is        1.1 secs

     total energy              =     -35.71589706 Ry
     Harris-Foulkes estimate   =     -36.09392482 Ry
     estimated scf accuracy    <      18.84971865 Ry

     iteration # 25     ecut=    30.00 Ry     beta=0.70
     Davidson diagonalization with overlap
     ethr =  1.00E-02,  avg # of iterations =  1.0

     negative rho (up, down):  3.697E-03 0.000E+00

     total cpu time spent up to now is        1.1 secs

     total energy              =     -30.92425675 Ry
     Harris-Foulkes estimate   =     -35.72485804 Ry
     estimated scf accuracy    <      18.04715043 Ry

     iteration # 26     ecut=    30.00 Ry     beta=0.70
     Davidson diagonalization with overlap
     ethr =  1.00E-02,  avg # of iterations =  2.0

     negative rho (up, down):  7.159E-03 0.000E+00

     total cpu time spent up to now is        1.1 secs

     total energy              =     -30.58859666 Ry
     Harris-Foulkes estimate   =     -31.00604388 Ry
     estimated scf accuracy    <      10.81332515 Ry

     iteration # 27     ecut=    30.00 Ry     beta=0.70
     Davidson diagonalization with overlap
     ethr =  1.00E-02,  avg # of iterations =  1.0

     negative rho (up, down):  2.853E-02 0.000E+00

     total cpu time spent up to now is        1.2 secs

     total energy              =     -29.77383931 Ry
     Harris-Foulkes estimate   =     -30.60504406 Ry
     estimated scf accuracy    <       9.81101507 Ry

     iteration # 28     ecut=    30.00 Ry     beta=0.70
     Davidson diagonalization with overlap
     ethr =  1.00E-02,  avg # of iterations =  6.0

     negative rho (up, down):  2.192E-02 0.000E+00

     total cpu time spent up to now is        1.2 secs

     total energy              =     -31.49117302 Ry
     Harris-Foulkes estimate   =     -31.45716726 Ry
     estimated scf accuracy    <       0.21411589 Ry

     iteration # 29     ecut=    30.00 Ry     beta=0.70
     Davidson diagonalization with overlap
     ethr =  2.68E-03,  avg # of iterations =  1.0

     negative rho (up, down):  1.209E-03 0.000E+00

     total cpu time spent up to now is        1.2 secs

     total energy              =     -31.52000407 Ry
     Harris-Foulkes estimate   =     -31.73456485 Ry
     estimated scf accuracy    <       3.72516689 Ry

     iteration # 30     ecut=    30.00 Ry     beta=0.70
     Davidson diagonalization with overlap
     ethr =  2.68E-03,  avg # of iterations =  1.0

     negative rho (up, down):  5.224E-02 0.000E+00

     total cpu time spent up to now is        1.3 secs

     total energy              =     -31.65289409 Ry
     Harris-Foulkes estimate   =     -31.52702257 Ry
     estimated scf accuracy    <       2.88825448 Ry

     iteration # 31     ecut=    30.00 Ry     beta=0.70
     Davidson diagonalization with overlap
     ethr =  2.68E-03,  avg # of iterations =  1.0

     negative rho (up, down):  1.431E-01 0.000E+00

     total cpu time spent up to now is        1.3 secs

     total energy              =     -30.22463385 Ry
     Harris-Foulkes estimate   =     -31.66256594 Ry
     estimated scf accuracy    <       3.46349852 Ry

     iteration # 32     ecut=    30.00 Ry     beta=0.70
     Davidson diagonalization with overlap
     ethr =  2.68E-03,  avg # of iterations =  6.0

     negative rho (up, down):  5.581E-03 0.000E+00

     total cpu time spent up to now is        1.3 secs

     total energy              =     -32.48337920 Ry
     Harris-Foulkes estimate   =     -33.57932189 Ry
     estimated scf accuracy    <       6.32001881 Ry

     iteration # 33     ecut=    30.00 Ry     beta=0.70
     Davidson diagonalization with overlap
     ethr =  2.68E-03,  avg # of iterations =  2.0

     total cpu time spent up to now is        1.4 secs

     total energy              =     -31.91619510 Ry
     Harris-Foulkes estimate   =     -32.53625206 Ry
     estimated scf accuracy    <       4.29775635 Ry

     iteration # 34     ecut=    30.00 Ry     beta=0.70
     Davidson diagonalization with overlap
     ethr =  2.68E-03,  avg # of iterations =  2.0

     total cpu time spent up to now is        1.4 secs

     total energy              =     -31.54645912 Ry
     Harris-Foulkes estimate   =     -31.93172550 Ry
     estimated scf accuracy    <       3.09306573 Ry

     iteration # 35     ecut=    30.00 Ry     beta=0.70
     Davidson diagonalization with overlap
     ethr =  2.68E-03,  avg # of iterations =  1.0

     total cpu time spent up to now is        1.4 secs

     total energy              =     -31.55121755 Ry
     Harris-Foulkes estimate   =     -31.56295029 Ry
     estimated scf accuracy    <       1.92132177 Ry

     iteration # 36     ecut=    30.00 Ry     beta=0.70
     Davidson diagonalization with overlap
     ethr =  2.68E-03,  avg # of iterations =  1.0

     negative rho (up, down):  2.797E-03 0.000E+00

     total cpu time spent up to now is        1.5 secs

     total energy              =     -31.37219762 Ry
     Harris-Foulkes estimate   =     -31.55211349 Ry
     estimated scf accuracy    <       1.71599840 Ry

     iteration # 37     ecut=    30.00 Ry     beta=0.70
     Davidson diagonalization with overlap
     ethr =  2.68E-03,  avg # of iterations =  1.0

     negative rho (up, down):  2.308E-03 0.000E+00

     total cpu time spent up to now is        1.5 secs

     total energy              =     -31.53201157 Ry
     Harris-Foulkes estimate   =     -31.63813026 Ry
     estimated scf accuracy    <       3.22038350 Ry

     iteration # 38     ecut=    30.00 Ry     beta=0.70
     Davidson diagonalization with overlap
     ethr =  2.68E-03,  avg # of iterations =  1.0

     negative rho (up, down):  2.083E-03 0.000E+00

     total cpu time spent up to now is        1.6 secs

     total energy              =     -31.53124504 Ry
     Harris-Foulkes estimate   =     -31.53548763 Ry
     estimated scf accuracy    <       1.82858113 Ry

     iteration # 39     ecut=    30.00 Ry     beta=0.70
     Davidson diagonalization with overlap
     ethr =  2.68E-03,  avg # of iterations =  1.0

     negative rho (up, down):  3.248E-04 0.000E+00

     total cpu time spent up to now is        1.6 secs

     total energy              =     -31.64328554 Ry
     Harris-Foulkes estimate   =     -31.53142414 Ry
     estimated scf accuracy    <       1.56367284 Ry

     iteration # 40     ecut=    30.00 Ry     beta=0.70
     Davidson diagonalization with overlap
     ethr =  2.68E-03,  avg # of iterations =  1.0

     negative rho (up, down):  1.663E-03 0.000E+00

     total cpu time spent up to now is        1.6 secs

     total energy              =     -31.64189921 Ry
     Harris-Foulkes estimate   =     -31.68901422 Ry
     estimated scf accuracy    <       3.41119049 Ry

     iteration # 41     ecut=    30.00 Ry     beta=0.70
     Davidson diagonalization with overlap
     ethr =  2.68E-03,  avg # of iterations =  1.0

     negative rho (up, down):  1.082E-03 0.000E+00

     total cpu time spent up to now is        1.7 secs

     total energy              =     -31.64886386 Ry
     Harris-Foulkes estimate   =     -31.64294738 Ry
     estimated scf accuracy    <       3.29493488 Ry

     iteration # 42     ecut=    30.00 Ry     beta=0.70
     Davidson diagonalization with overlap
     ethr =  2.68E-03,  avg # of iterations =  1.0

     negative rho (up, down):  1.575E-03 0.000E+00

     total cpu time spent up to now is        1.7 secs

     total energy              =     -31.60263966 Ry
     Harris-Foulkes estimate   =     -31.64922821 Ry
     estimated scf accuracy    <       3.30605837 Ry

     iteration # 43     ecut=    30.00 Ry     beta=0.70
     Davidson diagonalization with overlap
     ethr =  2.68E-03,  avg # of iterations =  1.0

     negative rho (up, down):  2.726E-03 0.000E+00

     total cpu time spent up to now is        1.7 secs

     total energy              =     -31.60996149 Ry
     Harris-Foulkes estimate   =     -31.60241022 Ry
     estimated scf accuracy    <       3.39400414 Ry

     iteration # 44     ecut=    30.00 Ry     beta=0.70
     Davidson diagonalization with overlap
     ethr =  2.68E-03,  avg # of iterations =  1.0

     total cpu time spent up to now is        1.8 secs

     total energy              =     -31.70319981 Ry
     Harris-Foulkes estimate   =     -31.60983138 Ry
     estimated scf accuracy    <       3.21692620 Ry

     iteration # 45     ecut=    30.00 Ry     beta=0.70
     Davidson diagonalization with overlap
     ethr =  2.68E-03,  avg # of iterations =  1.0

     negative rho (up, down):  1.552E-03 0.000E+00

     total cpu time spent up to now is        1.8 secs

     total energy              =     -31.89286456 Ry
     Harris-Foulkes estimate   =     -31.70316997 Ry
     estimated scf accuracy    <       3.41931125 Ry

     iteration # 46     ecut=    30.00 Ry     beta=0.70
     Davidson diagonalization with overlap
     ethr =  2.68E-03,  avg # of iterations =  1.0

     negative rho (up, down):  1.111E-03 0.000E+00

     total cpu time spent up to now is        1.8 secs

     total energy              =     -31.51315104 Ry
     Harris-Foulkes estimate   =     -31.89640884 Ry
     estimated scf accuracy    <       3.88443487 Ry

     iteration # 47     ecut=    30.00 Ry     beta=0.70
     Davidson diagonalization with overlap
     ethr =  2.68E-03,  avg # of iterations =  1.0

     negative rho (up, down):  1.714E-04 0.000E+00

     total cpu time spent up to now is        1.9 secs

     total energy              =     -31.54800703 Ry
     Harris-Foulkes estimate   =     -31.52947702 Ry
     estimated scf accuracy    <       1.16286856 Ry

     iteration # 48     ecut=    30.00 Ry     beta=0.70
     Davidson diagonalization with overlap
     ethr =  2.68E-03,  avg # of iterations =  1.0

     negative rho (up, down):  1.608E-04 0.000E+00

     total cpu time spent up to now is        1.9 secs

     total energy              =     -30.37313347 Ry
     Harris-Foulkes estimate   =     -31.56344832 Ry
     estimated scf accuracy    <       3.20474484 Ry

     iteration # 49     ecut=    30.00 Ry     beta=0.70
     Davidson diagonalization with overlap
     ethr =  2.68E-03,  avg # of iterations =  2.0

     negative rho (up, down):  1.091E-03 0.000E+00

     total cpu time spent up to now is        1.9 secs

     total energy              =     -32.37405453 Ry
     Harris-Foulkes estimate   =     -32.77907544 Ry
     estimated scf accuracy    <       4.62946540 Ry

     iteration # 50     ecut=    30.00 Ry     beta=0.70
     Davidson diagonalization with overlap
     ethr =  2.68E-03,  avg # of iterations =  1.0

     negative rho (up, down):  1.108E-03 0.000E+00

     total cpu time spent up to now is        2.0 secs

     total energy              =     -31.86885804 Ry
     Harris-Foulkes estimate   =     -32.37112306 Ry
     estimated scf accuracy    <       3.86651505 Ry

     iteration # 51     ecut=    30.00 Ry     beta=0.70
     Davidson diagonalization with overlap
     ethr =  2.68E-03,  avg # of iterations =  1.0

     negative rho (up, down):  1.001E-03 0.000E+00

     total cpu time spent up to now is        2.0 secs

     total energy              =     -31.57713033 Ry
     Harris-Foulkes estimate   =     -31.88104647 Ry
     estimated scf accuracy    <       2.94086958 Ry

     iteration # 52     ecut=    30.00 Ry     beta=0.70
     Davidson diagonalization with overlap
     ethr =  2.68E-03,  avg # of iterations =  1.0

     negative rho (up, down):  6.203E-04 0.000E+00

     total cpu time spent up to now is        2.0 secs

     total energy              =     -31.59142432 Ry
     Harris-Foulkes estimate   =     -31.58788787 Ry
     estimated scf accuracy    <       2.00772741 Ry

     iteration # 53     ecut=    30.00 Ry     beta=0.70
     Davidson diagonalization with overlap
     ethr =  2.68E-03,  avg # of iterations =  1.0

     total cpu time spent up to now is        2.1 secs

     total energy              =     -31.55307165 Ry
     Harris-Foulkes estimate   =     -31.59154112 Ry
     estimated scf accuracy    <       2.04048570 Ry

     iteration # 54     ecut=    30.00 Ry     beta=0.70
     Davidson diagonalization with overlap
     ethr =  2.68E-03,  avg # of iterations =  1.0

     negative rho (up, down):  8.149E-05 0.000E+00

     total cpu time spent up to now is        2.1 secs

     total energy              =     -31.48495115 Ry
     Harris-Foulkes estimate   =     -31.55499570 Ry
     estimated scf accuracy    <       1.55719123 Ry

     iteration # 55     ecut=    30.00 Ry     beta=0.70
     Davidson diagonalization with overlap
     ethr =  2.68E-03,  avg # of iterations =  1.0

     negative rho (up, down):  8.752E-06 0.000E+00

     total cpu time spent up to now is        2.1 secs

     total energy              =     -31.51259777 Ry
     Harris-Foulkes estimate   =     -31.51366378 Ry
     estimated scf accuracy    <       0.08391924 Ry

     iteration # 56     ecut=    30.00 Ry     beta=0.70
     Davidson diagonalization with overlap
     ethr =  1.05E-03,  avg # of iterations =  1.0

     total cpu time spent up to now is        2.2 secs

     total energy              =     -31.50154072 Ry
     Harris-Foulkes estimate   =     -31.51296849 Ry
     estimated scf accuracy    <       0.07429584 Ry

     iteration # 57     ecut=    30.00 Ry     beta=0.70
     Davidson diagonalization with overlap
     ethr =  9.29E-04,  avg # of iterations =  1.0

     total cpu time spent up to now is        2.2 secs

     total energy              =     -31.56280940 Ry
     Harris-Foulkes estimate   =     -31.54610561 Ry
     estimated scf accuracy    <       1.51157163 Ry

     iteration # 58     ecut=    30.00 Ry     beta=0.70
     Davidson diagonalization with overlap
     ethr =  9.29E-04,  avg # of iterations =  1.0

     negative rho (up, down):  1.598E-07 0.000E+00

     total cpu time spent up to now is        2.2 secs

     total energy              =     -31.52558803 Ry
     Harris-Foulkes estimate   =     -31.56400555 Ry
     estimated scf accuracy    <       1.87640231 Ry

     iteration # 59     ecut=    30.00 Ry     beta=0.70
     Davidson diagonalization with overlap
     ethr =  9.29E-04,  avg # of iterations =  1.0

     total cpu time spent up to now is        2.3 secs

     total energy              =     -31.46793301 Ry
     Harris-Foulkes estimate   =     -31.52899767 Ry
     estimated scf accuracy    <       1.04589883 Ry

     iteration # 60     ecut=    30.00 Ry     beta=0.70
     Davidson diagonalization with overlap
     ethr =  9.29E-04,  avg # of iterations =  1.0

     total cpu time spent up to now is        2.3 secs

     total energy              =     -31.48653833 Ry
     Harris-Foulkes estimate   =     -31.53353267 Ry
     estimated scf accuracy    <       1.68023148 Ry

     iteration # 61     ecut=    30.00 Ry     beta=0.70
     Davidson diagonalization with overlap
     ethr =  9.29E-04,  avg # of iterations =  1.0

     total cpu time spent up to now is        2.3 secs

     total energy              =     -31.51214103 Ry
     Harris-Foulkes estimate   =     -31.51241826 Ry
     estimated scf accuracy    <       0.04155470 Ry

     iteration # 62     ecut=    30.00 Ry     beta=0.70
     Davidson diagonalization with overlap
     ethr =  5.19E-04,  avg # of iterations =  1.0

     total cpu time spent up to now is        2.4 secs

     total energy              =     -31.51165512 Ry
     Harris-Foulkes estimate   =     -31.51218238 Ry
     estimated scf accuracy    <       0.02255190 Ry

     iteration # 63     ecut=    30.00 Ry     beta=0.70
     Davidson diagonalization with overlap
     ethr =  2.82E-04,  avg # of iterations =  1.0

     total cpu time spent up to now is        2.4 secs

     total energy              =     -31.51191219 Ry
     Harris-Foulkes estimate   =     -31.51191314 Ry
     estimated scf accuracy    <       0.00000866 Ry

     iteration # 64     ecut=    30.00 Ry     beta=0.70
     Davidson diagonalization with overlap
     ethr =  1.08E-07,  avg # of iterations = 14.0

     total cpu time spent up to now is        2.5 secs

     total energy              =     -31.51191056 Ry
     Harris-Foulkes estimate   =     -31.51191519 Ry
     estimated scf accuracy    <       0.00031714 Ry

     iteration # 65     ecut=    30.00 Ry     beta=0.70
     Davidson diagonalization with overlap
     ethr =  1.08E-07,  avg # of iterations =  1.0

     total cpu time spent up to now is        2.5 secs

     total energy              =     -31.51190820 Ry
     Harris-Foulkes estimate   =     -31.51191164 Ry
     estimated scf accuracy    <       0.00006682 Ry

     iteration # 66     ecut=    30.00 Ry     beta=0.70
     Davidson diagonalization with overlap
     ethr =  1.08E-07,  avg # of iterations =  1.0

     total cpu time spent up to now is        2.5 secs

     total energy              =     -31.51190862 Ry
     Harris-Foulkes estimate   =     -31.51191280 Ry
     estimated scf accuracy    <       0.00014185 Ry

     iteration # 67     ecut=    30.00 Ry     beta=0.70
     Davidson diagonalization with overlap
     ethr =  1.08E-07,  avg # of iterations =  1.0

     total cpu time spent up to now is        2.6 secs

     total energy              =     -31.51191094 Ry
     Harris-Foulkes estimate   =     -31.51191120 Ry
     estimated scf accuracy    <       0.00000929 Ry

     iteration # 68     ecut=    30.00 Ry     beta=0.70
     Davidson diagonalization with overlap
     ethr =  1.08E-07,  avg # of iterations =  1.0

     total cpu time spent up to now is        2.6 secs

     total energy              =     -31.51191098 Ry
     Harris-Foulkes estimate   =     -31.51191105 Ry
     estimated scf accuracy    <       0.00000001 Ry

     iteration # 69     ecut=    30.00 Ry     beta=0.70
     Davidson diagonalization with overlap
     ethr =  1.55E-10,  avg # of iterations =  1.0

     total cpu time spent up to now is        2.6 secs

     total energy              =     -31.51191087 Ry
     Harris-Foulkes estimate   =     -31.51191098 Ry
     estimated scf accuracy    <       0.00000002 Ry

     iteration # 70     ecut=    30.00 Ry     beta=0.70
     Davidson diagonalization with overlap
     ethr =  1.55E-10,  avg # of iterations =  1.0

     total cpu time spent up to now is        2.6 secs

     End of self-consistent calculation

          k = 0.0000 0.0000 0.0000 ( 22119 PWs)   bands (ev):

   -23.6337  -7.2450  -7.0959  -7.0382  -6.8671  -6.7241  -0.1489   0.7004

     the Fermi energy is    -6.9022 ev

!    total energy              =     -31.51191085 Ry
     Harris-Foulkes estimate   =     -31.51191087 Ry
     estimated scf accuracy    <          4.9E-10 Ry

     convergence has been achieved in  70 iterations

     Forces acting on atoms (Ry/au):

     atom    1 type  1   force =    -0.02054740    0.00268172    0.00676390
     atom    2 type  1   force =    -0.00003517   -0.00378985    0.00357223
     atom    3 type  2   force =     0.02058256    0.00110813   -0.01033612

     Total force =     0.032155     Total SCF correction =     0.000040

     Molecular Dynamics Calculation

     Starting temperature  =  1000.00 K

     temperature is controlled by Andersen thermostat
     Collision frequency = 1.0000/timestep
     mass H                =     1.01
     mass O                =    16.00
     Time step             =   100.00 a.u.,  4.8378 femto-seconds

     Entering Dynamics:    iteration =     1
                           time      =   0.0048 pico-seconds


     Andersen thermostat:    3 collisions

ATOMIC_POSITIONS (bohr)
H       16.810648877  15.482187347  16.594293249
H       11.346425195   1.130552688  13.087526256
O       10.746365785  16.277303502  18.351817856


     kinetic energy (Ekin) =     0.00898399 Ry
     temperature           =   472.81927793 K 
     Ekin + Etot (const)   =   -31.50292686 Ry

     Linear momentum :    0.0000000000    0.0000000000   -0.0000000000

     Writing output data file pwscf.save
     Check: negative starting charge=   -0.337528
     NEW-OLD atomic charge density approx. for the potential
     Check: negative starting charge=   -0.337124

     negative rho (up, down):  3.227E-02 0.000E+00

     total cpu time spent up to now is        2.9 secs

     per-process dynamical memory:    20.4 Mb

     Self-consistent Calculation

     iteration #  1     ecut=    30.00 Ry     beta=0.70
     Davidson diagonalization with overlap
     c_bands:  1 eigenvalues not converged
     ethr =  1.00E-06,  avg # of iterations = 20.0

     negative rho (up, down):  7.438E-03 0.000E+00

     total cpu time spent up to now is        3.0 secs

     total energy              =     -31.49923585 Ry
     Harris-Foulkes estimate   =     -31.47587874 Ry
     estimated scf accuracy    <       0.00230157 Ry

     iteration #  2     ecut=    30.00 Ry     beta=0.70
     Davidson diagonalization with overlap
     ethr =  2.88E-05,  avg # of iterations =  5.0

     negative rho (up, down):  7.294E-03 0.000E+00

     total cpu time spent up to now is        3.0 secs

     total energy              =     -31.46425525 Ry
     Harris-Foulkes estimate   =     -31.55466574 Ry
     estimated scf accuracy    <       3.42999354 Ry

     iteration #  3     ecut=    30.00 Ry     beta=0.70
     Davidson diagonalization with overlap
     ethr =  2.88E-05,  avg # of iterations =  2.0

     negative rho (up, down):  3.013E-03 0.000E+00

     total cpu time spent up to now is        3.1 secs

     total energy              =     -31.50540534 Ry
     Harris-Foulkes estimate   =     -31.50101898 Ry
     estimated scf accuracy    <       0.00363987 Ry

     iteration #  4     ecut=    30.00 Ry     beta=0.70
     Davidson diagonalization with overlap
     ethr =  2.88E-05,  avg # of iterations =  5.0

     negative rho (up, down):  2.035E-03 0.000E+00

     total cpu time spent up to now is        3.1 secs

     total energy              =     -31.50573842 Ry
     Harris-Foulkes estimate   =     -31.50637033 Ry
     estimated scf accuracy    <       0.03634976 Ry

     iteration #  5     ecut=    30.00 Ry     beta=0.70
     Davidson diagonalization with overlap
     ethr =  2.88E-05,  avg # of iterations =  9.0

     negative rho (up, down):  3.361E-04 0.000E+00

     total cpu time spent up to now is        3.2 secs

     total energy              =     -31.50747309 Ry
     Harris-Foulkes estimate   =     -31.50656123 Ry
     estimated scf accuracy    <       0.00019870 Ry

     iteration #  6     ecut=    30.00 Ry     beta=0.70
     Davidson diagonalization with overlap
     ethr =  2.48E-06,  avg # of iterations = 13.0

     negative rho (up, down):  1.958E-06 0.000E+00

     total cpu time spent up to now is        3.2 secs

     total energy              =     -31.50749455 Ry
     Harris-Foulkes estimate   =     -31.50749231 Ry
     estimated scf accuracy    <       0.00006952 Ry

     iteration #  7     ecut=    30.00 Ry     beta=0.70
     Davidson diagonalization with overlap
     ethr =  8.69E-07,  avg # of iterations =  3.0

     negative rho (up, down):  3.568E-08 0.000E+00

     total cpu time spent up to now is        3.2 secs

     total energy              =     -31.50749623 Ry
     Harris-Foulkes estimate   =     -31.50749693 Ry
     estimated scf accuracy    <       0.00000465 Ry

     iteration #  8     ecut=    30.00 Ry     beta=0.70
     Davidson diagonalization with overlap
     ethr =  5.81E-08,  avg # of iterations =  1.0

     total cpu time spent up to now is        3.3 secs

     total energy              =     -31.50749564 Ry
     Harris-Foulkes estimate   =     -31.50749644 Ry
     estimated scf accuracy    <       0.00000124 Ry

     iteration #  9     ecut=    30.00 Ry     beta=0.70
     Davidson diagonalization with overlap
     ethr =  1.55E-08,  avg # of iterations =  1.0

     total cpu time spent up to now is        3.3 secs

     total energy              =     -31.50749541 Ry
     Harris-Foulkes estimate   =     -31.50749569 Ry
     estimated scf accuracy    <       0.00000005 Ry

     iteration # 10     ecut=    30.00 Ry     beta=0.70
     Davidson diagonalization with overlap
     ethr =  6.02E-10,  avg # of iterations =  2.0

     total cpu time spent up to now is        3.3 secs

     total energy              =     -31.50749524 Ry
     Harris-Foulkes estimate   =     -31.50749542 Ry
     estimated scf accuracy    <       0.00000001 Ry

     iteration # 11     ecut=    30.00 Ry     beta=0.70
     Davidson diagonalization with overlap
     ethr =  1.80E-10,  avg # of iterations =  2.0

     total cpu time spent up to now is        3.4 secs

     End of self-consistent calculation

          k = 0.0000 0.0000 0.0000 ( 22119 PWs)   bands (ev):

   -23.6243  -7.1998  -7.0935  -7.0324  -6.8584  -6.7577  -0.1528   0.7077

     the Fermi energy is    -6.8969 ev

!    total energy              =     -31.50749515 Ry
     Harris-Foulkes estimate   =     -31.50749524 Ry
     estimated scf accuracy    <          5.8E-09 Ry

     convergence has been achieved in  11 iterations

     Forces acting on atoms (Ry/au):

     atom    1 type  1   force =    -0.01435822    0.00228907    0.00407993
     atom    2 type  1   force =    -0.00003553   -0.00398324    0.00390537
     atom    3 type  2   force =     0.01439374    0.00169417   -0.00798530

     Total force =     0.023086     Total SCF correction =     0.000173

     Entering Dynamics:    iteration =     2
                           time      =   0.0097 pico-seconds


     Andersen thermostat:    3 collisions

ATOMIC_POSITIONS (bohr)
H       16.592007350  15.452269246  16.913645869
H       11.321199232   0.820075521  13.253711180
O       10.761759921  16.298790953  18.321168299


     kinetic energy (Ekin) =     0.01215970 Ry
     temperature           =   639.95404849 K 
     Ekin + Etot (const)   =   -31.49533545 Ry
     Message from routine dynamics:
     Total linear momentum <> 0

     Linear momentum :    0.1889316026    0.1492440211   -0.2205722232

     Writing output data file pwscf.save

     first order wave-functions extrapolation
     Check: negative starting charge=   -0.337124
     first order charge density extrapolation
     Check: negative starting charge=   -0.336305

     negative rho (up, down):  7.846E-02 0.000E+00

     total cpu time spent up to now is        3.7 secs

     per-process dynamical memory:    20.4 Mb

     Self-consistent Calculation

     iteration #  1     ecut=    30.00 Ry     beta=0.70
     Davidson diagonalization with overlap
     c_bands:  1 eigenvalues not converged
     ethr =  1.00E-06,  avg # of iterations = 20.0

     negative rho (up, down):  1.914E-02 0.000E+00

     total cpu time spent up to now is        3.8 secs

     total energy              =     -31.46146867 Ry
     Harris-Foulkes estimate   =     -31.45615455 Ry
     estimated scf accuracy    <       0.04857049 Ry

     iteration #  2     ecut=    30.00 Ry     beta=0.70
     Davidson diagonalization with overlap
     ethr =  6.07E-04,  avg # of iterations =  2.0

     negative rho (up, down):  1.754E-02 0.000E+00

     total cpu time spent up to now is        3.8 secs

     total energy              =     -31.46636722 Ry
     Harris-Foulkes estimate   =     -31.91205090 Ry
     estimated scf accuracy    <       3.94367445 Ry

     iteration #  3     ecut=    30.00 Ry     beta=0.70
     Davidson diagonalization with overlap
     ethr =  6.07E-04,  avg # of iterations =  2.0

     negative rho (up, down):  1.696E-02 0.000E+00

     total cpu time spent up to now is        3.8 secs

     total energy              =     -31.49206078 Ry
     Harris-Foulkes estimate   =     -31.53509740 Ry
     estimated scf accuracy    <       0.98978422 Ry

     iteration #  4     ecut=    30.00 Ry     beta=0.70
     Davidson diagonalization with overlap
     ethr =  6.07E-04,  avg # of iterations =  1.0

     negative rho (up, down):  7.350E-03 0.000E+00

     total cpu time spent up to now is        3.9 secs

     total energy              =     -31.47904995 Ry
     Harris-Foulkes estimate   =     -31.50371723 Ry
     estimated scf accuracy    <       0.30618604 Ry

     iteration #  5     ecut=    30.00 Ry     beta=0.70
     Davidson diagonalization with overlap
     ethr =  6.07E-04,  avg # of iterations =  1.0

     negative rho (up, down):  3.834E-03 0.000E+00

     total cpu time spent up to now is        3.9 secs

     total energy              =     -31.49892466 Ry
     Harris-Foulkes estimate   =     -31.54668806 Ry
     estimated scf accuracy    <       1.45952519 Ry

     iteration #  6     ecut=    30.00 Ry     beta=0.70
     Davidson diagonalization with overlap
     ethr =  6.07E-04,  avg # of iterations =  1.0

     negative rho (up, down):  1.271E-03 0.000E+00

     total cpu time spent up to now is        3.9 secs

     total energy              =     -31.51600357 Ry
     Harris-Foulkes estimate   =     -31.51466385 Ry
     estimated scf accuracy    <       0.06685426 Ry

     iteration #  7     ecut=    30.00 Ry     beta=0.70
     Davidson diagonalization with overlap
     ethr =  6.07E-04,  avg # of iterations =  1.0

     negative rho (up, down):  2.357E-04 0.000E+00

     total cpu time spent up to now is        4.0 secs

     total energy              =     -31.51568932 Ry
     Harris-Foulkes estimate   =     -31.51636232 Ry
     estimated scf accuracy    <       0.02085232 Ry

     iteration #  8     ecut=    30.00 Ry     beta=0.70
     Davidson diagonalization with overlap
     ethr =  2.61E-04,  avg # of iterations =  3.0

     negative rho (up, down):  2.378E-05 0.000E+00

     total cpu time spent up to now is        4.0 secs

     total energy              =     -31.51624355 Ry
     Harris-Foulkes estimate   =     -31.51651658 Ry
     estimated scf accuracy    <       0.01138375 Ry

     iteration #  9     ecut=    30.00 Ry     beta=0.70
     Davidson diagonalization with overlap
     ethr =  1.42E-04,  avg # of iterations =  3.0

     negative rho (up, down):  1.504E-06 0.000E+00

     total cpu time spent up to now is        4.0 secs

     total energy              =     -31.51638230 Ry
     Harris-Foulkes estimate   =     -31.51638331 Ry
     estimated scf accuracy    <       0.00031453 Ry

     iteration # 10     ecut=    30.00 Ry     beta=0.70
     Davidson diagonalization with overlap
     ethr =  3.93E-06,  avg # of iterations = 18.0

     total cpu time spent up to now is        4.1 secs

     total energy              =     -31.51638280 Ry
     Harris-Foulkes estimate   =     -31.51639867 Ry
     estimated scf accuracy    <       0.00075439 Ry

     iteration # 11     ecut=    30.00 Ry     beta=0.70
     Davidson diagonalization with overlap
     ethr =  3.93E-06,  avg # of iterations =  1.0

     total cpu time spent up to now is        4.1 secs

     total energy              =     -31.51639298 Ry
     Harris-Foulkes estimate   =     -31.51639173 Ry
     estimated scf accuracy    <       0.00002501 Ry

     iteration # 12     ecut=    30.00 Ry     beta=0.70
     Davidson diagonalization with overlap
     ethr =  3.13E-07,  avg # of iterations =  1.0

     total cpu time spent up to now is        4.2 secs

     total energy              =     -31.51639120 Ry
     Harris-Foulkes estimate   =     -31.51639322 Ry
     estimated scf accuracy    <       0.00007903 Ry

     iteration # 13     ecut=    30.00 Ry     beta=0.70
     Davidson diagonalization with overlap
     ethr =  3.13E-07,  avg # of iterations =  1.0

     total cpu time spent up to now is        4.2 secs

     total energy              =     -31.51639139 Ry
     Harris-Foulkes estimate   =     -31.51639179 Ry
     estimated scf accuracy    <       0.00000534 Ry

     iteration # 14     ecut=    30.00 Ry     beta=0.70
     Davidson diagonalization with overlap
     ethr =  6.67E-08,  avg # of iterations =  1.0

     total cpu time spent up to now is        4.2 secs

     total energy              =     -31.51639146 Ry
     Harris-Foulkes estimate   =     -31.51639141 Ry
     estimated scf accuracy    <       0.00000155 Ry

     iteration # 15     ecut=    30.00 Ry     beta=0.70
     Davidson diagonalization with overlap
     ethr =  1.94E-08,  avg # of iterations =  1.0

     total cpu time spent up to now is        4.2 secs

     End of self-consistent calculation

          k = 0.0000 0.0000 0.0000 ( 22119 PWs)   bands (ev):

   -23.6367  -7.2551  -7.1354  -7.0388  -6.8258  -6.7145  -0.1423   0.7258

     the Fermi energy is    -6.9023 ev

!    total energy              =     -31.51639137 Ry
     Harris-Foulkes estimate   =     -31.51639148 Ry
     estimated scf accuracy    <          1.2E-09 Ry

     convergence has been achieved in  15 iterations

     Forces acting on atoms (Ry/au):

     atom    1 type  1   force =    -0.02295671    0.00403719    0.00551221
     atom    2 type  1   force =    -0.00042185   -0.00698914    0.00814808
     atom    3 type  2   force =     0.02337856    0.00295195   -0.01366029

     Total force =     0.037828     Total SCF correction =     0.000280

     Entering Dynamics:    iteration =     3
                           time      =   0.0145 pico-seconds


     Andersen thermostat:    3 collisions

ATOMIC_POSITIONS (bohr)
H       16.278004943  15.665712392  16.954979516
H       11.154101966   1.113813720  13.647985734
O       10.792129338  16.266775130  18.293670531


     kinetic energy (Ekin) =     0.01997560 Ry
     temperature           =  1051.29816125 K 
     Ekin + Etot (const)   =   -31.49641577 Ry
     Message from routine dynamics:
     Total linear momentum <> 0

     Linear momentum :    0.0348626537    0.1352665262    0.4881365542

     Writing output data file pwscf.save

     second order wave-functions extrapolation
     Check: negative starting charge=   -0.336305
     second order charge density extrapolation
     Check: negative starting charge=   -0.336434

     negative rho (up, down):  9.660E-02 0.000E+00

     total cpu time spent up to now is        4.6 secs

     per-process dynamical memory:    20.4 Mb

     Self-consistent Calculation

     iteration #  1     ecut=    30.00 Ry     beta=0.70
     Davidson diagonalization with overlap
     c_bands:  1 eigenvalues not converged
     ethr =  1.00E-06,  avg # of iterations = 20.0

     negative rho (up, down):  2.407E-02 0.000E+00

     total cpu time spent up to now is        4.7 secs

     total energy              =     -31.45594868 Ry
     Harris-Foulkes estimate   =     -31.45894858 Ry
     estimated scf accuracy    <       0.06755411 Ry

     iteration #  2     ecut=    30.00 Ry     beta=0.70
     Davidson diagonalization with overlap
     ethr =  8.44E-04,  avg # of iterations =  2.0

     negative rho (up, down):  2.176E-02 0.000E+00

     total cpu time spent up to now is        4.7 secs

     total energy              =     -31.48168293 Ry
     Harris-Foulkes estimate   =     -32.02023297 Ry
     estimated scf accuracy    <       4.13998991 Ry

     iteration #  3     ecut=    30.00 Ry     beta=0.70
     Davidson diagonalization with overlap
     ethr =  8.44E-04,  avg # of iterations =  2.0

     negative rho (up, down):  1.700E-02 0.000E+00

     total cpu time spent up to now is        4.8 secs

     total energy              =     -31.47420520 Ry
     Harris-Foulkes estimate   =     -31.52100483 Ry
     estimated scf accuracy    <       0.79897434 Ry

     iteration #  4     ecut=    30.00 Ry     beta=0.70
     Davidson diagonalization with overlap
     ethr =  8.44E-04,  avg # of iterations =  1.0

     negative rho (up, down):  1.309E-02 0.000E+00

     total cpu time spent up to now is        4.8 secs

     total energy              =     -31.48655708 Ry
     Harris-Foulkes estimate   =     -31.53058700 Ry
     estimated scf accuracy    <       0.90679396 Ry

     iteration #  5     ecut=    30.00 Ry     beta=0.70
     Davidson diagonalization with overlap
     ethr =  8.44E-04,  avg # of iterations =  1.0

     negative rho (up, down):  4.321E-03 0.000E+00

     total cpu time spent up to now is        4.8 secs

     total energy              =     -31.50276663 Ry
     Harris-Foulkes estimate   =     -31.52861141 Ry
     estimated scf accuracy    <       0.71385617 Ry

     iteration #  6     ecut=    30.00 Ry     beta=0.70
     Davidson diagonalization with overlap
     ethr =  8.44E-04,  avg # of iterations =  1.0

     negative rho (up, down):  1.109E-03 0.000E+00

     total cpu time spent up to now is        4.9 secs

     total energy              =     -31.52513454 Ry
     Harris-Foulkes estimate   =     -31.53229726 Ry
     estimated scf accuracy    <       0.37746510 Ry

     iteration #  7     ecut=    30.00 Ry     beta=0.70
     Davidson diagonalization with overlap
     ethr =  8.44E-04,  avg # of iterations =  1.0

     negative rho (up, down):  3.986E-04 0.000E+00

     total cpu time spent up to now is        4.9 secs

     total energy              =     -31.52962054 Ry
     Harris-Foulkes estimate   =     -31.52953987 Ry
     estimated scf accuracy    <       0.00308879 Ry

     iteration #  8     ecut=    30.00 Ry     beta=0.70
     Davidson diagonalization with overlap
     ethr =  3.86E-05,  avg # of iterations = 11.0

     negative rho (up, down):  2.469E-05 0.000E+00

     total cpu time spent up to now is        4.9 secs

     total energy              =     -31.52966140 Ry
     Harris-Foulkes estimate   =     -31.52966056 Ry
     estimated scf accuracy    <       0.00002300 Ry

     iteration #  9     ecut=    30.00 Ry     beta=0.70
     Davidson diagonalization with overlap
     ethr =  2.88E-07,  avg # of iterations = 10.0

     negative rho (up, down):  1.981E-07 0.000E+00

     total cpu time spent up to now is        5.0 secs

     total energy              =     -31.52968562 Ry
     Harris-Foulkes estimate   =     -31.52968887 Ry
     estimated scf accuracy    <       0.00169240 Ry

     iteration # 10     ecut=    30.00 Ry     beta=0.70
     Davidson diagonalization with overlap
     ethr =  2.88E-07,  avg # of iterations =  1.0

     total cpu time spent up to now is        5.0 secs

     total energy              =     -31.52966148 Ry
     Harris-Foulkes estimate   =     -31.52968726 Ry
     estimated scf accuracy    <       0.00106522 Ry

     iteration # 11     ecut=    30.00 Ry     beta=0.70
     Davidson diagonalization with overlap
     ethr =  2.88E-07,  avg # of iterations =  1.0

     total cpu time spent up to now is        5.1 secs

     total energy              =     -31.52967518 Ry
     Harris-Foulkes estimate   =     -31.52967508 Ry
     estimated scf accuracy    <       0.00000013 Ry

     iteration # 12     ecut=    30.00 Ry     beta=0.70
     Davidson diagonalization with overlap
     ethr =  1.64E-09,  avg # of iterations =  2.0

     total cpu time spent up to now is        5.1 secs

     total energy              =     -31.52967527 Ry
     Harris-Foulkes estimate   =     -31.52967521 Ry
     estimated scf accuracy    <       0.00000094 Ry

     iteration # 13     ecut=    30.00 Ry     beta=0.70
     Davidson diagonalization with overlap
     ethr =  1.64E-09,  avg # of iterations =  1.0

     total cpu time spent up to now is        5.1 secs

     total energy              =     -31.52967504 Ry
     Harris-Foulkes estimate   =     -31.52967531 Ry
     estimated scf accuracy    <       0.00000051 Ry

     iteration # 14     ecut=    30.00 Ry     beta=0.70
     Davidson diagonalization with overlap
     ethr =  1.64E-09,  avg # of iterations =  1.0

     total cpu time spent up to now is        5.2 secs

     total energy              =     -31.52967505 Ry
     Harris-Foulkes estimate   =     -31.52967505 Ry
     estimated scf accuracy    <       0.00000002 Ry

     iteration # 15     ecut=    30.00 Ry     beta=0.70
     Davidson diagonalization with overlap
     ethr =  2.26E-10,  avg # of iterations =  1.0

     total cpu time spent up to now is        5.2 secs

     End of self-consistent calculation

          k = 0.0000 0.0000 0.0000 ( 22119 PWs)   bands (ev):

   -23.6418  -7.3468  -7.1427  -7.0339  -6.8087  -6.6239  -0.1343   0.7290

     the Fermi energy is    -6.8945 ev

!    total energy              =     -31.52967505 Ry
     Harris-Foulkes estimate   =     -31.52967505 Ry
     estimated scf accuracy    <          9.5E-10 Ry

     convergence has been achieved in  15 iterations

     Forces acting on atoms (Ry/au):

     atom    1 type  1   force =    -0.03818018    0.00440820    0.00970412
     atom    2 type  1   force =    -0.00046515   -0.00851185    0.00863429
     atom    3 type  2   force =     0.03864533    0.00410365   -0.01833841

     Total force =     0.059709     Total SCF correction =     0.000057

     Entering Dynamics:    iteration =     4
                           time      =   0.0194 pico-seconds


     Andersen thermostat:    3 collisions

ATOMIC_POSITIONS (bohr)
H       15.701182184  15.986827889  16.858551928
H       11.089168306   1.290501254  13.569643335
O       10.832640212  16.235351314  18.304702886


     kinetic energy (Ekin) =     0.02005367 Ry
     temperature           =  1055.40682356 K 
     Ekin + Etot (const)   =   -31.50962138 Ry
     Message from routine dynamics:
     Total linear momentum <> 0

     Linear momentum :   -0.5071790293   -0.2570168581    0.0300415046

     Writing output data file pwscf.save

     second order wave-functions extrapolation
     Check: negative starting charge=   -0.336434
     second order charge density extrapolation
     Check: negative starting charge=   -0.336899

     negative rho (up, down):  7.864E-02 0.000E+00

     total cpu time spent up to now is        5.5 secs

     per-process dynamical memory:    20.4 Mb

     Self-consistent Calculation

     iteration #  1     ecut=    30.00 Ry     beta=0.70
     Davidson diagonalization with overlap
     ethr =  1.00E-06,  avg # of iterations = 11.0

     negative rho (up, down):  1.413E-02 0.000E+00

     total cpu time spent up to now is        5.6 secs

     total energy              =      -2.01418934 Ry
     Harris-Foulkes estimate   =    -113.98955511 Ry
     estimated scf accuracy    <       5.30684725 Ry

     iteration #  2     ecut=    30.00 Ry     beta=0.70
     Davidson diagonalization with overlap
     ethr =  1.00E-02,  avg # of iterations =  3.0

     negative rho (up, down):  9.459E-03 0.000E+00

     total cpu time spent up to now is        5.6 secs

     total energy              =     -31.56836904 Ry
     Harris-Foulkes estimate   =     -35.12787093 Ry
     estimated scf accuracy    <       7.56142150 Ry

     iteration #  3     ecut=    30.00 Ry     beta=0.70
     Davidson diagonalization with overlap
     ethr =  1.00E-02,  avg # of iterations =  2.0

     negative rho (up, down):  6.701E-03 0.000E+00

     total cpu time spent up to now is        5.7 secs

     total energy              =     -32.10560300 Ry
     Harris-Foulkes estimate   =     -33.20567026 Ry
     estimated scf accuracy    <       3.75956210 Ry

     iteration #  4     ecut=    30.00 Ry     beta=0.70
     Davidson diagonalization with overlap
     ethr =  1.00E-02,  avg # of iterations =  2.0

     negative rho (up, down):  6.737E-03 0.000E+00

     total cpu time spent up to now is        5.7 secs

     total energy              =     -32.24871219 Ry
     Harris-Foulkes estimate   =     -32.21096239 Ry
     estimated scf accuracy    <       1.92091230 Ry

     iteration #  5     ecut=    30.00 Ry     beta=0.70
     Davidson diagonalization with overlap
     ethr =  1.00E-02,  avg # of iterations =  1.0

     negative rho (up, down):  3.945E-03 0.000E+00

     total cpu time spent up to now is        5.7 secs

     total energy              =     -31.30928229 Ry
     Harris-Foulkes estimate   =     -32.24921170 Ry
     estimated scf accuracy    <       1.98335231 Ry

     iteration #  6     ecut=    30.00 Ry     beta=0.70
     Davidson diagonalization with overlap
     ethr =  1.00E-02,  avg # of iterations =  2.0

     negative rho (up, down):  2.427E-03 0.000E+00

     total cpu time spent up to now is        5.8 secs

     total energy              =     -31.94380385 Ry
     Harris-Foulkes estimate   =     -32.11361050 Ry
     estimated scf accuracy    <       2.62610064 Ry

     iteration #  7     ecut=    30.00 Ry     beta=0.70
     Davidson diagonalization with overlap
     ethr =  1.00E-02,  avg # of iterations =  2.0

     negative rho (up, down):  3.093E-03 0.000E+00

     total cpu time spent up to now is        5.8 secs

     total energy              =     -31.55994000 Ry
     Harris-Foulkes estimate   =     -32.17404583 Ry
     estimated scf accuracy    <       1.94986689 Ry

     iteration #  8     ecut=    30.00 Ry     beta=0.70
     Davidson diagonalization with overlap
     ethr =  1.00E-02,  avg # of iterations =  2.0

     negative rho (up, down):  3.029E-03 0.000E+00

     total cpu time spent up to now is        5.8 secs

     total energy              =     -31.72518114 Ry
     Harris-Foulkes estimate   =     -31.85819393 Ry
     estimated scf accuracy    <       2.32998112 Ry

     iteration #  9     ecut=    30.00 Ry     beta=0.70
     Davidson diagonalization with overlap
     ethr =  1.00E-02,  avg # of iterations =  1.0

     negative rho (up, down):  3.590E-03 0.000E+00

     total cpu time spent up to now is        5.9 secs

     total energy              =     -31.50994975 Ry
     Harris-Foulkes estimate   =     -31.72732829 Ry
     estimated scf accuracy    <       1.94220301 Ry

     iteration # 10     ecut=    30.00 Ry     beta=0.70
     Davidson diagonalization with overlap
     ethr =  1.00E-02,  avg # of iterations =  1.0

     negative rho (up, down):  1.774E-01 0.000E+00

     total cpu time spent up to now is        5.9 secs

     total energy              =     -33.30357277 Ry
     Harris-Foulkes estimate   =     -31.78704001 Ry
     estimated scf accuracy    <       1.30337542 Ry

     iteration # 11     ecut=    30.00 Ry     beta=0.70
     Davidson diagonalization with overlap
     ethr =  1.00E-02,  avg # of iterations =  3.0

     negative rho (up, down):  1.111E+00 0.000E+00

     total cpu time spent up to now is        5.9 secs

     total energy              =     -38.21544419 Ry
     Harris-Foulkes estimate   =     -34.71676862 Ry
     estimated scf accuracy    <      14.97893727 Ry

     iteration # 12     ecut=    30.00 Ry     beta=0.70
     Davidson diagonalization with overlap
     ethr =  1.00E-02,  avg # of iterations =  5.0

     negative rho (up, down):  2.131E-01 0.000E+00

     total cpu time spent up to now is        6.0 secs

     total energy              =     -31.40257352 Ry
     Harris-Foulkes estimate   =     -41.07169634 Ry
     estimated scf accuracy    <      31.03655181 Ry

     iteration # 13     ecut=    30.00 Ry     beta=0.70
     Davidson diagonalization with overlap
     ethr =  1.00E-02,  avg # of iterations =  4.0

     negative rho (up, down):  1.610E-02 0.000E+00

     total cpu time spent up to now is        6.0 secs

     total energy              =      -6.81860277 Ry
     Harris-Foulkes estimate   =     -51.52791732 Ry
     estimated scf accuracy    <      34.78268554 Ry

     iteration # 14     ecut=    30.00 Ry     beta=0.70
     Davidson diagonalization with overlap
     ethr =  1.00E-02,  avg # of iterations =  7.0

     negative rho (up, down):  2.028E-02 0.000E+00

     total cpu time spent up to now is        6.1 secs

     total energy              =     -32.08415474 Ry
     Harris-Foulkes estimate   =     -31.83047384 Ry
     estimated scf accuracy    <       3.76099791 Ry

     iteration # 15     ecut=    30.00 Ry     beta=0.70
     Davidson diagonalization with overlap
     ethr =  1.00E-02,  avg # of iterations =  1.0

     negative rho (up, down):  8.866E-02 0.000E+00

     total cpu time spent up to now is        6.1 secs

     total energy              =     -44.34629638 Ry
     Harris-Foulkes estimate   =     -32.11870633 Ry
     estimated scf accuracy    <       4.05584476 Ry

     iteration # 16     ecut=    30.00 Ry     beta=0.70
     Davidson diagonalization with overlap
     ethr =  1.00E-02,  avg # of iterations =  5.0

     negative rho (up, down):  1.305E-01 0.000E+00

     total cpu time spent up to now is        6.2 secs

     total energy              =      -7.48868195 Ry
     Harris-Foulkes estimate   =    -166.97499525 Ry
     estimated scf accuracy    <      40.91826025 Ry

     iteration # 17     ecut=    30.00 Ry     beta=0.70
     Davidson diagonalization with overlap
     ethr =  1.00E-02,  avg # of iterations =  6.0

     negative rho (up, down):  5.950E-02 0.000E+00

     total cpu time spent up to now is        6.2 secs

     total energy              =      -7.35388490 Ry
     Harris-Foulkes estimate   =     -89.49581282 Ry
     estimated scf accuracy    <      17.53280636 Ry

     iteration # 18     ecut=    30.00 Ry     beta=0.70
     Davidson diagonalization with overlap
     ethr =  1.00E-02,  avg # of iterations =  3.0

     negative rho (up, down):  1.628E-01 0.000E+00

     total cpu time spent up to now is        6.2 secs

     total energy              =     -31.07097639 Ry
     Harris-Foulkes estimate   =     -31.92465349 Ry
     estimated scf accuracy    <       2.68688209 Ry

     iteration # 19     ecut=    30.00 Ry     beta=0.70
     Davidson diagonalization with overlap
     ethr =  1.00E-02,  avg # of iterations =  2.0

     negative rho (up, down):  8.151E-02 0.000E+00

     total cpu time spent up to now is        6.3 secs

     total energy              =     -31.54697211 Ry
     Harris-Foulkes estimate   =     -31.90816822 Ry
     estimated scf accuracy    <       2.63078613 Ry

     iteration # 20     ecut=    30.00 Ry     beta=0.70
     Davidson diagonalization with overlap
     ethr =  1.00E-02,  avg # of iterations =  1.0

     negative rho (up, down):  7.760E-03 0.000E+00

     total cpu time spent up to now is        6.3 secs

     total energy              =     -31.40331643 Ry
     Harris-Foulkes estimate   =     -31.57952817 Ry
     estimated scf accuracy    <       1.02241761 Ry

     iteration # 21     ecut=    30.00 Ry     beta=0.70
     Davidson diagonalization with overlap
     ethr =  1.00E-02,  avg # of iterations =  2.0

     negative rho (up, down):  6.224E-03 0.000E+00

     total cpu time spent up to now is        6.3 secs

     total energy              =     -31.77530092 Ry
     Harris-Foulkes estimate   =     -31.80119558 Ry
     estimated scf accuracy    <       1.78773839 Ry

     iteration # 22     ecut=    30.00 Ry     beta=0.70
     Davidson diagonalization with overlap
     ethr =  1.00E-02,  avg # of iterations =  1.0

     negative rho (up, down):  9.171E-03 0.000E+00

     total cpu time spent up to now is        6.4 secs

     total energy              =     -38.64831725 Ry
     Harris-Foulkes estimate   =     -31.79840835 Ry
     estimated scf accuracy    <       1.33257696 Ry

     iteration # 23     ecut=    30.00 Ry     beta=0.70
     Davidson diagonalization with overlap
     ethr =  1.00E-02,  avg # of iterations =  3.0

     negative rho (up, down):  7.939E-03 0.000E+00

     total cpu time spent up to now is        6.4 secs

     total energy              =     -22.63359794 Ry
     Harris-Foulkes estimate   =    -131.20736272 Ry
     estimated scf accuracy    <       5.56789081 Ry

     iteration # 24     ecut=    30.00 Ry     beta=0.70
     Davidson diagonalization with overlap
     ethr =  1.00E-02,  avg # of iterations =  3.0

     negative rho (up, down):  3.740E-03 0.000E+00

     total cpu time spent up to now is        6.4 secs

     total energy              =     -33.35720525 Ry
     Harris-Foulkes estimate   =     -35.84714640 Ry
     estimated scf accuracy    <       4.11076172 Ry

     iteration # 25     ecut=    30.00 Ry     beta=0.70
     Davidson diagonalization with overlap
     ethr =  1.00E-02,  avg # of iterations =  3.0

     negative rho (up, down):  4.849E-03 0.000E+00

     total cpu time spent up to now is        6.5 secs

     total energy              =     -41.69033842 Ry
     Harris-Foulkes estimate   =     -34.79650653 Ry
     estimated scf accuracy    <       3.70889350 Ry

     iteration # 26     ecut=    30.00 Ry     beta=0.70
     Davidson diagonalization with overlap
     ethr =  1.00E-02,  avg # of iterations =  3.0

     negative rho (up, down):  4.068E-03 0.000E+00

     total cpu time spent up to now is        6.5 secs

     total energy              =     -28.04627482 Ry
     Harris-Foulkes estimate   =     -45.13073322 Ry
     estimated scf accuracy    <       5.92387343 Ry

     iteration # 27     ecut=    30.00 Ry     beta=0.70
     Davidson diagonalization with overlap
     ethr =  1.00E-02,  avg # of iterations =  4.0

     negative rho (up, down):  1.400E-02 0.000E+00

     total cpu time spent up to now is        6.6 secs

     total energy              =     -24.19352852 Ry
     Harris-Foulkes estimate   =     -39.36487130 Ry
     estimated scf accuracy    <       5.73131433 Ry

     iteration # 28     ecut=    30.00 Ry     beta=0.70
     Davidson diagonalization with overlap
     ethr =  1.00E-02,  avg # of iterations =  4.0

     negative rho (up, down):  1.730E-02 0.000E+00

     total cpu time spent up to now is        6.6 secs

     total energy              =     -32.35014661 Ry
     Harris-Foulkes estimate   =     -34.55843400 Ry
     estimated scf accuracy    <       3.75782654 Ry

     iteration # 29     ecut=    30.00 Ry     beta=0.70
     Davidson diagonalization with overlap
     ethr =  1.00E-02,  avg # of iterations =  3.0

     negative rho (up, down):  7.714E-02 0.000E+00

     total cpu time spent up to now is        6.6 secs

     total energy              =     -61.57344861 Ry
     Harris-Foulkes estimate   =     -36.20016473 Ry
     estimated scf accuracy    <       4.04605560 Ry

     iteration # 30     ecut=    30.00 Ry     beta=0.70
     Davidson diagonalization with overlap
     ethr =  1.00E-02,  avg # of iterations =  5.0

     negative rho (up, down):  3.051E-01 0.000E+00

     total cpu time spent up to now is        6.7 secs

     total energy              =    -139.50252140 Ry
     Harris-Foulkes estimate   =    -203.29154122 Ry
     estimated scf accuracy    <      76.44381696 Ry

     iteration # 31     ecut=    30.00 Ry     beta=0.70
     Davidson diagonalization with overlap
     ethr =  1.00E-02,  avg # of iterations =  8.0

     negative rho (up, down):  4.392E-01 0.000E+00

     total cpu time spent up to now is        6.7 secs

     total energy              =    -732.60666295 Ry
     Harris-Foulkes estimate   =    -288.03880222 Ry
     estimated scf accuracy    <      79.54313482 Ry

     iteration # 32     ecut=    30.00 Ry     beta=0.70
     Davidson diagonalization with overlap
     ethr =  1.00E-02,  avg # of iterations =  6.0

     negative rho (up, down):  3.952E-01 0.000E+00

     total cpu time spent up to now is        6.8 secs

     total energy              =     -52.58491153 Ry
     Harris-Foulkes estimate   =   -1993.61160152 Ry
     estimated scf accuracy    <      71.86867781 Ry

     iteration # 33     ecut=    30.00 Ry     beta=0.70
     Davidson diagonalization with overlap
     ethr =  1.00E-02,  avg # of iterations =  6.0

     negative rho (up, down):  3.903E-01 0.000E+00

     total cpu time spent up to now is        6.8 secs

     total energy              =      -7.85990301 Ry
     Harris-Foulkes estimate   =   -1778.63176633 Ry
     estimated scf accuracy    <      74.50880871 Ry

     iteration # 34     ecut=    30.00 Ry     beta=0.70
     Davidson diagonalization with overlap
     ethr =  1.00E-02,  avg # of iterations =  5.0

     negative rho (up, down):  5.637E-01 0.000E+00

     total cpu time spent up to now is        6.9 secs

     total energy              =  -14424.76184650 Ry
     Harris-Foulkes estimate   =    -215.33909605 Ry
     estimated scf accuracy    <      72.09171905 Ry

     iteration # 35     ecut=    30.00 Ry     beta=0.70
     Davidson diagonalization with overlap
     ethr =  1.00E-02,  avg # of iterations =  8.0

     negative rho (up, down):  5.935E-01 0.000E+00

     total cpu time spent up to now is        6.9 secs

     total energy              =      -3.96932783 Ry
     Harris-Foulkes estimate   =  -36897.72738092 Ry
     estimated scf accuracy    <      71.92619298 Ry

     iteration # 36     ecut=    30.00 Ry     beta=0.70
     Davidson diagonalization with overlap
     ethr =  1.00E-02,  avg # of iterations =  5.0

     negative rho (up, down):  6.112E-01 0.000E+00

     total cpu time spent up to now is        7.0 secs

     total energy              =      12.11300252 Ry
     Harris-Foulkes estimate   =   -1224.36007082 Ry
     estimated scf accuracy    <      71.99498707 Ry

     iteration # 37     ecut=    30.00 Ry     beta=0.70
     Davidson diagonalization with overlap
     ethr =  1.00E-02,  avg # of iterations =  8.0

     negative rho (up, down):  6.635E-01 0.000E+00

     total cpu time spent up to now is        7.0 secs

     total energy              =    -459.01235169 Ry
     Harris-Foulkes estimate   =   -1308.82352980 Ry
     estimated scf accuracy    <      67.80196003 Ry

     iteration # 38     ecut=    30.00 Ry     beta=0.70
     Davidson diagonalization with overlap
     ethr =  1.00E-02,  avg # of iterations =  5.0

     negative rho (up, down):  6.869E-01 0.000E+00

     total cpu time spent up to now is        7.1 secs

     total energy              =    9591.64773077 Ry
     Harris-Foulkes estimate   =   -2702.17160035 Ry
     estimated scf accuracy    <      66.72575077 Ry

     iteration # 39     ecut=    30.00 Ry     beta=0.70
     Davidson diagonalization with overlap
     ethr =  1.00E-02,  avg # of iterations =  7.0

     negative rho (up, down):  1.000E+00 0.000E+00

     total cpu time spent up to now is        7.2 secs

     total energy              =     -68.24163800 Ry
     Harris-Foulkes estimate   =   -1935.00040834 Ry
     estimated scf accuracy    <      27.57815620 Ry

     iteration # 40     ecut=    30.00 Ry     beta=0.70
     Davidson diagonalization with overlap
     ethr =  1.00E-02,  avg # of iterations =  7.0

     negative rho (up, down):  1.149E+00 0.000E+00

     total cpu time spent up to now is        7.2 secs

     total energy              =     107.00856497 Ry
     Harris-Foulkes estimate   =   -3978.44456916 Ry
     estimated scf accuracy    <      28.90251568 Ry

     iteration # 41     ecut=    30.00 Ry     beta=0.70
     Davidson diagonalization with overlap
     ethr =  1.00E-02,  avg # of iterations = 10.0

     negative rho (up, down):  9.889E-01 0.000E+00

     total cpu time spent up to now is        7.3 secs

     total energy              =    -505.95382122 Ry
     Harris-Foulkes estimate   =   -2037.62833032 Ry
     estimated scf accuracy    <      29.40290088 Ry

     iteration # 42     ecut=    30.00 Ry     beta=0.70
     Davidson diagonalization with overlap
     ethr =  1.00E-02,  avg # of iterations =  4.0

     negative rho (up, down):  4.941E-01 0.000E+00

     total cpu time spent up to now is        7.3 secs

     total energy              =      64.51632234 Ry
     Harris-Foulkes estimate   =  -19018.51452501 Ry
     estimated scf accuracy    <      20.66647238 Ry

     iteration # 43     ecut=    30.00 Ry     beta=0.70
     Davidson diagonalization with overlap
     ethr =  1.00E-02,  avg # of iterations = 12.0

     negative rho (up, down):  1.529E-02 0.000E+00

     total cpu time spent up to now is        7.4 secs

     total energy              =      84.47978545 Ry
     Harris-Foulkes estimate   =   -3454.54046194 Ry
     estimated scf accuracy    <      21.26919454 Ry

     iteration # 44     ecut=    30.00 Ry     beta=0.70
     Davidson diagonalization with overlap
     ethr =  1.00E-02,  avg # of iterations =  9.0

     negative rho (up, down):  1.565E-03 0.000E+00

     total cpu time spent up to now is        7.4 secs

     total energy              =     -56.35098170 Ry
     Harris-Foulkes estimate   =     -86.03492909 Ry
     estimated scf accuracy    <      71.58474748 Ry

     iteration # 45     ecut=    30.00 Ry     beta=0.70
     Davidson diagonalization with overlap
     ethr =  1.00E-02,  avg # of iterations =  4.0

     negative rho (up, down):  2.711E-04 0.000E+00

     total cpu time spent up to now is        7.5 secs

     total energy              =     -10.39075237 Ry
     Harris-Foulkes estimate   =    -366.08989974 Ry
     estimated scf accuracy    <      16.79302815 Ry

     iteration # 46     ecut=    30.00 Ry     beta=0.70
     Davidson diagonalization with overlap
     ethr =  1.00E-02,  avg # of iterations =  5.0

     negative rho (up, down):  3.954E-02 0.000E+00

     total cpu time spent up to now is        7.5 secs

     total energy              =     -36.64065553 Ry
     Harris-Foulkes estimate   =     -57.01804171 Ry
     estimated scf accuracy    <      35.49730548 Ry

     iteration # 47     ecut=    30.00 Ry     beta=0.70
     Davidson diagonalization with overlap
     ethr =  1.00E-02,  avg # of iterations = 12.0

     negative rho (up, down):  6.348E-04 0.000E+00

     total cpu time spent up to now is        7.6 secs

     total energy              =       5.54063599 Ry
     Harris-Foulkes estimate   =     -47.21713687 Ry
     estimated scf accuracy    <      11.14277900 Ry

     iteration # 48     ecut=    30.00 Ry     beta=0.70
     Davidson diagonalization with overlap
     ethr =  1.00E-02,  avg # of iterations =  5.0

     negative rho (up, down):  1.189E-03 0.000E+00

     total cpu time spent up to now is        7.7 secs

     total energy              =      -8.59293234 Ry
     Harris-Foulkes estimate   =     -61.29915646 Ry
     estimated scf accuracy    <       6.71153898 Ry

     iteration # 49     ecut=    30.00 Ry     beta=0.70
     Davidson diagonalization with overlap
     ethr =  1.00E-02,  avg # of iterations =  9.0

     negative rho (up, down):  9.270E-02 0.000E+00

     total cpu time spent up to now is        7.8 secs

     total energy              =      38.52426878 Ry
     Harris-Foulkes estimate   =    -437.32685118 Ry
     estimated scf accuracy    <      33.75213629 Ry

     iteration # 50     ecut=    30.00 Ry     beta=0.70
     Davidson diagonalization with overlap
     ethr =  1.00E-02,  avg # of iterations =  6.0

     negative rho (up, down):  8.719E-02 0.000E+00

     total cpu time spent up to now is        7.8 secs

     total energy              =      60.18258338 Ry
     Harris-Foulkes estimate   =    -792.25002841 Ry
     estimated scf accuracy    <      26.54592206 Ry

     iteration # 51     ecut=    30.00 Ry     beta=0.70
     Davidson diagonalization with overlap
     ethr =  1.00E-02,  avg # of iterations =  5.0

     negative rho (up, down):  9.230E-02 0.000E+00

     total cpu time spent up to now is        7.9 secs

     total energy              =      -0.93467628 Ry
     Harris-Foulkes estimate   =    -280.15472118 Ry
     estimated scf accuracy    <       5.56290630 Ry

     iteration # 52     ecut=    30.00 Ry     beta=0.70
     Davidson diagonalization with overlap
     ethr =  1.00E-02,  avg # of iterations = 12.0

     total cpu time spent up to now is        7.9 secs

     total energy              =      90.88836859 Ry
     Harris-Foulkes estimate   =    -299.86878094 Ry
     estimated scf accuracy    <      54.96485861 Ry

     iteration # 53     ecut=    30.00 Ry     beta=0.70
     Davidson diagonalization with overlap
     ethr =  1.00E-02,  avg # of iterations =  5.0

     total cpu time spent up to now is        8.0 secs

     total energy              =     -37.98060032 Ry
     Harris-Foulkes estimate   =     -37.84799992 Ry
     estimated scf accuracy    <       9.20659230 Ry

     iteration # 54     ecut=    30.00 Ry     beta=0.70
     Davidson diagonalization with overlap
     ethr =  1.00E-02,  avg # of iterations =  5.0

     negative rho (up, down):  3.664E-04 0.000E+00

     total cpu time spent up to now is        8.0 secs

     total energy              =     -34.69272474 Ry
     Harris-Foulkes estimate   =     -39.73085436 Ry
     estimated scf accuracy    <      13.46022841 Ry

     iteration # 55     ecut=    30.00 Ry     beta=0.70
     Davidson diagonalization with overlap
     ethr =  1.00E-02,  avg # of iterations =  2.0

     negative rho (up, down):  1.369E-08 0.000E+00

     total cpu time spent up to now is        8.0 secs

     total energy              =     -34.33843480 Ry
     Harris-Foulkes estimate   =     -34.85620277 Ry
     estimated scf accuracy    <       5.71021241 Ry

     iteration # 56     ecut=    30.00 Ry     beta=0.70
     Davidson diagonalization with overlap
     ethr =  1.00E-02,  avg # of iterations =  1.0

     total cpu time spent up to now is        8.1 secs

     total energy              =     -33.73187813 Ry
     Harris-Foulkes estimate   =     -34.39629481 Ry
     estimated scf accuracy    <       4.73519673 Ry

     iteration # 57     ecut=    30.00 Ry     beta=0.70
     Davidson diagonalization with overlap
     ethr =  1.00E-02,  avg # of iterations =  1.0

     negative rho (up, down):  4.423E-02 0.000E+00

     total cpu time spent up to now is        8.1 secs

     total energy              =     -32.82487956 Ry
     Harris-Foulkes estimate   =     -33.77609173 Ry
     estimated scf accuracy    <       4.53561641 Ry

     iteration # 58     ecut=    30.00 Ry     beta=0.70
     Davidson diagonalization with overlap
[...]
     Harris-Foulkes estimate   =     -78.89924113 Ry
     estimated scf accuracy    <       9.32721451 Ry

     iteration # 59     ecut=    30.00 Ry     beta=0.70
     Davidson diagonalization with overlap
     ethr =  1.00E-02,  avg # of iterations =  6.0

     negative rho (up, down):  1.376E-01 0.000E+00

     total cpu time spent up to now is        8.2 secs

     total energy              =     -31.09881862 Ry
     Harris-Foulkes estimate   =    -189.12089679 Ry
     estimated scf accuracy    <      66.61483841 Ry

     iteration # 60     ecut=    30.00 Ry     beta=0.70
     Davidson diagonalization with overlap
     ethr =  1.00E-02,  avg # of iterations =  7.0

     negative rho (up, down):  4.098E-02 0.000E+00

     total cpu time spent up to now is        8.3 secs

     total energy              =      76.35308667 Ry
     Harris-Foulkes estimate   =    -754.61049754 Ry
     estimated scf accuracy    <      70.52492864 Ry

     iteration # 61     ecut=    30.00 Ry     beta=0.70
     Davidson diagonalization with overlap
     ethr =  1.00E-02,  avg # of iterations = 10.0

     negative rho (up, down):  1.015E-01 0.000E+00

     total cpu time spent up to now is        8.3 secs

     total energy              =      39.24963862 Ry
     Harris-Foulkes estimate   =    -697.69715134 Ry
     estimated scf accuracy    <      39.29425420 Ry

     iteration # 62     ecut=    30.00 Ry     beta=0.70
     Davidson diagonalization with overlap
     ethr =  1.00E-02,  avg # of iterations =  5.0

     negative rho (up, down):  7.469E-02 0.000E+00

     total cpu time spent up to now is        8.4 secs

     total energy              =      -5.94505509 Ry
     Harris-Foulkes estimate   =     -67.53458092 Ry
     estimated scf accuracy    <      21.38205568 Ry

     iteration # 63     ecut=    30.00 Ry     beta=0.70
     Davidson diagonalization with overlap
     ethr =  1.00E-02,  avg # of iterations =  5.0

     negative rho (up, down):  1.084E-01 0.000E+00

     total cpu time spent up to now is        8.4 secs

     total energy              =     -33.11587030 Ry
     Harris-Foulkes estimate   =     -33.64512621 Ry
     estimated scf accuracy    <       3.70135173 Ry

     iteration # 64     ecut=    30.00 Ry     beta=0.70
     Davidson diagonalization with overlap
     ethr =  1.00E-02,  avg # of iterations =  4.0

     negative rho (up, down):  2.406E-01 0.000E+00

     total cpu time spent up to now is        8.4 secs

     total energy              =     -87.77421277 Ry
     Harris-Foulkes estimate   =    -116.83474158 Ry
     estimated scf accuracy    <       7.15770650 Ry

     iteration # 65     ecut=    30.00 Ry     beta=0.70
     Davidson diagonalization with overlap
     ethr =  1.00E-02,  avg # of iterations =  6.0

     negative rho (up, down):  3.754E-01 0.000E+00

     total cpu time spent up to now is        8.5 secs

     total energy              =     -89.12451894 Ry
     Harris-Foulkes estimate   =    -148.61036802 Ry
     estimated scf accuracy    <      14.16013361 Ry

     iteration # 66     ecut=    30.00 Ry     beta=0.70
     Davidson diagonalization with overlap
     ethr =  1.00E-02,  avg # of iterations =  9.0

     negative rho (up, down):  3.683E-01 0.000E+00

     total cpu time spent up to now is        8.5 secs

     total energy              =      96.09512089 Ry
     Harris-Foulkes estimate   =   -1328.13695553 Ry
     estimated scf accuracy    <      58.14908163 Ry

     iteration # 67     ecut=    30.00 Ry     beta=0.70
     Davidson diagonalization with overlap
     ethr =  1.00E-02,  avg # of iterations =  7.0

     negative rho (up, down):  2.437E-01 0.000E+00

     total cpu time spent up to now is        8.6 secs

     total energy              =      89.71830242 Ry
     Harris-Foulkes estimate   =    -321.70573012 Ry
     estimated scf accuracy    <      55.88255667 Ry

     iteration # 68     ecut=    30.00 Ry     beta=0.70
     Davidson diagonalization with overlap
     ethr =  1.00E-02,  avg # of iterations =  9.0

     negative rho (up, down):  2.032E-01 0.000E+00

     total cpu time spent up to now is        8.7 secs

     total energy              =    -618.87032056 Ry
     Harris-Foulkes estimate   =   -1586.65742535 Ry
     estimated scf accuracy    <      56.42787756 Ry

     iteration # 69     ecut=    30.00 Ry     beta=0.70
     Davidson diagonalization with overlap
     ethr =  1.00E-02,  avg # of iterations = 11.0

     negative rho (up, down):  1.429E-01 0.000E+00

     total cpu time spent up to now is        8.7 secs

     total energy              =      38.95898660 Ry
     Harris-Foulkes estimate   =   -1862.64761335 Ry
     estimated scf accuracy    <      28.85886086 Ry

     iteration # 70     ecut=    30.00 Ry     beta=0.70
     Davidson diagonalization with overlap
     ethr =  1.00E-02,  avg # of iterations =  9.0

     negative rho (up, down):  2.034E-01 0.000E+00

     total cpu time spent up to now is        8.8 secs

     total energy              =     -18.14534496 Ry
     Harris-Foulkes estimate   =     -86.48341176 Ry
     estimated scf accuracy    <       6.80570879 Ry

     iteration # 71     ecut=    30.00 Ry     beta=0.70
     Davidson diagonalization with overlap
     ethr =  1.00E-02,  avg # of iterations =  5.0

     negative rho (up, down):  2.302E-01 0.000E+00

     total cpu time spent up to now is        8.8 secs

     total energy              =      -0.07631522 Ry
     Harris-Foulkes estimate   =    -275.07401075 Ry
     estimated scf accuracy    <       5.17552207 Ry

     iteration # 72     ecut=    30.00 Ry     beta=0.70
     Davidson diagonalization with overlap
     ethr =  1.00E-02,  avg # of iterations =  5.0

     negative rho (up, down):  4.678E-01 0.000E+00

     total cpu time spent up to now is        8.9 secs

     total energy              =   -3050.29630569 Ry
     Harris-Foulkes estimate   =   -4868.66676268 Ry
     estimated scf accuracy    <      28.42678788 Ry

     iteration # 73     ecut=    30.00 Ry     beta=0.70
     Davidson diagonalization with overlap
     ethr =  1.00E-02,  avg # of iterations = 10.0

     negative rho (up, down):  5.357E-01 0.000E+00

     total cpu time spent up to now is        8.9 secs

     total energy              =      81.66806122 Ry
     Harris-Foulkes estimate   =   -5087.06704283 Ry
     estimated scf accuracy    <      53.93681439 Ry

     iteration # 74     ecut=    30.00 Ry     beta=0.70
     Davidson diagonalization with overlap
     ethr =  1.00E-02,  avg # of iterations =  7.0

     negative rho (up, down):  5.937E-01 0.000E+00

     total cpu time spent up to now is        9.0 secs

     total energy              =    -757.97596463 Ry
     Harris-Foulkes estimate   =    -694.20233705 Ry
     estimated scf accuracy    <      50.42488771 Ry

     iteration # 75     ecut=    30.00 Ry     beta=0.70
     Davidson diagonalization with overlap
     ethr =  1.00E-02,  avg # of iterations =  5.0

     negative rho (up, down):  2.862E-01 0.000E+00

     total cpu time spent up to now is        9.0 secs

     total energy              =     102.57793926 Ry
     Harris-Foulkes estimate   =  -24159.54414555 Ry
     estimated scf accuracy    <      56.22913730 Ry

     iteration # 76     ecut=    30.00 Ry     beta=0.70
     Davidson diagonalization with overlap
     ethr =  1.00E-02,  avg # of iterations =  8.0

     negative rho (up, down):  6.087E-01 0.000E+00

     total cpu time spent up to now is        9.1 secs

     total energy              =     -62.58394555 Ry
     Harris-Foulkes estimate   =    -244.82322596 Ry
     estimated scf accuracy    <      44.76527137 Ry

     iteration # 77     ecut=    30.00 Ry     beta=0.70
     Davidson diagonalization with overlap
     ethr =  1.00E-02,  avg # of iterations =  7.0

     negative rho (up, down):  5.813E-01 0.000E+00

     total cpu time spent up to now is        9.1 secs

     total energy              =     -90.06113977 Ry
     Harris-Foulkes estimate   =   -1040.72545180 Ry
     estimated scf accuracy    <      51.11693471 Ry

     iteration # 78     ecut=    30.00 Ry     beta=0.70
     Davidson diagonalization with overlap
     ethr =  1.00E-02,  avg # of iterations =  9.0

     negative rho (up, down):  7.869E-01 0.000E+00

     total cpu time spent up to now is        9.2 secs

     total energy              =       9.33121668 Ry
     Harris-Foulkes estimate   =   -1389.62928132 Ry
     estimated scf accuracy    <      51.55693039 Ry

     iteration # 79     ecut=    30.00 Ry     beta=0.70
     Davidson diagonalization with overlap
     ethr =  1.00E-02,  avg # of iterations =  8.0

     negative rho (up, down):  8.275E-01 0.000E+00

     total cpu time spent up to now is        9.3 secs

     total energy              =    -346.40722806 Ry
     Harris-Foulkes estimate   =    -497.81032959 Ry
     estimated scf accuracy    <      50.97195050 Ry

     iteration # 80     ecut=    30.00 Ry     beta=0.70
     Davidson diagonalization with overlap
     ethr =  1.00E-02,  avg # of iterations =  7.0

     negative rho (up, down):  1.155E+00 0.000E+00

     total cpu time spent up to now is        9.3 secs

     total energy              =    -116.28916672 Ry
     Harris-Foulkes estimate   =   -1962.37042218 Ry
     estimated scf accuracy    <      58.25087386 Ry

     iteration # 81     ecut=    30.00 Ry     beta=0.70
     Davidson diagonalization with overlap
     ethr =  1.00E-02,  avg # of iterations =  7.0

     negative rho (up, down):  9.419E-01 0.000E+00

     total cpu time spent up to now is        9.4 secs

     total energy              =    -336.10829821 Ry
     Harris-Foulkes estimate   =   -2502.15171440 Ry
     estimated scf accuracy    <      26.18432592 Ry

     iteration # 82     ecut=    30.00 Ry     beta=0.70
     Davidson diagonalization with overlap
     ethr =  1.00E-02,  avg # of iterations =  9.0

     negative rho (up, down):  6.551E-01 0.000E+00

     total cpu time spent up to now is        9.4 secs

     total energy              =     119.28163038 Ry
     Harris-Foulkes estimate   =   -4737.50200706 Ry
     estimated scf accuracy    <      18.09438938 Ry

     iteration # 83     ecut=    30.00 Ry     beta=0.70
     Davidson diagonalization with overlap
     ethr =  1.00E-02,  avg # of iterations = 10.0

     negative rho (up, down):  7.030E-01 0.000E+00

     total cpu time spent up to now is        9.5 secs

     total energy              =      -8.72460514 Ry
     Harris-Foulkes estimate   =   -1260.21470624 Ry
     estimated scf accuracy    <      23.90517155 Ry

     iteration # 84     ecut=    30.00 Ry     beta=0.70
     Davidson diagonalization with overlap
     ethr =  1.00E-02,  avg # of iterations =  7.0

     negative rho (up, down):  2.390E-01 0.000E+00

     total cpu time spent up to now is        9.6 secs

     total energy              =      70.38292091 Ry
     Harris-Foulkes estimate   =   -3102.50058839 Ry
     estimated scf accuracy    <      31.07765025 Ry

     iteration # 85     ecut=    30.00 Ry     beta=0.70
     Davidson diagonalization with overlap
     ethr =  1.00E-02,  avg # of iterations =  8.0

     negative rho (up, down):  1.313E-01 0.000E+00

     total cpu time spent up to now is        9.6 secs

     total energy              =     111.77531930 Ry
     Harris-Foulkes estimate   =   -1533.30169476 Ry
     estimated scf accuracy    <      20.76851262 Ry

     iteration # 86     ecut=    30.00 Ry     beta=0.70
     Davidson diagonalization with overlap
     ethr =  1.00E-02,  avg # of iterations = 12.0

     negative rho (up, down):  1.239E-01 0.000E+00

     total cpu time spent up to now is        9.7 secs

     total energy              =    -496.45667781 Ry
     Harris-Foulkes estimate   =   -1148.41257942 Ry
     estimated scf accuracy    <      19.27806371 Ry

     iteration # 87     ecut=    30.00 Ry     beta=0.70
     Davidson diagonalization with overlap
     ethr =  1.00E-02,  avg # of iterations =  5.0

     negative rho (up, down):  1.039E-01 0.000E+00

     total cpu time spent up to now is        9.7 secs

     total energy              =     151.81164720 Ry
     Harris-Foulkes estimate   =  -10138.54394243 Ry
     estimated scf accuracy    <      26.86325729 Ry

     iteration # 88     ecut=    30.00 Ry     beta=0.70
     Davidson diagonalization with overlap
     ethr =  1.00E-02,  avg # of iterations =  6.0

     negative rho (up, down):  3.403E-02 0.000E+00

     total cpu time spent up to now is        9.8 secs

     total energy              =      23.32660487 Ry
     Harris-Foulkes estimate   =    -295.98078973 Ry
     estimated scf accuracy    <      31.62460952 Ry

     iteration # 89     ecut=    30.00 Ry     beta=0.70
     Davidson diagonalization with overlap
     ethr =  1.00E-02,  avg # of iterations = 11.0

     negative rho (up, down):  2.387E-02 0.000E+00

     total cpu time spent up to now is        9.8 secs

     total energy              =    1141.60153398 Ry
     Harris-Foulkes estimate   =     -82.36760371 Ry
     estimated scf accuracy    <      42.21896945 Ry

     iteration # 90     ecut=    30.00 Ry     beta=0.70
     Davidson diagonalization with overlap
     ethr =  1.00E-02,  avg # of iterations =  9.0

     negative rho (up, down):  8.199E-02 0.000E+00

     total cpu time spent up to now is        9.9 secs

     total energy              =      85.49477694 Ry
     Harris-Foulkes estimate   =    -251.48530032 Ry
     estimated scf accuracy    <      18.47664500 Ry

     iteration # 91     ecut=    30.00 Ry     beta=0.70
     Davidson diagonalization with overlap
     ethr =  1.00E-02,  avg # of iterations =  5.0

     negative rho (up, down):  7.872E-02 0.000E+00

     total cpu time spent up to now is        9.9 secs

     total energy              =    -179.25889607 Ry
     Harris-Foulkes estimate   =    -164.33517506 Ry
     estimated scf accuracy    <      42.83636401 Ry

     iteration # 92     ecut=    30.00 Ry     beta=0.70
     Davidson diagonalization with overlap
     ethr =  1.00E-02,  avg # of iterations =  5.0

     negative rho (up, down):  1.058E-01 0.000E+00

     total cpu time spent up to now is       10.0 secs

     total energy              =      69.82277684 Ry
     Harris-Foulkes estimate   =   -3892.45925724 Ry
     estimated scf accuracy    <      21.03000103 Ry

     iteration # 93     ecut=    30.00 Ry     beta=0.70
     Davidson diagonalization with overlap
     ethr =  1.00E-02,  avg # of iterations =  7.0

     negative rho (up, down):  3.361E-01 0.000E+00

     total cpu time spent up to now is       10.0 secs

     total energy              =     -27.61853858 Ry
     Harris-Foulkes estimate   =    -330.59295302 Ry
     estimated scf accuracy    <      43.12602560 Ry

     iteration # 94     ecut=    30.00 Ry     beta=0.70
     Davidson diagonalization with overlap
     ethr =  1.00E-02,  avg # of iterations =  7.0

     negative rho (up, down):  4.863E-01 0.000E+00

     total cpu time spent up to now is       10.1 secs

     total energy              =   -1103.76298922 Ry
     Harris-Foulkes estimate   =    -869.07466544 Ry
     estimated scf accuracy    <      33.80698927 Ry

     iteration # 95     ecut=    30.00 Ry     beta=0.70
     Davidson diagonalization with overlap
     ethr =  1.00E-02,  avg # of iterations =  6.0

     negative rho (up, down):  2.782E-01 0.000E+00

     total cpu time spent up to now is       10.1 secs

     total energy              =      75.17469152 Ry
     Harris-Foulkes estimate   =   -2358.93420543 Ry
     estimated scf accuracy    <      25.08245757 Ry

     iteration # 96     ecut=    30.00 Ry     beta=0.70
     Davidson diagonalization with overlap
     ethr =  1.00E-02,  avg # of iterations =  6.0

     negative rho (up, down):  5.142E-01 0.000E+00

     total cpu time spent up to now is       10.2 secs

     total energy              =     -34.55342705 Ry
     Harris-Foulkes estimate   =    -355.12619358 Ry
     estimated scf accuracy    <      49.00479260 Ry

     iteration # 97     ecut=    30.00 Ry     beta=0.70
     Davidson diagonalization with overlap
     ethr =  1.00E-02,  avg # of iterations =  6.0

     negative rho (up, down):  5.128E-01 0.000E+00

     total cpu time spent up to now is       10.2 secs

     total energy              =     -41.90292274 Ry
     Harris-Foulkes estimate   =    -419.90417741 Ry
     estimated scf accuracy    <      45.07865430 Ry

     iteration # 98     ecut=    30.00 Ry     beta=0.70
     Davidson diagonalization with overlap
     ethr =  1.00E-02,  avg # of iterations =  9.0

     negative rho (up, down):  4.411E-01 0.000E+00

     total cpu time spent up to now is       10.3 secs

     total energy              =      37.75756267 Ry
     Harris-Foulkes estimate   =   -2058.10900679 Ry
     estimated scf accuracy    <      45.18819032 Ry

     iteration # 99     ecut=    30.00 Ry     beta=0.70
     Davidson diagonalization with overlap
     ethr =  1.00E-02,  avg # of iterations =  8.0

     negative rho (up, down):  2.288E-01 0.000E+00

     total cpu time spent up to now is       10.3 secs

     total energy              =      70.18468384 Ry
     Harris-Foulkes estimate   =   -2552.61546054 Ry
     estimated scf accuracy    <      27.39711779 Ry

     iteration #100     ecut=    30.00 Ry     beta=0.70
     Davidson diagonalization with overlap
     ethr =  1.00E-02,  avg # of iterations =  8.0

     negative rho (up, down):  2.827E-01 0.000E+00

     total cpu time spent up to now is       10.4 secs

     total energy              =    -105.97183990 Ry
     Harris-Foulkes estimate   =    -771.47326815 Ry
     estimated scf accuracy    <      41.41887260 Ry

     End of self-consistent calculation

     convergence NOT achieved after 100 iterations: stopping

     Writing output data file pwscf.save
 
     init_run     :      0.10s CPU      0.11s WALL (       1 calls)
     electrons    :      7.39s CPU      9.23s WALL (       5 calls)
     update_pot   :      0.45s CPU      0.62s WALL (       4 calls)
     forces       :      0.10s CPU      0.11s WALL (       4 calls)

     Called by init_run:
     wfcinit      :      0.01s CPU      0.02s WALL (       1 calls)
     potinit      :      0.03s CPU      0.03s WALL (       1 calls)

     Called by electrons:
     c_bands      :      3.59s CPU      3.81s WALL (     211 calls)
     sum_band     :      0.61s CPU      0.66s WALL (     211 calls)
     v_of_rho     :      1.52s CPU      1.61s WALL (     216 calls)
     mix_rho      :      1.42s CPU      2.51s WALL (     211 calls)

     Called by c_bands:
     init_us_2    :      0.02s CPU      0.02s WALL (     423 calls)
     cegterg      :      3.54s CPU      3.68s WALL (     211 calls)

     Called by sum_band:

     Called by *egterg:
     h_psi        :      2.96s CPU      3.07s WALL (    1088 calls)
     g_psi        :      0.03s CPU      0.03s WALL (     876 calls)
     cdiaghg      :      0.22s CPU      0.23s WALL (    1083 calls)

     Called by h_psi:
     h_psi:pot    :      2.94s CPU      3.05s WALL (    1088 calls)
     h_psi:calbec :      0.05s CPU      0.05s WALL (    1088 calls)
     vloc_psi     :      2.87s CPU      2.98s WALL (    1088 calls)
     add_vuspsi   :      0.01s CPU      0.01s WALL (    1088 calls)

     General routines
     calbec       :      0.08s CPU      0.08s WALL (    1107 calls)
     fft          :      0.97s CPU      1.02s WALL (    2384 calls)
     fftw         :      2.97s CPU      3.13s WALL (   13434 calls)
     davcio       :      0.22s CPU      0.87s WALL (    3788 calls)
 
     Parallel routines
     fft_scatter  :      1.52s CPU      1.67s WALL (   15818 calls)
 
     PWSCF        :     8.23s CPU        10.54s WALL

 
   This run was terminated on:   0:59:46  11Feb2018            

=------------------------------------------------------------------------------=
   JOB DONE.
=------------------------------------------------------------------------------=
