
     Program PWSCF v.6.0 (svn rev. 13079) starts on 11Feb2018 at  1:24: 0 

     This program is part of the open-source Quantum ESPRESSO suite
     for quantum simulation of materials; please cite
         "P. Giannozzi et al., J. Phys.:Condens. Matter 21 395502 (2009);
          URL http://www.quantum-espresso.org", 
     in publications or presentations arising from this work. More details at
     http://www.quantum-espresso.org/quote

     Parallel version (MPI), running on    28 processors
     R & G space division:  proc/nbgrp/npool/nimage =      28
     Reading input from inputs/water-1-md/339.in

     Current dimensions of program PWSCF are:
     Max number of different atomic species (ntypx) = 10
     Max number of k-points (npk) =  40000
     Max angular momentum in pseudopotentials (lmaxx) =  3

     Subspace diagonalization in iterative solution of the eigenvalue problem:
     a serial algorithm will be used

 
     Parallelization info
     --------------------
     sticks:   dense  smooth     PW     G-vecs:    dense   smooth      PW
     Min         136     136     33                 6338     6338     787
     Max         137     137     34                 6341     6341     792
     Sum        3809    3809    949               177509   177509   22119
 


     bravais-lattice index     =            1
     lattice parameter (alat)  =      20.0000  a.u.
     unit-cell volume          =    8000.0000 (a.u.)^3
     number of atoms/cell      =            3
     number of atomic types    =            2
     number of electrons       =         8.00
     number of Kohn-Sham states=            8
     kinetic-energy cutoff     =      30.0000  Ry
     charge density cutoff     =     120.0000  Ry
     convergence threshold     =      1.0E-08
     mixing beta               =       0.7000
     number of iterations used =            8  plain     mixing
     Exchange-correlation      = BLYP ( 1  3  1  3 0 0)
     nstep                     =         5000


     celldm(1)=  20.000000  celldm(2)=   0.000000  celldm(3)=   0.000000
     celldm(4)=   0.000000  celldm(5)=   0.000000  celldm(6)=   0.000000

     crystal axes: (cart. coord. in units of alat)
               a(1) = (   1.000000   0.000000   0.000000 )  
               a(2) = (   0.000000   1.000000   0.000000 )  
               a(3) = (   0.000000   0.000000   1.000000 )  

     reciprocal axes: (cart. coord. in units 2 pi/alat)
               b(1) = (  1.000000  0.000000  0.000000 )  
               b(2) = (  0.000000  1.000000  0.000000 )  
               b(3) = (  0.000000  0.000000  1.000000 )  


     PseudoPot. # 1 for  H read from file:
     ./H.blyp-hgh.UPF
     MD5 check sum: c576e69559cde411e611be972c763230
     Pseudo is Norm-conserving, Zval =  1.0
     Generated in analytical, separable form
     Using radial grid of  929 points,  0 beta functions with: 

     PseudoPot. # 2 for  O read from file:
     ./O.blyp-hgh.UPF
     MD5 check sum: d0b7156309aa9befef28faac7bc56342
     Pseudo is Norm-conserving, Zval =  6.0
     Generated in analytical, separable form
     Using radial grid of 1095 points,  1 beta functions with: 
                l(1) =   0

     atomic species   valence    mass     pseudopotential
        H              1.00     1.01000      H( 1.00)
        O              6.00    16.00000      O( 1.00)

     No symmetry found



   Cartesian axes

     site n.     atom                  positions (alat units)
         1           H   tau(   1) = (   0.5181765   0.2724067   0.5056834  )
         2           H   tau(   2) = (   0.9187897   0.1354885   0.5286068  )
         3           O   tau(   3) = (   0.7834800   0.2079466   0.1191356  )

     number of k points=     1  Marzari-Vanderbilt smearing, width (Ry)=  0.0250
                       cart. coord. in units 2pi/alat
        k(    1) = (   0.0000000   0.0000000   0.0000000), wk =   2.0000000

     Dense  grid:   177509 G-vectors     FFT dimensions: (  72,  72,  72)

     Estimated max dynamical RAM per process >       6.09Mb

     Estimated total allocated dynamical RAM >     170.64Mb

     Initial potential from superposition of free atoms
     Check: negative starting charge=   -0.345505

     starting charge    7.99998, renormalised to    8.00000

     negative rho (up, down):  3.455E-01 0.000E+00
     Starting wfc are    6 randomized atomic wfcs +    2 random wfc

     total cpu time spent up to now is        0.2 secs

     per-process dynamical memory:    18.8 Mb

     Self-consistent Calculation

     iteration #  1     ecut=    30.00 Ry     beta=0.70
     Davidson diagonalization with overlap
     ethr =  1.00E-02,  avg # of iterations =  7.0

     negative rho (up, down):  8.377E-02 0.000E+00

     total cpu time spent up to now is        0.3 secs

     total energy              =     -28.13259983 Ry
     Harris-Foulkes estimate   =     -32.07105769 Ry
     estimated scf accuracy    <       4.53310966 Ry

     iteration #  2     ecut=    30.00 Ry     beta=0.70
     Davidson diagonalization with overlap
     ethr =  1.00E-02,  avg # of iterations =  4.0

     negative rho (up, down):  6.136E-02 0.000E+00

     total cpu time spent up to now is        0.3 secs

     total energy              =     -32.61666452 Ry
     Harris-Foulkes estimate   =     -37.83260012 Ry
     estimated scf accuracy    <      12.72780523 Ry

     iteration #  3     ecut=    30.00 Ry     beta=0.70
     Davidson diagonalization with overlap
     ethr =  1.00E-02,  avg # of iterations =  3.0

     negative rho (up, down):  6.328E-02 0.000E+00

     total cpu time spent up to now is        0.4 secs

     total energy              =     -33.15628557 Ry
     Harris-Foulkes estimate   =     -32.95599226 Ry
     estimated scf accuracy    <       4.89765189 Ry

     iteration #  4     ecut=    30.00 Ry     beta=0.70
     Davidson diagonalization with overlap
     ethr =  1.00E-02,  avg # of iterations =  1.0

     negative rho (up, down):  2.568E-02 0.000E+00

     total cpu time spent up to now is        0.4 secs

     total energy              =     -30.25833338 Ry
     Harris-Foulkes estimate   =     -33.15685881 Ry
     estimated scf accuracy    <       5.19583229 Ry

     iteration #  5     ecut=    30.00 Ry     beta=0.70
     Davidson diagonalization with overlap
     ethr =  1.00E-02,  avg # of iterations =  5.0

     negative rho (up, down):  2.064E-02 0.000E+00

     total cpu time spent up to now is        0.4 secs

     total energy              =     -33.05543960 Ry
     Harris-Foulkes estimate   =     -33.14879590 Ry
     estimated scf accuracy    <      12.23061336 Ry

     iteration #  6     ecut=    30.00 Ry     beta=0.70
     Davidson diagonalization with overlap
     ethr =  1.00E-02,  avg # of iterations =  1.0

     negative rho (up, down):  1.221E-02 0.000E+00

     total cpu time spent up to now is        0.5 secs

     total energy              =     -32.46782588 Ry
     Harris-Foulkes estimate   =     -33.06401026 Ry
     estimated scf accuracy    <      10.23484257 Ry

     iteration #  7     ecut=    30.00 Ry     beta=0.70
     Davidson diagonalization with overlap
     ethr =  1.00E-02,  avg # of iterations =  1.0

     negative rho (up, down):  2.135E-04 0.000E+00

     total cpu time spent up to now is        0.5 secs

     total energy              =     -32.31367169 Ry
     Harris-Foulkes estimate   =     -32.62985595 Ry
     estimated scf accuracy    <       5.47198743 Ry

     iteration #  8     ecut=    30.00 Ry     beta=0.70
     Davidson diagonalization with overlap
     ethr =  1.00E-02,  avg # of iterations =  1.0

     negative rho (up, down):  1.516E-02 0.000E+00

     total cpu time spent up to now is        0.5 secs

     total energy              =     -31.60361370 Ry
     Harris-Foulkes estimate   =     -32.31886766 Ry
     estimated scf accuracy    <       4.92989577 Ry

     iteration #  9     ecut=    30.00 Ry     beta=0.70
     Davidson diagonalization with overlap
     ethr =  1.00E-02,  avg # of iterations =  1.0

     negative rho (up, down):  7.446E-03 0.000E+00

     total cpu time spent up to now is        0.5 secs

     total energy              =     -31.46408794 Ry
     Harris-Foulkes estimate   =     -31.62215701 Ry
     estimated scf accuracy    <       3.89144546 Ry

     iteration # 10     ecut=    30.00 Ry     beta=0.70
     Davidson diagonalization with overlap
     ethr =  1.00E-02,  avg # of iterations =  1.0

     negative rho (up, down):  1.376E-02 0.000E+00

     total cpu time spent up to now is        0.6 secs

     total energy              =     -31.49565910 Ry
     Harris-Foulkes estimate   =     -31.49127979 Ry
     estimated scf accuracy    <       0.05374825 Ry

     iteration # 11     ecut=    30.00 Ry     beta=0.70
     Davidson diagonalization with overlap
     ethr =  6.72E-04,  avg # of iterations =  1.0

     negative rho (up, down):  1.866E-02 0.000E+00

     total cpu time spent up to now is        0.6 secs

     total energy              =     -31.57210238 Ry
     Harris-Foulkes estimate   =     -31.56815013 Ry
     estimated scf accuracy    <       4.69618745 Ry

     iteration # 12     ecut=    30.00 Ry     beta=0.70
     Davidson diagonalization with overlap
     ethr =  6.72E-04,  avg # of iterations =  1.0

     negative rho (up, down):  8.873E-02 0.000E+00

     total cpu time spent up to now is        0.6 secs

     total energy              =     -30.00155899 Ry
     Harris-Foulkes estimate   =     -31.57212737 Ry
     estimated scf accuracy    <       4.65416592 Ry

     iteration # 13     ecut=    30.00 Ry     beta=0.70
     Davidson diagonalization with overlap
     ethr =  6.72E-04,  avg # of iterations =  5.0

     negative rho (up, down):  3.147E-02 0.000E+00

     total cpu time spent up to now is        0.7 secs

     total energy              =     -32.03184059 Ry
     Harris-Foulkes estimate   =     -32.91401568 Ry
     estimated scf accuracy    <       4.84898524 Ry

     iteration # 14     ecut=    30.00 Ry     beta=0.70
     Davidson diagonalization with overlap
     ethr =  6.72E-04,  avg # of iterations =  2.0

     negative rho (up, down):  4.421E-02 0.000E+00

     total cpu time spent up to now is        0.7 secs

     total energy              =     -32.13503071 Ry
     Harris-Foulkes estimate   =     -32.03876497 Ry
     estimated scf accuracy    <       3.45026313 Ry

     iteration # 15     ecut=    30.00 Ry     beta=0.70
     Davidson diagonalization with overlap
     ethr =  6.72E-04,  avg # of iterations =  1.0

     negative rho (up, down):  1.941E-03 0.000E+00

     total cpu time spent up to now is        0.8 secs

     total energy              =     -31.51083742 Ry
     Harris-Foulkes estimate   =     -32.14801293 Ry
     estimated scf accuracy    <       3.63223327 Ry

     iteration # 16     ecut=    30.00 Ry     beta=0.70
     Davidson diagonalization with overlap
     ethr =  6.72E-04,  avg # of iterations =  3.0

     negative rho (up, down):  4.040E-03 0.000E+00

     total cpu time spent up to now is        0.8 secs

     total energy              =     -31.61441599 Ry
     Harris-Foulkes estimate   =     -31.51608846 Ry
     estimated scf accuracy    <       1.67356631 Ry

     iteration # 17     ecut=    30.00 Ry     beta=0.70
     Davidson diagonalization with overlap
     ethr =  6.72E-04,  avg # of iterations =  1.0

     negative rho (up, down):  1.909E-03 0.000E+00

     total cpu time spent up to now is        0.8 secs

     total energy              =     -31.54862494 Ry
     Harris-Foulkes estimate   =     -31.63510312 Ry
     estimated scf accuracy    <       2.79209395 Ry

     iteration # 18     ecut=    30.00 Ry     beta=0.70
     Davidson diagonalization with overlap
     ethr =  6.72E-04,  avg # of iterations =  1.0

     negative rho (up, down):  1.385E-03 0.000E+00

     total cpu time spent up to now is        0.9 secs

     total energy              =     -31.41770034 Ry
     Harris-Foulkes estimate   =     -31.54909765 Ry
     estimated scf accuracy    <       2.54606096 Ry

     iteration # 19     ecut=    30.00 Ry     beta=0.70
     Davidson diagonalization with overlap
     ethr =  6.72E-04,  avg # of iterations =  1.0

     negative rho (up, down):  1.443E-03 0.000E+00

     total cpu time spent up to now is        0.9 secs

     total energy              =     -31.48284897 Ry
     Harris-Foulkes estimate   =     -31.51279648 Ry
     estimated scf accuracy    <       2.10440445 Ry

     iteration # 20     ecut=    30.00 Ry     beta=0.70
     Davidson diagonalization with overlap
     ethr =  6.72E-04,  avg # of iterations =  1.0

     negative rho (up, down):  1.349E-03 0.000E+00

     total cpu time spent up to now is        0.9 secs

     total energy              =     -31.49561879 Ry
     Harris-Foulkes estimate   =     -31.49347585 Ry
     estimated scf accuracy    <       0.17062868 Ry

     iteration # 21     ecut=    30.00 Ry     beta=0.70
     Davidson diagonalization with overlap
     ethr =  6.72E-04,  avg # of iterations =  1.0

     negative rho (up, down):  2.229E-03 0.000E+00

     total cpu time spent up to now is        1.0 secs

     total energy              =     -31.40754494 Ry
     Harris-Foulkes estimate   =     -31.49640897 Ry
     estimated scf accuracy    <       0.48330236 Ry

     iteration # 22     ecut=    30.00 Ry     beta=0.70
     Davidson diagonalization with overlap
     ethr =  6.72E-04,  avg # of iterations =  1.0

     negative rho (up, down):  1.515E-03 0.000E+00

     total cpu time spent up to now is        1.0 secs

     total energy              =     -31.70922666 Ry
     Harris-Foulkes estimate   =     -31.67026072 Ry
     estimated scf accuracy    <       2.84689470 Ry

     iteration # 23     ecut=    30.00 Ry     beta=0.70
     Davidson diagonalization with overlap
     ethr =  6.72E-04,  avg # of iterations =  1.0

     negative rho (up, down):  4.075E-04 0.000E+00

     total cpu time spent up to now is        1.0 secs

     total energy              =     -31.74778878 Ry
     Harris-Foulkes estimate   =     -31.70939142 Ry
     estimated scf accuracy    <       2.91728055 Ry

     iteration # 24     ecut=    30.00 Ry     beta=0.70
     Davidson diagonalization with overlap
     ethr =  6.72E-04,  avg # of iterations =  1.0

     negative rho (up, down):  1.917E-04 0.000E+00

     total cpu time spent up to now is        1.1 secs

     total energy              =     -31.82516588 Ry
     Harris-Foulkes estimate   =     -31.74785696 Ry
     estimated scf accuracy    <       2.98140558 Ry

     iteration # 25     ecut=    30.00 Ry     beta=0.70
     Davidson diagonalization with overlap
     ethr =  6.72E-04,  avg # of iterations =  1.0

     negative rho (up, down):  6.334E-05 0.000E+00

     total cpu time spent up to now is        1.1 secs

     total energy              =     -31.84506801 Ry
     Harris-Foulkes estimate   =     -31.82535418 Ry
     estimated scf accuracy    <       3.10741792 Ry

     iteration # 26     ecut=    30.00 Ry     beta=0.70
     Davidson diagonalization with overlap
     ethr =  6.72E-04,  avg # of iterations =  1.0

     negative rho (up, down):  6.659E-05 0.000E+00

     total cpu time spent up to now is        1.1 secs

     total energy              =     -31.85021534 Ry
     Harris-Foulkes estimate   =     -31.84507950 Ry
     estimated scf accuracy    <       3.13725438 Ry

     iteration # 27     ecut=    30.00 Ry     beta=0.70
     Davidson diagonalization with overlap
     ethr =  6.72E-04,  avg # of iterations =  1.0

     negative rho (up, down):  8.805E-05 0.000E+00

     total cpu time spent up to now is        1.2 secs

     total energy              =     -31.86555316 Ry
     Harris-Foulkes estimate   =     -31.85021706 Ry
     estimated scf accuracy    <       3.14545515 Ry

     iteration # 28     ecut=    30.00 Ry     beta=0.70
     Davidson diagonalization with overlap
     ethr =  6.72E-04,  avg # of iterations =  1.0

     negative rho (up, down):  1.144E-03 0.000E+00

     total cpu time spent up to now is        1.2 secs

     total energy              =     -31.58523216 Ry
     Harris-Foulkes estimate   =     -31.86555901 Ry
     estimated scf accuracy    <       3.16319090 Ry

     iteration # 29     ecut=    30.00 Ry     beta=0.70
     Davidson diagonalization with overlap
     ethr =  6.72E-04,  avg # of iterations =  1.0

     negative rho (up, down):  4.326E-03 0.000E+00

     total cpu time spent up to now is        1.2 secs

     total energy              =     -31.25189748 Ry
     Harris-Foulkes estimate   =     -31.58745730 Ry
     estimated scf accuracy    <       2.65465592 Ry

     iteration # 30     ecut=    30.00 Ry     beta=0.70
     Davidson diagonalization with overlap
     ethr =  6.72E-04,  avg # of iterations =  3.0

     negative rho (up, down):  6.468E-07 0.000E+00

     total cpu time spent up to now is        1.3 secs

     total energy              =     -31.27341457 Ry
     Harris-Foulkes estimate   =     -31.73650378 Ry
     estimated scf accuracy    <       4.04847902 Ry

     iteration # 31     ecut=    30.00 Ry     beta=0.70
     Davidson diagonalization with overlap
     ethr =  6.72E-04,  avg # of iterations =  2.0

     negative rho (up, down):  5.161E-04 0.000E+00

     total cpu time spent up to now is        1.3 secs

     total energy              =     -31.52144237 Ry
     Harris-Foulkes estimate   =     -31.61812526 Ry
     estimated scf accuracy    <       2.74945850 Ry

     iteration # 32     ecut=    30.00 Ry     beta=0.70
     Davidson diagonalization with overlap
     ethr =  6.72E-04,  avg # of iterations =  1.0

     negative rho (up, down):  6.311E-04 0.000E+00

     total cpu time spent up to now is        1.3 secs

     total energy              =     -31.58614859 Ry
     Harris-Foulkes estimate   =     -31.52369094 Ry
     estimated scf accuracy    <       2.00270562 Ry

     iteration # 33     ecut=    30.00 Ry     beta=0.70
     Davidson diagonalization with overlap
     ethr =  6.72E-04,  avg # of iterations =  1.0

     negative rho (up, down):  1.547E-04 0.000E+00

     total cpu time spent up to now is        1.4 secs

     total energy              =     -31.26667873 Ry
     Harris-Foulkes estimate   =     -31.59443011 Ry
     estimated scf accuracy    <       2.70777233 Ry

     iteration # 34     ecut=    30.00 Ry     beta=0.70
     Davidson diagonalization with overlap
     ethr =  6.72E-04,  avg # of iterations =  2.0

     negative rho (up, down):  4.483E-05 0.000E+00

     total cpu time spent up to now is        1.4 secs

     total energy              =     -31.56939948 Ry
     Harris-Foulkes estimate   =     -31.70180900 Ry
     estimated scf accuracy    <       3.82724806 Ry

     iteration # 35     ecut=    30.00 Ry     beta=0.70
     Davidson diagonalization with overlap
     ethr =  6.72E-04,  avg # of iterations =  1.0

     negative rho (up, down):  3.715E-05 0.000E+00

     total cpu time spent up to now is        1.5 secs

     total energy              =     -31.25674072 Ry
     Harris-Foulkes estimate   =     -31.56498508 Ry
     estimated scf accuracy    <       4.73897258 Ry

     iteration # 36     ecut=    30.00 Ry     beta=0.70
     Davidson diagonalization with overlap
     ethr =  6.72E-04,  avg # of iterations =  1.0

     negative rho (up, down):  1.449E-06 0.000E+00

     total cpu time spent up to now is        1.5 secs

     total energy              =     -31.53658217 Ry
     Harris-Foulkes estimate   =     -31.60404028 Ry
     estimated scf accuracy    <       2.74790308 Ry

     iteration # 37     ecut=    30.00 Ry     beta=0.70
     Davidson diagonalization with overlap
     ethr =  6.72E-04,  avg # of iterations =  1.0

     negative rho (up, down):  1.288E-05 0.000E+00

     total cpu time spent up to now is        1.6 secs

     total energy              =     -31.45762471 Ry
     Harris-Foulkes estimate   =     -31.53741007 Ry
     estimated scf accuracy    <       2.38741949 Ry

     iteration # 38     ecut=    30.00 Ry     beta=0.70
     Davidson diagonalization with overlap
     ethr =  6.72E-04,  avg # of iterations =  1.0

     negative rho (up, down):  1.433E-05 0.000E+00

     total cpu time spent up to now is        1.6 secs

     total energy              =     -31.49254643 Ry
     Harris-Foulkes estimate   =     -31.49222490 Ry
     estimated scf accuracy    <       0.06321179 Ry

     iteration # 39     ecut=    30.00 Ry     beta=0.70
     Davidson diagonalization with overlap
     ethr =  6.72E-04,  avg # of iterations =  1.0

     negative rho (up, down):  8.187E-05 0.000E+00

     total cpu time spent up to now is        1.7 secs

     total energy              =     -31.48036055 Ry
     Harris-Foulkes estimate   =     -31.49306581 Ry
     estimated scf accuracy    <       0.16823092 Ry

     iteration # 40     ecut=    30.00 Ry     beta=0.70
     Davidson diagonalization with overlap
     ethr =  6.72E-04,  avg # of iterations =  1.0

     negative rho (up, down):  3.503E-05 0.000E+00

     total cpu time spent up to now is        1.7 secs

     total energy              =     -31.48890235 Ry
     Harris-Foulkes estimate   =     -31.50908202 Ry
     estimated scf accuracy    <       1.08852015 Ry

     iteration # 41     ecut=    30.00 Ry     beta=0.70
     Davidson diagonalization with overlap
     ethr =  6.72E-04,  avg # of iterations =  1.0

     negative rho (up, down):  1.378E-07 0.000E+00

     total cpu time spent up to now is        1.8 secs

     total energy              =     -31.49481160 Ry
     Harris-Foulkes estimate   =     -31.49431890 Ry
     estimated scf accuracy    <       0.18461818 Ry

     iteration # 42     ecut=    30.00 Ry     beta=0.70
     Davidson diagonalization with overlap
     ethr =  6.72E-04,  avg # of iterations =  1.0

     negative rho (up, down):  5.959E-08 0.000E+00

     total cpu time spent up to now is        1.8 secs

     total energy              =     -31.49670125 Ry
     Harris-Foulkes estimate   =     -31.49757251 Ry
     estimated scf accuracy    <       0.54398825 Ry

     iteration # 43     ecut=    30.00 Ry     beta=0.70
     Davidson diagonalization with overlap
     ethr =  6.72E-04,  avg # of iterations =  1.0

     negative rho (up, down):  5.419E-07 0.000E+00

     total cpu time spent up to now is        1.9 secs

     total energy              =     -31.49836118 Ry
     Harris-Foulkes estimate   =     -31.49676122 Ry
     estimated scf accuracy    <       0.46986424 Ry

     iteration # 44     ecut=    30.00 Ry     beta=0.70
     Davidson diagonalization with overlap
     ethr =  6.72E-04,  avg # of iterations =  1.0

     negative rho (up, down):  1.512E-05 0.000E+00

     total cpu time spent up to now is        1.9 secs

     total energy              =     -31.47558798 Ry
     Harris-Foulkes estimate   =     -31.49849953 Ry
     estimated scf accuracy    <       0.61757556 Ry

     iteration # 45     ecut=    30.00 Ry     beta=0.70
     Davidson diagonalization with overlap
     ethr =  6.72E-04,  avg # of iterations =  1.0

     negative rho (up, down):  3.714E-06 0.000E+00

     total cpu time spent up to now is        2.0 secs

     total energy              =     -31.47737645 Ry
     Harris-Foulkes estimate   =     -31.49566811 Ry
     estimated scf accuracy    <       0.45174351 Ry

     iteration # 46     ecut=    30.00 Ry     beta=0.70
     Davidson diagonalization with overlap
     ethr =  6.72E-04,  avg # of iterations =  1.0

     negative rho (up, down):  1.163E-05 0.000E+00

     total cpu time spent up to now is        2.0 secs

     total energy              =     -31.48902283 Ry
     Harris-Foulkes estimate   =     -31.49704844 Ry
     estimated scf accuracy    <       0.50774624 Ry

     iteration # 47     ecut=    30.00 Ry     beta=0.70
     Davidson diagonalization with overlap
     ethr =  6.72E-04,  avg # of iterations =  1.0

     total cpu time spent up to now is        2.1 secs

     total energy              =     -31.49033061 Ry
     Harris-Foulkes estimate   =     -31.49244286 Ry
     estimated scf accuracy    <       0.06543130 Ry

     iteration # 48     ecut=    30.00 Ry     beta=0.70
     Davidson diagonalization with overlap
     ethr =  6.72E-04,  avg # of iterations =  1.0

     total cpu time spent up to now is        2.1 secs

     total energy              =     -31.49151013 Ry
     Harris-Foulkes estimate   =     -31.49148921 Ry
     estimated scf accuracy    <       0.00171036 Ry

     iteration # 49     ecut=    30.00 Ry     beta=0.70
     Davidson diagonalization with overlap
     ethr =  2.14E-05,  avg # of iterations =  1.0

     negative rho (up, down):  1.630E-08 0.000E+00

     total cpu time spent up to now is        2.2 secs

     total energy              =     -31.49137782 Ry
     Harris-Foulkes estimate   =     -31.49152303 Ry
     estimated scf accuracy    <       0.00452505 Ry

     iteration # 50     ecut=    30.00 Ry     beta=0.70
     Davidson diagonalization with overlap
     ethr =  2.14E-05,  avg # of iterations =  1.0

     total cpu time spent up to now is        2.2 secs

     total energy              =     -31.49146013 Ry
     Harris-Foulkes estimate   =     -31.49147085 Ry
     estimated scf accuracy    <       0.00061520 Ry

     iteration # 51     ecut=    30.00 Ry     beta=0.70
     Davidson diagonalization with overlap
     ethr =  7.69E-06,  avg # of iterations =  1.0

     total cpu time spent up to now is        2.3 secs

     total energy              =     -31.49146459 Ry
     Harris-Foulkes estimate   =     -31.49146535 Ry
     estimated scf accuracy    <       0.00000483 Ry

     iteration # 52     ecut=    30.00 Ry     beta=0.70
     Davidson diagonalization with overlap
     ethr =  6.04E-08,  avg # of iterations = 11.0

     total cpu time spent up to now is        2.3 secs

     total energy              =     -31.49146461 Ry
     Harris-Foulkes estimate   =     -31.49146509 Ry
     estimated scf accuracy    <       0.00002389 Ry

     iteration # 53     ecut=    30.00 Ry     beta=0.70
     Davidson diagonalization with overlap
     ethr =  6.04E-08,  avg # of iterations =  1.0

     total cpu time spent up to now is        2.4 secs

     total energy              =     -31.49146472 Ry
     Harris-Foulkes estimate   =     -31.49146478 Ry
     estimated scf accuracy    <       0.00000052 Ry

     iteration # 54     ecut=    30.00 Ry     beta=0.70
     Davidson diagonalization with overlap
     ethr =  6.49E-09,  avg # of iterations =  1.0

     total cpu time spent up to now is        2.4 secs

     total energy              =     -31.49146471 Ry
     Harris-Foulkes estimate   =     -31.49146472 Ry
     estimated scf accuracy    <       0.00000030 Ry

     iteration # 55     ecut=    30.00 Ry     beta=0.70
     Davidson diagonalization with overlap
     ethr =  3.74E-09,  avg # of iterations =  1.0

     total cpu time spent up to now is        2.4 secs

     End of self-consistent calculation

          k = 0.0000 0.0000 0.0000 ( 22119 PWs)   bands (ev):

   -23.6237  -7.0513  -7.0386  -7.0359  -6.9595  -6.8872  -0.2059   0.5400

     the Fermi energy is    -6.9023 ev

!    total energy              =     -31.49146470 Ry
     Harris-Foulkes estimate   =     -31.49146471 Ry
     estimated scf accuracy    <          3.6E-09 Ry

     convergence has been achieved in  55 iterations

     Forces acting on atoms (Ry/au):

     atom    1 type  1   force =     0.00040821   -0.00013756   -0.00000764
     atom    2 type  1   force =    -0.00078164    0.00032191   -0.00021643
     atom    3 type  2   force =     0.00037343   -0.00018435    0.00022407

     Total force =     0.001082     Total SCF correction =     0.000011

     Molecular Dynamics Calculation

     Starting temperature  =  1000.00 K

     temperature is controlled by Andersen thermostat
     Collision frequency = 1.0000/timestep
     mass H                =     1.01
     mass O                =    16.00
     Time step             =   100.00 a.u.,  4.8378 femto-seconds

     Entering Dynamics:    iteration =     1
                           time      =   0.0048 pico-seconds


     Andersen thermostat:    3 collisions

ATOMIC_POSITIONS (bohr)
H       10.108918665   5.219769679  10.226204585
H       18.364889889   2.894749451  10.332733706
O       15.686360662   4.161670670   2.390720398


     kinetic energy (Ekin) =     0.01041693 Ry
     temperature           =   548.23390605 K 
     Ekin + Etot (const)   =   -31.48104776 Ry

     Linear momentum :    0.0000000000   -0.0000000000    0.0000000000

     Writing output data file pwscf.save
     Check: negative starting charge=   -0.345505
     NEW-OLD atomic charge density approx. for the potential
     Check: negative starting charge=   -0.345588

     negative rho (up, down):  3.796E-02 0.000E+00

     total cpu time spent up to now is        2.7 secs

     per-process dynamical memory:    20.4 Mb

     Self-consistent Calculation

     iteration #  1     ecut=    30.00 Ry     beta=0.70
     Davidson diagonalization with overlap
     c_bands:  1 eigenvalues not converged
     ethr =  1.00E-06,  avg # of iterations = 20.0

     negative rho (up, down):  8.507E-03 0.000E+00

     total cpu time spent up to now is        2.8 secs

     total energy              =     -31.45875407 Ry
     Harris-Foulkes estimate   =     -31.45433663 Ry
     estimated scf accuracy    <       0.03053242 Ry

     iteration #  2     ecut=    30.00 Ry     beta=0.70
     Davidson diagonalization with overlap
     ethr =  3.82E-04,  avg # of iterations =  2.0

     negative rho (up, down):  7.912E-03 0.000E+00

     total cpu time spent up to now is        2.8 secs

     total energy              =     -31.48022841 Ry
     Harris-Foulkes estimate   =     -31.87510688 Ry
     estimated scf accuracy    <       4.15272014 Ry

     iteration #  3     ecut=    30.00 Ry     beta=0.70
     Davidson diagonalization with overlap
     ethr =  3.82E-04,  avg # of iterations =  2.0

     negative rho (up, down):  5.110E-03 0.000E+00

     total cpu time spent up to now is        2.9 secs

     total energy              =     -31.45137542 Ry
     Harris-Foulkes estimate   =     -31.48992438 Ry
     estimated scf accuracy    <       0.63844268 Ry

     iteration #  4     ecut=    30.00 Ry     beta=0.70
     Davidson diagonalization with overlap
     ethr =  3.82E-04,  avg # of iterations =  1.0

     negative rho (up, down):  1.317E-03 0.000E+00

     total cpu time spent up to now is        2.9 secs

     total energy              =     -31.47933242 Ry
     Harris-Foulkes estimate   =     -31.51817249 Ry
     estimated scf accuracy    <       1.98802561 Ry

     iteration #  5     ecut=    30.00 Ry     beta=0.70
     Davidson diagonalization with overlap
     ethr =  3.82E-04,  avg # of iterations =  4.0

     negative rho (up, down):  1.041E-03 0.000E+00

     total cpu time spent up to now is        2.9 secs

     total energy              =     -31.48977862 Ry
     Harris-Foulkes estimate   =     -31.49254979 Ry
     estimated scf accuracy    <       0.14517904 Ry

     iteration #  6     ecut=    30.00 Ry     beta=0.70
     Davidson diagonalization with overlap
     ethr =  3.82E-04,  avg # of iterations =  1.0

     negative rho (up, down):  1.651E-04 0.000E+00

     total cpu time spent up to now is        3.0 secs

     total energy              =     -31.49139959 Ry
     Harris-Foulkes estimate   =     -31.49137990 Ry
     estimated scf accuracy    <       0.00426653 Ry

     iteration #  7     ecut=    30.00 Ry     beta=0.70
     Davidson diagonalization with overlap
     ethr =  5.33E-05,  avg # of iterations =  7.0

     negative rho (up, down):  7.031E-05 0.000E+00

     total cpu time spent up to now is        3.0 secs

     total energy              =     -31.49169337 Ry
     Harris-Foulkes estimate   =     -31.49158825 Ry
     estimated scf accuracy    <       0.01050281 Ry

     iteration #  8     ecut=    30.00 Ry     beta=0.70
     Davidson diagonalization with overlap
     ethr =  5.33E-05,  avg # of iterations =  1.0

     total cpu time spent up to now is        3.0 secs

     total energy              =     -31.49137422 Ry
     Harris-Foulkes estimate   =     -31.49172159 Ry
     estimated scf accuracy    <       0.02399572 Ry

     iteration #  9     ecut=    30.00 Ry     beta=0.70
     Davidson diagonalization with overlap
     ethr =  5.33E-05,  avg # of iterations =  1.0

     total cpu time spent up to now is        3.1 secs

     total energy              =     -31.49145598 Ry
     Harris-Foulkes estimate   =     -31.49151880 Ry
     estimated scf accuracy    <       0.00106785 Ry

     iteration # 10     ecut=    30.00 Ry     beta=0.70
     Davidson diagonalization with overlap
     ethr =  1.33E-05,  avg # of iterations =  1.0

     total cpu time spent up to now is        3.1 secs

     total energy              =     -31.49150998 Ry
     Harris-Foulkes estimate   =     -31.49155482 Ry
     estimated scf accuracy    <       0.00485392 Ry

     iteration # 11     ecut=    30.00 Ry     beta=0.70
     Davidson diagonalization with overlap
     ethr =  1.33E-05,  avg # of iterations =  1.0

     total cpu time spent up to now is        3.1 secs

     total energy              =     -31.49148543 Ry
     Harris-Foulkes estimate   =     -31.49152068 Ry
     estimated scf accuracy    <       0.00130586 Ry

     iteration # 12     ecut=    30.00 Ry     beta=0.70
     Davidson diagonalization with overlap
     ethr =  1.33E-05,  avg # of iterations =  1.0

     total cpu time spent up to now is        3.2 secs

     total energy              =     -31.49150631 Ry
     Harris-Foulkes estimate   =     -31.49151039 Ry
     estimated scf accuracy    <       0.00023102 Ry

     iteration # 13     ecut=    30.00 Ry     beta=0.70
     Davidson diagonalization with overlap
     ethr =  2.89E-06,  avg # of iterations = 11.0

     total cpu time spent up to now is        3.2 secs

     total energy              =     -31.49150823 Ry
     Harris-Foulkes estimate   =     -31.49150822 Ry
     estimated scf accuracy    <       0.00000136 Ry

     iteration # 14     ecut=    30.00 Ry     beta=0.70
     Davidson diagonalization with overlap
     ethr =  1.70E-08,  avg # of iterations =  1.0

     total cpu time spent up to now is        3.2 secs

     End of self-consistent calculation

          k = 0.0000 0.0000 0.0000 ( 22119 PWs)   bands (ev):

   -23.6239  -7.0536  -7.0389  -7.0361  -6.9572  -6.8884  -0.2048   0.5248

     the Fermi energy is    -6.9026 ev

!    total energy              =     -31.49150822 Ry
     Harris-Foulkes estimate   =     -31.49150825 Ry
     estimated scf accuracy    <          4.1E-10 Ry

     convergence has been achieved in  14 iterations

     Forces acting on atoms (Ry/au):

     atom    1 type  1   force =     0.00034944   -0.00012247    0.00007820
     atom    2 type  1   force =    -0.00075837    0.00021325   -0.00042006
     atom    3 type  2   force =     0.00040893   -0.00009078    0.00034186

     Total force =     0.001110     Total SCF correction =     0.000258
     SCF correction compared to forces is large: reduce conv_thr to get better values

     Entering Dynamics:    iteration =     2
                           time      =   0.0097 pico-seconds


     Andersen thermostat:    3 collisions

ATOMIC_POSITIONS (bohr)
H       10.102776435   5.386725530  10.259677243
H       18.316966215   2.474335152  10.582556727
O       15.689773573   4.177670234   2.372837358


     kinetic energy (Ekin) =     0.01357001 Ry
     temperature           =   714.17766480 K 
     Ekin + Etot (const)   =   -31.47793821 Ry
     Message from routine dynamics:
     Total linear momentum <> 0

     Linear momentum :    0.1664548900    0.1461960414    0.0062697201

     Writing output data file pwscf.save

     first order wave-functions extrapolation
     Check: negative starting charge=   -0.345588
     first order charge density extrapolation
     Check: negative starting charge=   -0.345982

     negative rho (up, down):  6.791E-02 0.000E+00

     total cpu time spent up to now is        3.5 secs

     per-process dynamical memory:    20.4 Mb

     Self-consistent Calculation

     iteration #  1     ecut=    30.00 Ry     beta=0.70
     Davidson diagonalization with overlap
     c_bands:  1 eigenvalues not converged
     ethr =  1.00E-06,  avg # of iterations = 20.0

     negative rho (up, down):  1.533E-02 0.000E+00

     total cpu time spent up to now is        3.6 secs

     total energy              =     -31.42327564 Ry
     Harris-Foulkes estimate   =     -31.44278732 Ry
     estimated scf accuracy    <       0.07107374 Ry

     iteration #  2     ecut=    30.00 Ry     beta=0.70
     Davidson diagonalization with overlap
     ethr =  8.88E-04,  avg # of iterations =  2.0

     negative rho (up, down):  1.310E-02 0.000E+00

     total cpu time spent up to now is        3.6 secs

     total energy              =     -31.50062814 Ry
     Harris-Foulkes estimate   =     -31.74921572 Ry
     estimated scf accuracy    <       1.35750080 Ry

     iteration #  3     ecut=    30.00 Ry     beta=0.70
     Davidson diagonalization with overlap
     ethr =  8.88E-04,  avg # of iterations =  2.0

     negative rho (up, down):  1.271E-02 0.000E+00

     total cpu time spent up to now is        3.7 secs

     total energy              =     -31.47164332 Ry
     Harris-Foulkes estimate   =     -31.59959451 Ry
     estimated scf accuracy    <       2.79866059 Ry

     iteration #  4     ecut=    30.00 Ry     beta=0.70
     Davidson diagonalization with overlap
     ethr =  8.88E-04,  avg # of iterations =  1.0

     negative rho (up, down):  1.189E-02 0.000E+00

     total cpu time spent up to now is        3.7 secs

     total energy              =     -31.46741578 Ry
     Harris-Foulkes estimate   =     -31.50843840 Ry
     estimated scf accuracy    <       0.67832688 Ry

     iteration #  5     ecut=    30.00 Ry     beta=0.70
     Davidson diagonalization with overlap
     ethr =  8.88E-04,  avg # of iterations =  1.0

     negative rho (up, down):  2.314E-03 0.000E+00

     total cpu time spent up to now is        3.7 secs

     total energy              =     -31.48712154 Ry
     Harris-Foulkes estimate   =     -31.47963489 Ry
     estimated scf accuracy    <       0.01652532 Ry

     iteration #  6     ecut=    30.00 Ry     beta=0.70
     Davidson diagonalization with overlap
     ethr =  2.07E-04,  avg # of iterations =  5.0

     negative rho (up, down):  1.213E-03 0.000E+00

     total cpu time spent up to now is        3.8 secs

     total energy              =     -31.48796053 Ry
     Harris-Foulkes estimate   =     -31.49820265 Ry
     estimated scf accuracy    <       0.54872203 Ry

     iteration #  7     ecut=    30.00 Ry     beta=0.70
     Davidson diagonalization with overlap
     ethr =  2.07E-04,  avg # of iterations =  1.0

     negative rho (up, down):  1.360E-04 0.000E+00

     total cpu time spent up to now is        3.8 secs

     total energy              =     -31.48829951 Ry
     Harris-Foulkes estimate   =     -31.49196412 Ry
     estimated scf accuracy    <       0.05187117 Ry

     iteration #  8     ecut=    30.00 Ry     beta=0.70
     Davidson diagonalization with overlap
     ethr =  2.07E-04,  avg # of iterations =  5.0

     negative rho (up, down):  1.719E-05 0.000E+00

     total cpu time spent up to now is        3.8 secs

     total energy              =     -31.49120371 Ry
     Harris-Foulkes estimate   =     -31.49278873 Ry
     estimated scf accuracy    <       0.09364458 Ry

     iteration #  9     ecut=    30.00 Ry     beta=0.70
     Davidson diagonalization with overlap
     ethr =  2.07E-04,  avg # of iterations =  1.0

     negative rho (up, down):  5.825E-08 0.000E+00

     total cpu time spent up to now is        3.9 secs

     total energy              =     -31.49120625 Ry
     Harris-Foulkes estimate   =     -31.49174464 Ry
     estimated scf accuracy    <       0.02292955 Ry

     iteration # 10     ecut=    30.00 Ry     beta=0.70
     Davidson diagonalization with overlap
     ethr =  2.07E-04,  avg # of iterations =  1.0

     negative rho (up, down):  6.520E-08 0.000E+00

     total cpu time spent up to now is        3.9 secs

     total energy              =     -31.49133234 Ry
     Harris-Foulkes estimate   =     -31.49137745 Ry
     estimated scf accuracy    <       0.00404120 Ry

     iteration # 11     ecut=    30.00 Ry     beta=0.70
     Davidson diagonalization with overlap
     ethr =  5.05E-05,  avg # of iterations =  1.0

     total cpu time spent up to now is        3.9 secs

     total energy              =     -31.49126516 Ry
     Harris-Foulkes estimate   =     -31.49135007 Ry
     estimated scf accuracy    <       0.00352581 Ry

     iteration # 12     ecut=    30.00 Ry     beta=0.70
     Davidson diagonalization with overlap
     ethr =  4.41E-05,  avg # of iterations =  1.0

     total cpu time spent up to now is        4.0 secs

     total energy              =     -31.49130649 Ry
     Harris-Foulkes estimate   =     -31.49130658 Ry
     estimated scf accuracy    <       0.00000033 Ry

     iteration # 13     ecut=    30.00 Ry     beta=0.70
     Davidson diagonalization with overlap
     ethr =  4.12E-09,  avg # of iterations = 10.0

     total cpu time spent up to now is        4.0 secs

     total energy              =     -31.49130647 Ry
     Harris-Foulkes estimate   =     -31.49130653 Ry
     estimated scf accuracy    <       0.00000023 Ry

     iteration # 14     ecut=    30.00 Ry     beta=0.70
     Davidson diagonalization with overlap
     ethr =  2.90E-09,  avg # of iterations =  1.0

     total cpu time spent up to now is        4.1 secs

     total energy              =     -31.49130642 Ry
     Harris-Foulkes estimate   =     -31.49130647 Ry
     estimated scf accuracy    <       0.00000136 Ry

     iteration # 15     ecut=    30.00 Ry     beta=0.70
     Davidson diagonalization with overlap
     ethr =  2.90E-09,  avg # of iterations =  1.0

     total cpu time spent up to now is        4.1 secs

     total energy              =     -31.49130638 Ry
     Harris-Foulkes estimate   =     -31.49130642 Ry
     estimated scf accuracy    <       0.00000065 Ry

     iteration # 16     ecut=    30.00 Ry     beta=0.70
     Davidson diagonalization with overlap
     ethr =  2.90E-09,  avg # of iterations =  1.0

     total cpu time spent up to now is        4.1 secs

     total energy              =     -31.49130638 Ry
     Harris-Foulkes estimate   =     -31.49130638 Ry
     estimated scf accuracy    <       0.00000002 Ry

     iteration # 17     ecut=    30.00 Ry     beta=0.70
     Davidson diagonalization with overlap
     ethr =  3.12E-10,  avg # of iterations =  1.0

     total cpu time spent up to now is        4.1 secs

     End of self-consistent calculation

          k = 0.0000 0.0000 0.0000 ( 22119 PWs)   bands (ev):

   -23.6211  -7.0468  -7.0358  -7.0333  -6.9533  -6.8909  -0.2087   0.5342

     the Fermi energy is    -6.8997 ev

!    total energy              =     -31.49130636 Ry
     Harris-Foulkes estimate   =     -31.49130638 Ry
     estimated scf accuracy    <          1.4E-09 Ry

     convergence has been achieved in  17 iterations

     Forces acting on atoms (Ry/au):

     atom    1 type  1   force =     0.00034203   -0.00017621   -0.00003286
     atom    2 type  1   force =    -0.00053807    0.00022597   -0.00032211
     atom    3 type  2   force =     0.00019604   -0.00004976    0.00035497

     Total force =     0.000872     Total SCF correction =     0.000110
     SCF correction compared to forces is large: reduce conv_thr to get better values

     Entering Dynamics:    iteration =     3
                           time      =   0.0145 pico-seconds


     Andersen thermostat:    3 collisions

ATOMIC_POSITIONS (bohr)
H        9.555732279   5.292083264  10.271648739
H       18.496229587   2.422918838  10.334094353
O       15.712989735   4.186890182   2.387765845


     kinetic energy (Ekin) =     0.02422770 Ry
     temperature           =  1275.08218907 K 
     Ekin + Etot (const)   =   -31.46707866 Ry
     Message from routine dynamics:
     Total linear momentum <> 0

     Linear momentum :    0.0810368978   -0.2781445226    0.5628168367

     Writing output data file pwscf.save

     second order wave-functions extrapolation
     Check: negative starting charge=   -0.345982
     second order charge density extrapolation
     Check: negative starting charge=   -0.346167

     negative rho (up, down):  5.426E-02 0.000E+00

     total cpu time spent up to now is        4.5 secs

     per-process dynamical memory:    20.4 Mb

     Self-consistent Calculation

     iteration #  1     ecut=    30.00 Ry     beta=0.70
     Davidson diagonalization with overlap
     c_bands:  1 eigenvalues not converged
     ethr =  1.00E-06,  avg # of iterations = 20.0

     negative rho (up, down):  1.250E-02 0.000E+00

     total cpu time spent up to now is        4.6 secs

     total energy              =     -31.43882849 Ry
     Harris-Foulkes estimate   =     -31.44306592 Ry
     estimated scf accuracy    <       0.05091638 Ry

     iteration #  2     ecut=    30.00 Ry     beta=0.70
     Davidson diagonalization with overlap
     ethr =  6.36E-04,  avg # of iterations =  2.0

     negative rho (up, down):  1.145E-02 0.000E+00

     total cpu time spent up to now is        4.6 secs

     total energy              =     -31.48489623 Ry
     Harris-Foulkes estimate   =     -31.98263213 Ry
     estimated scf accuracy    <       4.33841478 Ry

     iteration #  3     ecut=    30.00 Ry     beta=0.70
     Davidson diagonalization with overlap
     ethr =  6.36E-04,  avg # of iterations =  2.0

     negative rho (up, down):  1.112E-02 0.000E+00

     total cpu time spent up to now is        4.6 secs

     total energy              =     -31.47841205 Ry
     Harris-Foulkes estimate   =     -31.51983479 Ry
     estimated scf accuracy    <       1.15963271 Ry

     iteration #  4     ecut=    30.00 Ry     beta=0.70
     Davidson diagonalization with overlap
     ethr =  6.36E-04,  avg # of iterations =  1.0

     negative rho (up, down):  8.811E-03 0.000E+00

     total cpu time spent up to now is        4.7 secs

     total energy              =     -31.42934730 Ry
     Harris-Foulkes estimate   =     -31.49035771 Ry
     estimated scf accuracy    <       1.02236877 Ry

     iteration #  5     ecut=    30.00 Ry     beta=0.70
     Davidson diagonalization with overlap
     ethr =  6.36E-04,  avg # of iterations =  1.0

     negative rho (up, down):  1.997E-03 0.000E+00

     total cpu time spent up to now is        4.7 secs

     total energy              =     -31.46254000 Ry
     Harris-Foulkes estimate   =     -31.52275004 Ry
     estimated scf accuracy    <       2.19540972 Ry

     iteration #  6     ecut=    30.00 Ry     beta=0.70
     Davidson diagonalization with overlap
     ethr =  6.36E-04,  avg # of iterations =  3.0

     negative rho (up, down):  3.712E-04 0.000E+00

     total cpu time spent up to now is        4.7 secs

     total energy              =     -31.49066609 Ry
     Harris-Foulkes estimate   =     -31.49039927 Ry
     estimated scf accuracy    <       0.01890468 Ry

     iteration #  7     ecut=    30.00 Ry     beta=0.70
     Davidson diagonalization with overlap
     ethr =  2.36E-04,  avg # of iterations =  4.0

     negative rho (up, down):  1.468E-04 0.000E+00

     total cpu time spent up to now is        4.8 secs

     total energy              =     -31.49162030 Ry
     Harris-Foulkes estimate   =     -31.49137405 Ry
     estimated scf accuracy    <       0.02031850 Ry

     iteration #  8     ecut=    30.00 Ry     beta=0.70
     Davidson diagonalization with overlap
     ethr =  2.36E-04,  avg # of iterations =  1.0

     negative rho (up, down):  2.260E-06 0.000E+00

     total cpu time spent up to now is        4.8 secs

     total energy              =     -31.49056348 Ry
     Harris-Foulkes estimate   =     -31.49170013 Ry
     estimated scf accuracy    <       0.05321330 Ry

     iteration #  9     ecut=    30.00 Ry     beta=0.70
     Davidson diagonalization with overlap
     ethr =  2.36E-04,  avg # of iterations =  1.0

     total cpu time spent up to now is        4.8 secs

     total energy              =     -31.49121847 Ry
     Harris-Foulkes estimate   =     -31.49121396 Ry
     estimated scf accuracy    <       0.00121747 Ry

     iteration # 10     ecut=    30.00 Ry     beta=0.70
     Davidson diagonalization with overlap
     ethr =  1.52E-05,  avg # of iterations =  9.0

     total cpu time spent up to now is        4.9 secs

     total energy              =     -31.49123832 Ry
     Harris-Foulkes estimate   =     -31.49124563 Ry
     estimated scf accuracy    <       0.00440494 Ry

     iteration # 11     ecut=    30.00 Ry     beta=0.70
     Davidson diagonalization with overlap
     ethr =  1.52E-05,  avg # of iterations =  1.0

     total cpu time spent up to now is        4.9 secs

     total energy              =     -31.49110316 Ry
     Harris-Foulkes estimate   =     -31.49123893 Ry
     estimated scf accuracy    <       0.00382992 Ry

     iteration # 12     ecut=    30.00 Ry     beta=0.70
     Davidson diagonalization with overlap
     ethr =  1.52E-05,  avg # of iterations =  1.0

     total cpu time spent up to now is        4.9 secs

     total energy              =     -31.49118657 Ry
     Harris-Foulkes estimate   =     -31.49123096 Ry
     estimated scf accuracy    <       0.00266946 Ry

     iteration # 13     ecut=    30.00 Ry     beta=0.70
     Davidson diagonalization with overlap
     ethr =  1.52E-05,  avg # of iterations =  1.0

     total cpu time spent up to now is        5.0 secs

     total energy              =     -31.49120089 Ry
     Harris-Foulkes estimate   =     -31.49120338 Ry
     estimated scf accuracy    <       0.00014807 Ry

     iteration # 14     ecut=    30.00 Ry     beta=0.70
     Davidson diagonalization with overlap
     ethr =  1.85E-06,  avg # of iterations =  1.0

     total cpu time spent up to now is        5.0 secs

     total energy              =     -31.49120194 Ry
     Harris-Foulkes estimate   =     -31.49120195 Ry
     estimated scf accuracy    <       0.00000412 Ry

     iteration # 15     ecut=    30.00 Ry     beta=0.70
     Davidson diagonalization with overlap
     ethr =  5.15E-08,  avg # of iterations =  1.0

     total cpu time spent up to now is        5.0 secs

     End of self-consistent calculation

          k = 0.0000 0.0000 0.0000 ( 22119 PWs)   bands (ev):

   -23.6162  -7.0426  -7.0312  -7.0286  -6.9379  -6.8970  -0.2105   0.5123

     the Fermi energy is    -6.8950 ev

!    total energy              =     -31.49120194 Ry
     Harris-Foulkes estimate   =     -31.49120198 Ry
     estimated scf accuracy    <          9.7E-09 Ry

     convergence has been achieved in  15 iterations

     Forces acting on atoms (Ry/au):

     atom    1 type  1   force =     0.00030158   -0.00019300    0.00001427
     atom    2 type  1   force =    -0.00015044    0.00000047   -0.00033826
     atom    3 type  2   force =    -0.00015114    0.00019253    0.00032400

     Total force =     0.000656     Total SCF correction =     0.000228
     SCF correction compared to forces is large: reduce conv_thr to get better values

     Entering Dynamics:    iteration =     4
                           time      =   0.0194 pico-seconds


     Andersen thermostat:    3 collisions

ATOMIC_POSITIONS (bohr)
H        9.628834796   5.355715142  10.567173655
H       18.598401406   2.032070774  10.251845860
O       15.701925542   4.207545704   2.374302771


     kinetic energy (Ekin) =     0.01455870 Ry
     temperature           =   766.21114289 K 
     Ekin + Etot (const)   =   -31.47664325 Ry
     Message from routine dynamics:
     Total linear momentum <> 0

     Linear momentum :   -0.1597010972   -0.0190976040   -0.3449759098

     Writing output data file pwscf.save

     second order wave-functions extrapolation
     Check: negative starting charge=   -0.346167
     second order charge density extrapolation
     Check: negative starting charge=   -0.346636

     negative rho (up, down):  4.352E-02 0.000E+00

     total cpu time spent up to now is        5.4 secs

     per-process dynamical memory:    20.4 Mb

     Self-consistent Calculation

     iteration #  1     ecut=    30.00 Ry     beta=0.70
     Davidson diagonalization with overlap
     ethr =  1.00E-06,  avg # of iterations = 16.0

     negative rho (up, down):  9.777E-03 0.000E+00

     total cpu time spent up to now is        5.5 secs

     total energy              =     -31.45030168 Ry
     Harris-Foulkes estimate   =     -31.44652888 Ry
     estimated scf accuracy    <       0.03823949 Ry

     iteration #  2     ecut=    30.00 Ry     beta=0.70
     Davidson diagonalization with overlap
     ethr =  4.78E-04,  avg # of iterations =  2.0

     negative rho (up, down):  9.027E-03 0.000E+00

     total cpu time spent up to now is        5.5 secs

     total energy              =     -31.48498135 Ry
     Harris-Foulkes estimate   =     -31.92272126 Ry
     estimated scf accuracy    <       4.24042441 Ry

     iteration #  3     ecut=    30.00 Ry     beta=0.70
     Davidson diagonalization with overlap
     ethr =  4.78E-04,  avg # of iterations =  2.0

     negative rho (up, down):  8.848E-03 0.000E+00

     total cpu time spent up to now is        5.5 secs

     total energy              =     -31.48151367 Ry
     Harris-Foulkes estimate   =     -31.50446393 Ry
     estimated scf accuracy    <       1.17615035 Ry

     iteration #  4     ecut=    30.00 Ry     beta=0.70
     Davidson diagonalization with overlap
     ethr =  4.78E-04,  avg # of iterations =  1.0

     negative rho (up, down):  6.173E-03 0.000E+00

     total cpu time spent up to now is        5.5 secs

     total energy              =     -31.44209885 Ry
     Harris-Foulkes estimate   =     -31.48965824 Ry
     estimated scf accuracy    <       0.77045685 Ry

     iteration #  5     ecut=    30.00 Ry     beta=0.70
     Davidson diagonalization with overlap
     ethr =  4.78E-04,  avg # of iterations =  1.0

     negative rho (up, down):  1.414E-03 0.000E+00

     total cpu time spent up to now is        5.6 secs

     total energy              =     -31.47002072 Ry
     Harris-Foulkes estimate   =     -31.52236479 Ry
     estimated scf accuracy    <       2.18198388 Ry

     iteration #  6     ecut=    30.00 Ry     beta=0.70
     Davidson diagonalization with overlap
     ethr =  4.78E-04,  avg # of iterations =  3.0

     negative rho (up, down):  1.873E-04 0.000E+00

     total cpu time spent up to now is        5.6 secs

     total energy              =     -31.49172044 Ry
     Harris-Foulkes estimate   =     -31.49086133 Ry
     estimated scf accuracy    <       0.02115566 Ry

     iteration #  7     ecut=    30.00 Ry     beta=0.70
     Davidson diagonalization with overlap
     ethr =  2.64E-04,  avg # of iterations =  1.0

     negative rho (up, down):  7.135E-05 0.000E+00

     total cpu time spent up to now is        5.6 secs

     total energy              =     -31.49169144 Ry
     Harris-Foulkes estimate   =     -31.49194663 Ry
     estimated scf accuracy    <       0.08032280 Ry

     iteration #  8     ecut=    30.00 Ry     beta=0.70
     Davidson diagonalization with overlap
     ethr =  2.64E-04,  avg # of iterations =  1.0

     negative rho (up, down):  2.611E-08 0.000E+00

     total cpu time spent up to now is        5.7 secs

     total energy              =     -31.49043714 Ry
     Harris-Foulkes estimate   =     -31.49171273 Ry
     estimated scf accuracy    <       0.05797945 Ry

     iteration #  9     ecut=    30.00 Ry     beta=0.70
     Davidson diagonalization with overlap
     ethr =  2.64E-04,  avg # of iterations =  1.0

     total cpu time spent up to now is        5.7 secs

     total energy              =     -31.49119491 Ry
     Harris-Foulkes estimate   =     -31.49116632 Ry
     estimated scf accuracy    <       0.00121437 Ry

     iteration # 10     ecut=    30.00 Ry     beta=0.70
     Davidson diagonalization with overlap
     ethr =  1.52E-05,  avg # of iterations = 12.0

     total cpu time spent up to now is        5.8 secs

     total energy              =     -31.49110057 Ry
     Harris-Foulkes estimate   =     -31.49121386 Ry
     estimated scf accuracy    <       0.00624938 Ry

     iteration # 11     ecut=    30.00 Ry     beta=0.70
     Davidson diagonalization with overlap
     ethr =  1.52E-05,  avg # of iterations =  1.0

     total cpu time spent up to now is        5.8 secs

     total energy              =     -31.49115292 Ry
     Harris-Foulkes estimate   =     -31.49115429 Ry
     estimated scf accuracy    <       0.00002124 Ry

     iteration # 12     ecut=    30.00 Ry     beta=0.70
     Davidson diagonalization with overlap
     ethr =  2.65E-07,  avg # of iterations =  1.0

     total cpu time spent up to now is        5.8 secs

     total energy              =     -31.49115150 Ry
     Harris-Foulkes estimate   =     -31.49115608 Ry
     estimated scf accuracy    <       0.00020018 Ry

     iteration # 13     ecut=    30.00 Ry     beta=0.70
     Davidson diagonalization with overlap
     ethr =  2.65E-07,  avg # of iterations =  1.0

     total cpu time spent up to now is        5.9 secs

     total energy              =     -31.49115413 Ry
     Harris-Foulkes estimate   =     -31.49115424 Ry
     estimated scf accuracy    <       0.00000666 Ry

     iteration # 14     ecut=    30.00 Ry     beta=0.70
     Davidson diagonalization with overlap
     ethr =  8.33E-08,  avg # of iterations =  1.0

     total cpu time spent up to now is        6.0 secs

     total energy              =     -31.49115418 Ry
     Harris-Foulkes estimate   =     -31.49115421 Ry
     estimated scf accuracy    <       0.00000008 Ry

     iteration # 15     ecut=    30.00 Ry     beta=0.70
     Davidson diagonalization with overlap
     ethr =  9.79E-10,  avg # of iterations =  1.0

     total cpu time spent up to now is        6.0 secs

     End of self-consistent calculation

          k = 0.0000 0.0000 0.0000 ( 22119 PWs)   bands (ev):

   -23.6144  -7.0397  -7.0289  -7.0268  -6.9352  -6.8973  -0.2133   0.5183

     the Fermi energy is    -6.8931 ev

!    total energy              =     -31.49115419 Ry
     Harris-Foulkes estimate   =     -31.49115418 Ry
     estimated scf accuracy    <          6.7E-11 Ry

     convergence has been achieved in  15 iterations

     Forces acting on atoms (Ry/au):

     atom    1 type  1   force =     0.00025694   -0.00023000   -0.00001733
     atom    2 type  1   force =    -0.00016047   -0.00007642   -0.00040621
     atom    3 type  2   force =    -0.00009647    0.00030643    0.00042354

     Total force =     0.000774     Total SCF correction =     0.000069

     Entering Dynamics:    iteration =     5
                           time      =   0.0242 pico-seconds


     Andersen thermostat:    3 collisions

ATOMIC_POSITIONS (bohr)
H        9.248849757   5.156112210  10.703739263
H       18.680349874   1.612906236  10.019873755
O       15.720739101   4.246605401   2.380325306


     kinetic energy (Ekin) =     0.02259701 Ry
     temperature           =  1189.26025563 K 
     Ekin + Etot (const)   =   -31.46855718 Ry
     Message from routine dynamics:
     Total linear momentum <> 0

     Linear momentum :    0.2152501906    0.0178928009   -0.1935591849

     Writing output data file pwscf.save

     second order wave-functions extrapolation
     Check: negative starting charge=   -0.346636
     second order charge density extrapolation
     Check: negative starting charge=   -0.347909

     negative rho (up, down):  5.345E-02 0.000E+00

     total cpu time spent up to now is        6.3 secs

     per-process dynamical memory:    20.4 Mb

     Self-consistent Calculation

     iteration #  1     ecut=    30.00 Ry     beta=0.70
     Davidson diagonalization with overlap
     c_bands:  1 eigenvalues not converged
     ethr =  1.00E-06,  avg # of iterations = 20.0

     negative rho (up, down):  1.186E-02 0.000E+00

     total cpu time spent up to now is        6.4 secs

     total energy              =     -30.73261209 Ry
     Harris-Foulkes estimate   =     -31.47789317 Ry
     estimated scf accuracy    <       0.90384347 Ry

     iteration #  2     ecut=    30.00 Ry     beta=0.70
     Davidson diagonalization with overlap
     ethr =  1.00E-02,  avg # of iterations =  2.0

     negative rho (up, down):  9.536E-03 0.000E+00

     total cpu time spent up to now is        6.5 secs

     total energy              =     -31.89541897 Ry
     Harris-Foulkes estimate   =     -33.99567536 Ry
     estimated scf accuracy    <       6.89562046 Ry

     iteration #  3     ecut=    30.00 Ry     beta=0.70
     Davidson diagonalization with overlap
     ethr =  1.00E-02,  avg # of iterations =  2.0

     negative rho (up, down):  8.542E-03 0.000E+00

     total cpu time spent up to now is        6.6 secs

     total energy              =     -31.60528711 Ry
     Harris-Foulkes estimate   =     -32.00853299 Ry
     estimated scf accuracy    <       3.42745257 Ry

     iteration #  4     ecut=    30.00 Ry     beta=0.70
     Davidson diagonalization with overlap
     ethr =  1.00E-02,  avg # of iterations =  1.0

     negative rho (up, down):  7.602E-03 0.000E+00

     total cpu time spent up to now is        6.6 secs

     total energy              =     -31.32589248 Ry
     Harris-Foulkes estimate   =     -31.60913534 Ry
     estimated scf accuracy    <       2.79907547 Ry

     iteration #  5     ecut=    30.00 Ry     beta=0.70
     Davidson diagonalization with overlap
     ethr =  1.00E-02,  avg # of iterations =  1.0

     negative rho (up, down):  1.962E-03 0.000E+00

     total cpu time spent up to now is        6.7 secs

     total energy              =     -31.44653366 Ry
     Harris-Foulkes estimate   =     -31.60591905 Ry
     estimated scf accuracy    <       4.21859217 Ry

     iteration #  6     ecut=    30.00 Ry     beta=0.70
     Davidson diagonalization with overlap
     ethr =  1.00E-02,  avg # of iterations =  1.0

     negative rho (up, down):  2.571E-03 0.000E+00

     total cpu time spent up to now is        6.7 secs

     total energy              =     -31.50162056 Ry
     Harris-Foulkes estimate   =     -31.51233768 Ry
     estimated scf accuracy    <       0.81987883 Ry

     iteration #  7     ecut=    30.00 Ry     beta=0.70
     Davidson diagonalization with overlap
     ethr =  1.00E-02,  avg # of iterations =  1.0

     negative rho (up, down):  2.509E-03 0.000E+00

     total cpu time spent up to now is        6.8 secs

     total energy              =     -31.49684743 Ry
     Harris-Foulkes estimate   =     -31.50286986 Ry
     estimated scf accuracy    <       0.51002219 Ry

     iteration #  8     ecut=    30.00 Ry     beta=0.70
     Davidson diagonalization with overlap
     ethr =  6.38E-03,  avg # of iterations =  1.0

     negative rho (up, down):  3.544E-04 0.000E+00

     total cpu time spent up to now is        6.8 secs

     total energy              =     -31.45984662 Ry
     Harris-Foulkes estimate   =     -31.50015561 Ry
     estimated scf accuracy    <       0.49097172 Ry

     iteration #  9     ecut=    30.00 Ry     beta=0.70
     Davidson diagonalization with overlap
     ethr =  6.14E-03,  avg # of iterations =  1.0

     negative rho (up, down):  1.690E-04 0.000E+00

     total cpu time spent up to now is        6.9 secs

     total energy              =     -31.50621912 Ry
     Harris-Foulkes estimate   =     -31.55305030 Ry
     estimated scf accuracy    <       4.57619785 Ry

     iteration # 10     ecut=    30.00 Ry     beta=0.70
     Davidson diagonalization with overlap
     ethr =  6.14E-03,  avg # of iterations =  1.0

     negative rho (up, down):  8.433E-05 0.000E+00

     total cpu time spent up to now is        6.9 secs

     total energy              =     -31.42641291 Ry
     Harris-Foulkes estimate   =     -31.51218409 Ry
     estimated scf accuracy    <       2.14434461 Ry

     iteration # 11     ecut=    30.00 Ry     beta=0.70
     Davidson diagonalization with overlap
     ethr =  6.14E-03,  avg # of iterations =  1.0

     negative rho (up, down):  1.226E-05 0.000E+00

     total cpu time spent up to now is        7.0 secs

     total energy              =     -31.44576857 Ry
     Harris-Foulkes estimate   =     -31.51345143 Ry
     estimated scf accuracy    <       1.62773044 Ry

     iteration # 12     ecut=    30.00 Ry     beta=0.70
     Davidson diagonalization with overlap
     ethr =  6.14E-03,  avg # of iterations =  1.0

     negative rho (up, down):  2.917E-08 0.000E+00

     total cpu time spent up to now is        7.0 secs

     total energy              =     -31.46995260 Ry
     Harris-Foulkes estimate   =     -31.50490067 Ry
     estimated scf accuracy    <       1.44250180 Ry

     iteration # 13     ecut=    30.00 Ry     beta=0.70
     Davidson diagonalization with overlap
     ethr =  6.14E-03,  avg # of iterations =  1.0

     total cpu time spent up to now is        7.1 secs

     total energy              =     -31.49276109 Ry
     Harris-Foulkes estimate   =     -31.49255310 Ry
     estimated scf accuracy    <       0.13100969 Ry

     iteration # 14     ecut=    30.00 Ry     beta=0.70
     Davidson diagonalization with overlap
     ethr =  1.64E-03,  avg # of iterations =  1.0

     negative rho (up, down):  2.600E-06 0.000E+00

     total cpu time spent up to now is        7.1 secs

     total energy              =     -31.49016092 Ry
     Harris-Foulkes estimate   =     -31.49277303 Ry
     estimated scf accuracy    <       0.14915012 Ry

     iteration # 15     ecut=    30.00 Ry     beta=0.70
     Davidson diagonalization with overlap
     ethr =  1.64E-03,  avg # of iterations =  1.0

     negative rho (up, down):  4.986E-07 0.000E+00

     total cpu time spent up to now is        7.2 secs

     total energy              =     -31.49104226 Ry
     Harris-Foulkes estimate   =     -31.49120145 Ry
     estimated scf accuracy    <       0.00524868 Ry

     iteration # 16     ecut=    30.00 Ry     beta=0.70
     Davidson diagonalization with overlap
     ethr =  6.56E-05,  avg # of iterations =  3.0

     negative rho (up, down):  1.026E-06 0.000E+00

     total cpu time spent up to now is        7.2 secs

     total energy              =     -31.49115200 Ry
     Harris-Foulkes estimate   =     -31.49117560 Ry
     estimated scf accuracy    <       0.00203928 Ry

     iteration # 17     ecut=    30.00 Ry     beta=0.70
     Davidson diagonalization with overlap
     ethr =  2.55E-05,  avg # of iterations =  4.0

     negative rho (up, down):  6.437E-08 0.000E+00

     total cpu time spent up to now is        7.3 secs

     total energy              =     -31.49116384 Ry
     Harris-Foulkes estimate   =     -31.49116015 Ry
     estimated scf accuracy    <       0.00043479 Ry

     iteration # 18     ecut=    30.00 Ry     beta=0.70
     Davidson diagonalization with overlap
     ethr =  5.43E-06,  avg # of iterations =  4.0

     total cpu time spent up to now is        7.3 secs

     total energy              =     -31.49112814 Ry
     Harris-Foulkes estimate   =     -31.49117127 Ry
     estimated scf accuracy    <       0.00159423 Ry

     iteration # 19     ecut=    30.00 Ry     beta=0.70
     Davidson diagonalization with overlap
     ethr =  5.43E-06,  avg # of iterations =  1.0

     total cpu time spent up to now is        7.4 secs

     total energy              =     -31.49115452 Ry
     Harris-Foulkes estimate   =     -31.49115841 Ry
     estimated scf accuracy    <       0.00027783 Ry

     iteration # 20     ecut=    30.00 Ry     beta=0.70
     Davidson diagonalization with overlap
     ethr =  3.47E-06,  avg # of iterations =  1.0

     total cpu time spent up to now is        7.4 secs

     total energy              =     -31.49115560 Ry
     Harris-Foulkes estimate   =     -31.49115588 Ry
     estimated scf accuracy    <       0.00002251 Ry

     iteration # 21     ecut=    30.00 Ry     beta=0.70
     Davidson diagonalization with overlap
     ethr =  2.81E-07,  avg # of iterations =  1.0

     total cpu time spent up to now is        7.4 secs

     total energy              =     -31.49115603 Ry
     Harris-Foulkes estimate   =     -31.49115586 Ry
     estimated scf accuracy    <       0.00000121 Ry

     iteration # 22     ecut=    30.00 Ry     beta=0.70
     Davidson diagonalization with overlap
     ethr =  1.52E-08,  avg # of iterations =  1.0

     total cpu time spent up to now is        7.5 secs

     total energy              =     -31.49115585 Ry
     Harris-Foulkes estimate   =     -31.49115611 Ry
     estimated scf accuracy    <       0.00000233 Ry

     iteration # 23     ecut=    30.00 Ry     beta=0.70
     Davidson diagonalization with overlap
     ethr =  1.52E-08,  avg # of iterations =  1.0

     total cpu time spent up to now is        7.5 secs

     total energy              =     -31.49115489 Ry
     Harris-Foulkes estimate   =     -31.49115624 Ry
     estimated scf accuracy    <       0.00004868 Ry

     iteration # 24     ecut=    30.00 Ry     beta=0.70
     Davidson diagonalization with overlap
     ethr =  1.52E-08,  avg # of iterations =  1.0

     total cpu time spent up to now is        7.5 secs

     total energy              =     -31.49115535 Ry
     Harris-Foulkes estimate   =     -31.49115546 Ry
     estimated scf accuracy    <       0.00000001 Ry

     iteration # 25     ecut=    30.00 Ry     beta=0.70
     Davidson diagonalization with overlap
     ethr =  1.54E-10,  avg # of iterations =  2.0

     total cpu time spent up to now is        7.6 secs

     End of self-consistent calculation

          k = 0.0000 0.0000 0.0000 ( 22119 PWs)   bands (ev):

   -23.6127  -7.0387  -7.0264  -7.0252  -6.9304  -6.8986  -0.2157   0.5184

     the Fermi energy is    -6.8913 ev

!    total energy              =     -31.49115527 Ry
     Harris-Foulkes estimate   =     -31.49115536 Ry
     estimated scf accuracy    <          4.7E-09 Ry

     convergence has been achieved in  25 iterations

     Forces acting on atoms (Ry/au):

     atom    1 type  1   force =     0.00025516   -0.00020089    0.00004587
     atom    2 type  1   force =    -0.00011101   -0.00001066   -0.00034788
     atom    3 type  2   force =    -0.00014415    0.00021155    0.00030201

     Total force =     0.000631     Total SCF correction =     0.000101
     SCF correction compared to forces is large: reduce conv_thr to get better values

     Entering Dynamics:    iteration =     6
                           time      =   0.0290 pico-seconds


     Andersen thermostat:    3 collisions

ATOMIC_POSITIONS (bohr)
H        9.367285789   5.017000191  10.696593929
H       18.527300306   1.429483726   9.833072442
O       15.722924080   4.266965393   2.392568188


     kinetic energy (Ekin) =     0.00874748 Ry
     temperature           =   460.37212567 K 
     Ekin + Etot (const)   =   -31.48240779 Ry
     Message from routine dynamics:
     Total linear momentum <> 0

     Linear momentum :    0.2894665819   -0.0770705116   -0.3559207923

     Writing output data file pwscf.save

     second order wave-functions extrapolation
     Check: negative starting charge=   -0.347909
     second order charge density extrapolation
     Check: negative starting charge=   -0.347944

     negative rho (up, down):  3.602E-02 0.000E+00

     total cpu time spent up to now is        7.9 secs

     per-process dynamical memory:    20.4 Mb

     Self-consistent Calculation

     iteration #  1     ecut=    30.00 Ry     beta=0.70
     Davidson diagonalization with overlap
     c_bands:  1 eigenvalues not converged
     ethr =  1.00E-06,  avg # of iterations = 20.0

     negative rho (up, down):  7.939E-03 0.000E+00

     total cpu time spent up to now is        8.0 secs

     total energy              =     -31.47388341 Ry
     Harris-Foulkes estimate   =     -31.45601435 Ry
     estimated scf accuracy    <       0.01231595 Ry

     iteration #  2     ecut=    30.00 Ry     beta=0.70
     Davidson diagonalization with overlap
     ethr =  1.54E-04,  avg # of iterations =  3.0

     negative rho (up, down):  7.571E-03 0.000E+00

     total cpu time spent up to now is        8.0 secs

     total energy              =     -31.46543664 Ry
     Harris-Foulkes estimate   =     -31.70691891 Ry
     estimated scf accuracy    <       3.87480485 Ry

     iteration #  3     ecut=    30.00 Ry     beta=0.70
     Davidson diagonalization with overlap
     ethr =  1.54E-04,  avg # of iterations =  2.0

     negative rho (up, down):  7.372E-03 0.000E+00

     total cpu time spent up to now is        8.0 secs

     total energy              =     -31.47559211 Ry
     Harris-Foulkes estimate   =     -31.49778547 Ry
     estimated scf accuracy    <       0.66553208 Ry

     iteration #  4     ecut=    30.00 Ry     beta=0.70
     Davidson diagonalization with overlap
     ethr =  1.54E-04,  avg # of iterations =  1.0

     negative rho (up, down):  1.329E-03 0.000E+00

     total cpu time spent up to now is        8.1 secs

     total energy              =     -31.48565381 Ry
     Harris-Foulkes estimate   =     -31.48509342 Ry
     estimated scf accuracy    <       0.07738586 Ry

     iteration #  5     ecut=    30.00 Ry     beta=0.70
     Davidson diagonalization with overlap
     ethr =  1.54E-04,  avg # of iterations =  5.0

     negative rho (up, down):  6.814E-04 0.000E+00

     total cpu time spent up to now is        8.1 secs

     total energy              =     -31.48520537 Ry
     Harris-Foulkes estimate   =     -31.49695817 Ry
     estimated scf accuracy    <       0.53573847 Ry

     iteration #  6     ecut=    30.00 Ry     beta=0.70
     Davidson diagonalization with overlap
     ethr =  1.54E-04,  avg # of iterations =  1.0

     negative rho (up, down):  5.205E-05 0.000E+00

     total cpu time spent up to now is        8.2 secs

     total energy              =     -31.49119783 Ry
     Harris-Foulkes estimate   =     -31.49122090 Ry
     estimated scf accuracy    <       0.00145357 Ry

     iteration #  7     ecut=    30.00 Ry     beta=0.70
     Davidson diagonalization with overlap
     ethr =  1.82E-05,  avg # of iterations =  9.0

     negative rho (up, down):  2.007E-07 0.000E+00

     total cpu time spent up to now is        8.2 secs

     total energy              =     -31.49121766 Ry
     Harris-Foulkes estimate   =     -31.49128479 Ry
     estimated scf accuracy    <       0.00315861 Ry

     iteration #  8     ecut=    30.00 Ry     beta=0.70
     Davidson diagonalization with overlap
     ethr =  1.82E-05,  avg # of iterations =  1.0

     negative rho (up, down):  9.842E-08 0.000E+00

     total cpu time spent up to now is        8.3 secs

     total energy              =     -31.49126060 Ry
     Harris-Foulkes estimate   =     -31.49127509 Ry
     estimated scf accuracy    <       0.00038353 Ry

     iteration #  9     ecut=    30.00 Ry     beta=0.70
     Davidson diagonalization with overlap
     ethr =  4.79E-06,  avg # of iterations =  1.0

     total cpu time spent up to now is        8.3 secs

     total energy              =     -31.49126926 Ry
     Harris-Foulkes estimate   =     -31.49127552 Ry
     estimated scf accuracy    <       0.00036829 Ry

     iteration # 10     ecut=    30.00 Ry     beta=0.70
     Davidson diagonalization with overlap
     ethr =  4.60E-06,  avg # of iterations =  1.0

     total cpu time spent up to now is        8.4 secs

     total energy              =     -31.49127291 Ry
     Harris-Foulkes estimate   =     -31.49127292 Ry
     estimated scf accuracy    <       0.00000281 Ry

     iteration # 11     ecut=    30.00 Ry     beta=0.70
     Davidson diagonalization with overlap
     ethr =  3.52E-08,  avg # of iterations =  1.0

     total cpu time spent up to now is        8.4 secs

     total energy              =     -31.49127295 Ry
     Harris-Foulkes estimate   =     -31.49127293 Ry
     estimated scf accuracy    <       0.00000071 Ry

     iteration # 12     ecut=    30.00 Ry     beta=0.70
     Davidson diagonalization with overlap
     ethr =  8.84E-09,  avg # of iterations =  1.0

     total cpu time spent up to now is        8.4 secs

     total energy              =     -31.49127293 Ry
     Harris-Foulkes estimate   =     -31.49127297 Ry
     estimated scf accuracy    <       0.00000089 Ry

     iteration # 13     ecut=    30.00 Ry     beta=0.70
     Davidson diagonalization with overlap
     ethr =  8.84E-09,  avg # of iterations =  1.0

     total cpu time spent up to now is        8.5 secs

     total energy              =     -31.49127294 Ry
     Harris-Foulkes estimate   =     -31.49127295 Ry
     estimated scf accuracy    <       0.00000014 Ry

     iteration # 14     ecut=    30.00 Ry     beta=0.70
     Davidson diagonalization with overlap
     ethr =  1.72E-09,  avg # of iterations =  1.0

     total cpu time spent up to now is        8.5 secs

     End of self-consistent calculation

          k = 0.0000 0.0000 0.0000 ( 22119 PWs)   bands (ev):

   -23.6122  -7.0407  -7.0262  -7.0252  -6.9299  -6.8961  -0.2134   0.5241

     the Fermi energy is    -6.8911 ev

!    total energy              =     -31.49127295 Ry
     Harris-Foulkes estimate   =     -31.49127294 Ry
     estimated scf accuracy    <          5.0E-09 Ry

     convergence has been achieved in  14 iterations

     Forces acting on atoms (Ry/au):

     atom    1 type  1   force =     0.00029683   -0.00019935    0.00007113
     atom    2 type  1   force =    -0.00018059    0.00014671   -0.00050477
     atom    3 type  2   force =    -0.00011625    0.00005264    0.00043364

     Total force =     0.000804     Total SCF correction =     0.000051

     Entering Dynamics:    iteration =     7
                           time      =   0.0339 pico-seconds


     Andersen thermostat:    3 collisions

ATOMIC_POSITIONS (bohr)
H        9.194012401   4.892315004  10.633970251
H       18.274488498   1.499363001  10.270465035
O       15.749820708   4.270425016   2.368910900


     kinetic energy (Ekin) =     0.01913060 Ry
     temperature           =  1006.82638954 K 
     Ekin + Etot (const)   =   -31.47214235 Ry
     Message from routine dynamics:
     Total linear momentum <> 0

     Linear momentum :   -0.3139431756   -0.2290782752    0.4044191006

     Writing output data file pwscf.save

     second order wave-functions extrapolation
     Check: negative starting charge=   -0.347944
     second order charge density extrapolation
     Check: negative starting charge=   -0.347916

     negative rho (up, down):  6.655E-02 0.000E+00

     total cpu time spent up to now is        8.8 secs

     per-process dynamical memory:    20.4 Mb

     Self-consistent Calculation

     iteration #  1     ecut=    30.00 Ry     beta=0.70
     Davidson diagonalization with overlap
     c_bands:  1 eigenvalues not converged
     ethr =  1.00E-06,  avg # of iterations = 20.0

     negative rho (up, down):  1.528E-02 0.000E+00

     total cpu time spent up to now is        9.0 secs

     total energy              =     -31.45644196 Ry
     Harris-Foulkes estimate   =     -31.43683198 Ry
     estimated scf accuracy    <       0.02622998 Ry

     iteration #  2     ecut=    30.00 Ry     beta=0.70
     Davidson diagonalization with overlap
     ethr =  3.28E-04,  avg # of iterations =  2.0

     negative rho (up, down):  1.436E-02 0.000E+00

     total cpu time spent up to now is        9.0 secs

     total energy              =     -31.46097456 Ry
     Harris-Foulkes estimate   =     -31.80169821 Ry
     estimated scf accuracy    <       4.05223785 Ry

[...]
     Harris-Foulkes estimate   =     -85.08548693 Ry
     estimated scf accuracy    <      41.62993055 Ry

     iteration # 59     ecut=    30.00 Ry     beta=0.70
     Davidson diagonalization with overlap
     ethr =  1.00E-02,  avg # of iterations =  4.0

     negative rho (up, down):  3.238E-03 0.000E+00

     total cpu time spent up to now is       15.2 secs

     total energy              =     -80.06354053 Ry
     Harris-Foulkes estimate   =     -80.10958465 Ry
     estimated scf accuracy    <      64.63325536 Ry

     iteration # 60     ecut=    30.00 Ry     beta=0.70
     Davidson diagonalization with overlap
     ethr =  1.00E-02,  avg # of iterations =  1.0

     negative rho (up, down):  1.477E-01 0.000E+00

     total cpu time spent up to now is       15.2 secs

     total energy              =     455.32589010 Ry
     Harris-Foulkes estimate   =     -80.06359765 Ry
     estimated scf accuracy    <      64.56651792 Ry

     iteration # 61     ecut=    30.00 Ry     beta=0.70
     Davidson diagonalization with overlap
     ethr =  1.00E-02,  avg # of iterations =  5.0

     negative rho (up, down):  1.455E-01 0.000E+00

     total cpu time spent up to now is       15.3 secs

     total energy              =    -120.11214381 Ry
     Harris-Foulkes estimate   =    -215.40142386 Ry
     estimated scf accuracy    <      80.85010883 Ry

     iteration # 62     ecut=    30.00 Ry     beta=0.70
     Davidson diagonalization with overlap
     ethr =  1.00E-02,  avg # of iterations =  7.0

     negative rho (up, down):  3.896E-01 0.000E+00

     total cpu time spent up to now is       15.4 secs

     total energy              =    -170.46527935 Ry
     Harris-Foulkes estimate   =    -253.12660720 Ry
     estimated scf accuracy    <      48.48965815 Ry

     iteration # 63     ecut=    30.00 Ry     beta=0.70
     Davidson diagonalization with overlap
     ethr =  1.00E-02,  avg # of iterations =  4.0

     negative rho (up, down):  7.988E-01 0.000E+00

     total cpu time spent up to now is       15.4 secs

     total energy              =    -201.48838768 Ry
     Harris-Foulkes estimate   =    -552.91989877 Ry
     estimated scf accuracy    <      81.88467513 Ry

     iteration # 64     ecut=    30.00 Ry     beta=0.70
     Davidson diagonalization with overlap
     ethr =  1.00E-02,  avg # of iterations =  8.0

     negative rho (up, down):  1.333E+00 0.000E+00

     total cpu time spent up to now is       15.5 secs

     total energy              =    -658.42522117 Ry
     Harris-Foulkes estimate   =   -1597.26781135 Ry
     estimated scf accuracy    <      87.29485350 Ry

     iteration # 65     ecut=    30.00 Ry     beta=0.70
     Davidson diagonalization with overlap
     ethr =  1.00E-02,  avg # of iterations =  7.0

     negative rho (up, down):  1.727E+00 0.000E+00

     total cpu time spent up to now is       15.5 secs

     total energy              =      21.55536806 Ry
     Harris-Foulkes estimate   =   -3593.51117218 Ry
     estimated scf accuracy    <      95.11835116 Ry

     iteration # 66     ecut=    30.00 Ry     beta=0.70
     Davidson diagonalization with overlap
     ethr =  1.00E-02,  avg # of iterations =  9.0

     negative rho (up, down):  1.449E+00 0.000E+00

     total cpu time spent up to now is       15.6 secs

     total energy              =      -4.27659078 Ry
     Harris-Foulkes estimate   =  -26755.16033605 Ry
     estimated scf accuracy    <      49.26687574 Ry

     iteration # 67     ecut=    30.00 Ry     beta=0.70
     Davidson diagonalization with overlap
     ethr =  1.00E-02,  avg # of iterations =  8.0

     negative rho (up, down):  1.724E+00 0.000E+00

     total cpu time spent up to now is       15.6 secs

     total energy              =   -2517.64834094 Ry
     Harris-Foulkes estimate   =   -2216.81897872 Ry
     estimated scf accuracy    <      65.35539097 Ry

     iteration # 68     ecut=    30.00 Ry     beta=0.70
     Davidson diagonalization with overlap
     ethr =  1.00E-02,  avg # of iterations = 11.0

     negative rho (up, down):  1.595E+00 0.000E+00

     total cpu time spent up to now is       15.7 secs

     total energy              =      10.68589332 Ry
     Harris-Foulkes estimate   =  -10787.52583545 Ry
     estimated scf accuracy    <      36.55409131 Ry

     iteration # 69     ecut=    30.00 Ry     beta=0.70
     Davidson diagonalization with overlap
     ethr =  1.00E-02,  avg # of iterations =  8.0

     negative rho (up, down):  1.960E+00 0.000E+00

     total cpu time spent up to now is       15.8 secs

     total energy              =  -26797.52657074 Ry
     Harris-Foulkes estimate   =   -2491.39781408 Ry
     estimated scf accuracy    <      41.70850309 Ry

     iteration # 70     ecut=    30.00 Ry     beta=0.70
     Davidson diagonalization with overlap
     ethr =  1.00E-02,  avg # of iterations = 10.0

     negative rho (up, down):  2.066E+00 0.000E+00

     total cpu time spent up to now is       15.8 secs

     total energy              =     -56.95219670 Ry
     Harris-Foulkes estimate   =  -49553.12184055 Ry
     estimated scf accuracy    <      41.39329375 Ry

     iteration # 71     ecut=    30.00 Ry     beta=0.70
     Davidson diagonalization with overlap
     ethr =  1.00E-02,  avg # of iterations =  7.0

     negative rho (up, down):  1.090E+00 0.000E+00

     total cpu time spent up to now is       15.9 secs

     total energy              =     -64.31402108 Ry
     Harris-Foulkes estimate   =   -8927.24354199 Ry
     estimated scf accuracy    <      28.06980005 Ry

     iteration # 72     ecut=    30.00 Ry     beta=0.70
     Davidson diagonalization with overlap
     ethr =  1.00E-02,  avg # of iterations = 10.0

     negative rho (up, down):  1.191E+00 0.000E+00

     total cpu time spent up to now is       15.9 secs

     total energy              =      38.84096289 Ry
     Harris-Foulkes estimate   =   -7956.84869227 Ry
     estimated scf accuracy    <      29.99239112 Ry

     iteration # 73     ecut=    30.00 Ry     beta=0.70
     Davidson diagonalization with overlap
     ethr =  1.00E-02,  avg # of iterations =  8.0

     negative rho (up, down):  1.256E+00 0.000E+00

     total cpu time spent up to now is       16.0 secs

     total energy              =      24.84015441 Ry
     Harris-Foulkes estimate   =   -2308.06226900 Ry
     estimated scf accuracy    <      30.77626884 Ry

     iteration # 74     ecut=    30.00 Ry     beta=0.70
     Davidson diagonalization with overlap
     ethr =  1.00E-02,  avg # of iterations = 10.0

     negative rho (up, down):  1.194E+00 0.000E+00

     total cpu time spent up to now is       16.1 secs

     total energy              =    -145.89869285 Ry
     Harris-Foulkes estimate   =   -1528.45023194 Ry
     estimated scf accuracy    <      31.30448124 Ry

     iteration # 75     ecut=    30.00 Ry     beta=0.70
     Davidson diagonalization with overlap
     ethr =  1.00E-02,  avg # of iterations = 13.0

     negative rho (up, down):  1.065E+00 0.000E+00

     total cpu time spent up to now is       16.1 secs

     total energy              =    -134.80291176 Ry
     Harris-Foulkes estimate   =   -1824.91169402 Ry
     estimated scf accuracy    <      26.59440731 Ry

     iteration # 76     ecut=    30.00 Ry     beta=0.70
     Davidson diagonalization with overlap
     ethr =  1.00E-02,  avg # of iterations =  9.0

     negative rho (up, down):  1.061E-01 0.000E+00

     total cpu time spent up to now is       16.2 secs

     total energy              =      71.60908521 Ry
     Harris-Foulkes estimate   =   -5638.40609082 Ry
     estimated scf accuracy    <      18.51185312 Ry

     iteration # 77     ecut=    30.00 Ry     beta=0.70
     Davidson diagonalization with overlap
     ethr =  1.00E-02,  avg # of iterations =  7.0

     negative rho (up, down):  6.598E-02 0.000E+00

     total cpu time spent up to now is       16.3 secs

     total energy              =      61.68054841 Ry
     Harris-Foulkes estimate   =    -438.80640952 Ry
     estimated scf accuracy    <      35.78961625 Ry

     iteration # 78     ecut=    30.00 Ry     beta=0.70
     Davidson diagonalization with overlap
     ethr =  1.00E-02,  avg # of iterations =  6.0

     negative rho (up, down):  4.914E-02 0.000E+00

     total cpu time spent up to now is       16.3 secs

     total energy              =      65.97057962 Ry
     Harris-Foulkes estimate   =    -505.19813209 Ry
     estimated scf accuracy    <      19.05248009 Ry

     iteration # 79     ecut=    30.00 Ry     beta=0.70
     Davidson diagonalization with overlap
     ethr =  1.00E-02,  avg # of iterations = 13.0

     negative rho (up, down):  1.824E-02 0.000E+00

     total cpu time spent up to now is       16.4 secs

     total energy              =      39.99294792 Ry
     Harris-Foulkes estimate   =    -236.18067404 Ry
     estimated scf accuracy    <      22.31501586 Ry

     iteration # 80     ecut=    30.00 Ry     beta=0.70
     Davidson diagonalization with overlap
     ethr =  1.00E-02,  avg # of iterations =  7.0

     negative rho (up, down):  6.675E-03 0.000E+00

     total cpu time spent up to now is       16.4 secs

     total energy              =      -7.27200301 Ry
     Harris-Foulkes estimate   =     -60.85288952 Ry
     estimated scf accuracy    <      13.56410038 Ry

     iteration # 81     ecut=    30.00 Ry     beta=0.70
     Davidson diagonalization with overlap
     ethr =  1.00E-02,  avg # of iterations =  5.0

     negative rho (up, down):  5.578E-03 0.000E+00

     total cpu time spent up to now is       16.5 secs

     total energy              =     -32.86967782 Ry
     Harris-Foulkes estimate   =     -34.14160485 Ry
     estimated scf accuracy    <       6.62195791 Ry

     iteration # 82     ecut=    30.00 Ry     beta=0.70
     Davidson diagonalization with overlap
     ethr =  1.00E-02,  avg # of iterations =  2.0

     negative rho (up, down):  4.130E-03 0.000E+00

     total cpu time spent up to now is       16.5 secs

     total energy              =     -31.86353327 Ry
     Harris-Foulkes estimate   =     -32.93843668 Ry
     estimated scf accuracy    <       4.41665995 Ry

     iteration # 83     ecut=    30.00 Ry     beta=0.70
     Davidson diagonalization with overlap
     ethr =  1.00E-02,  avg # of iterations =  2.0

     negative rho (up, down):  9.008E-03 0.000E+00

     total cpu time spent up to now is       16.5 secs

     total energy              =     -35.60530818 Ry
     Harris-Foulkes estimate   =     -32.97610772 Ry
     estimated scf accuracy    <       6.73175850 Ry

     iteration # 84     ecut=    30.00 Ry     beta=0.70
     Davidson diagonalization with overlap
     ethr =  1.00E-02,  avg # of iterations =  4.0

     negative rho (up, down):  2.639E-02 0.000E+00

     total cpu time spent up to now is       16.6 secs

     total energy              =      15.43871506 Ry
     Harris-Foulkes estimate   =    -284.49162595 Ry
     estimated scf accuracy    <      17.04670263 Ry

     iteration # 85     ecut=    30.00 Ry     beta=0.70
     Davidson diagonalization with overlap
     ethr =  1.00E-02,  avg # of iterations =  4.0

     negative rho (up, down):  2.860E-02 0.000E+00

     total cpu time spent up to now is       16.6 secs

     total energy              =     -88.61282590 Ry
     Harris-Foulkes estimate   =     -78.79141742 Ry
     estimated scf accuracy    <      15.33716305 Ry

     iteration # 86     ecut=    30.00 Ry     beta=0.70
     Davidson diagonalization with overlap
     ethr =  1.00E-02,  avg # of iterations =  5.0

     negative rho (up, down):  3.247E-02 0.000E+00

     total cpu time spent up to now is       16.7 secs

     total energy              =     -60.79885918 Ry
     Harris-Foulkes estimate   =   -1295.69016867 Ry
     estimated scf accuracy    <      27.07694634 Ry

     iteration # 87     ecut=    30.00 Ry     beta=0.70
     Davidson diagonalization with overlap
     ethr =  1.00E-02,  avg # of iterations =  4.0

     negative rho (up, down):  3.282E-02 0.000E+00

     total cpu time spent up to now is       16.7 secs

     total energy              =     -84.26438084 Ry
     Harris-Foulkes estimate   =    -255.81896987 Ry
     estimated scf accuracy    <      13.57556784 Ry

     iteration # 88     ecut=    30.00 Ry     beta=0.70
     Davidson diagonalization with overlap
     ethr =  1.00E-02,  avg # of iterations =  5.0

     negative rho (up, down):  3.288E-02 0.000E+00

     total cpu time spent up to now is       16.8 secs

     total energy              =       9.77571868 Ry
     Harris-Foulkes estimate   =    -497.30815489 Ry
     estimated scf accuracy    <      15.47575783 Ry

     iteration # 89     ecut=    30.00 Ry     beta=0.70
     Davidson diagonalization with overlap
     ethr =  1.00E-02,  avg # of iterations =  4.0

     negative rho (up, down):  8.125E-02 0.000E+00

     total cpu time spent up to now is       16.8 secs

     total energy              =     254.11159102 Ry
     Harris-Foulkes estimate   =    -422.38312070 Ry
     estimated scf accuracy    <      24.39141639 Ry

     iteration # 90     ecut=    30.00 Ry     beta=0.70
     Davidson diagonalization with overlap
     ethr =  1.00E-02,  avg # of iterations =  5.0

     negative rho (up, down):  9.369E-02 0.000E+00

     total cpu time spent up to now is       16.9 secs

     total energy              =    -213.18825510 Ry
     Harris-Foulkes estimate   =    -973.60704324 Ry
     estimated scf accuracy    <      17.75903591 Ry

     iteration # 91     ecut=    30.00 Ry     beta=0.70
     Davidson diagonalization with overlap
     ethr =  1.00E-02,  avg # of iterations =  7.0

     negative rho (up, down):  1.002E-01 0.000E+00

     total cpu time spent up to now is       16.9 secs

     total energy              =    -358.47135539 Ry
     Harris-Foulkes estimate   =    -971.38783369 Ry
     estimated scf accuracy    <      19.41346050 Ry

     iteration # 92     ecut=    30.00 Ry     beta=0.70
     Davidson diagonalization with overlap
     ethr =  1.00E-02,  avg # of iterations =  5.0

     negative rho (up, down):  3.350E-01 0.000E+00

     total cpu time spent up to now is       17.0 secs

     total energy              =    -612.96438268 Ry
     Harris-Foulkes estimate   =   -1081.16189368 Ry
     estimated scf accuracy    <      41.36830626 Ry

     iteration # 93     ecut=    30.00 Ry     beta=0.70
     Davidson diagonalization with overlap
     ethr =  1.00E-02,  avg # of iterations =  5.0

     negative rho (up, down):  7.340E-01 0.000E+00

     total cpu time spent up to now is       17.0 secs

     total energy              =    -341.25203167 Ry
     Harris-Foulkes estimate   =   -1830.39499255 Ry
     estimated scf accuracy    <      29.31634368 Ry

     iteration # 94     ecut=    30.00 Ry     beta=0.70
     Davidson diagonalization with overlap
     ethr =  1.00E-02,  avg # of iterations =  7.0

     negative rho (up, down):  7.045E-01 0.000E+00

     total cpu time spent up to now is       17.1 secs

     total energy              =    -237.31887459 Ry
     Harris-Foulkes estimate   =   -4736.60986216 Ry
     estimated scf accuracy    <      30.41172047 Ry

     iteration # 95     ecut=    30.00 Ry     beta=0.70
     Davidson diagonalization with overlap
     ethr =  1.00E-02,  avg # of iterations =  7.0

     negative rho (up, down):  1.018E+00 0.000E+00

     total cpu time spent up to now is       17.1 secs

     total energy              =      62.36930616 Ry
     Harris-Foulkes estimate   =   -7299.22702759 Ry
     estimated scf accuracy    <      29.99918686 Ry

     iteration # 96     ecut=    30.00 Ry     beta=0.70
     Davidson diagonalization with overlap
     ethr =  1.00E-02,  avg # of iterations =  9.0

     negative rho (up, down):  1.031E+00 0.000E+00

     total cpu time spent up to now is       17.2 secs

     total energy              =      39.31133414 Ry
     Harris-Foulkes estimate   =   -7302.92972650 Ry
     estimated scf accuracy    <      31.64036436 Ry

     iteration # 97     ecut=    30.00 Ry     beta=0.70
     Davidson diagonalization with overlap
     ethr =  1.00E-02,  avg # of iterations = 12.0

     negative rho (up, down):  1.119E+00 0.000E+00

     total cpu time spent up to now is       17.2 secs

     total energy              =    -567.96537654 Ry
     Harris-Foulkes estimate   =   -1416.72679488 Ry
     estimated scf accuracy    <      24.90680497 Ry

     iteration # 98     ecut=    30.00 Ry     beta=0.70
     Davidson diagonalization with overlap
     ethr =  1.00E-02,  avg # of iterations =  6.0

     negative rho (up, down):  1.077E+00 0.000E+00

     total cpu time spent up to now is       17.3 secs

     total energy              =     111.54603316 Ry
     Harris-Foulkes estimate   =   -8186.82237923 Ry
     estimated scf accuracy    <      23.96001102 Ry

     iteration # 99     ecut=    30.00 Ry     beta=0.70
     Davidson diagonalization with overlap
     ethr =  1.00E-02,  avg # of iterations =  8.0

     negative rho (up, down):  1.131E+00 0.000E+00

     total cpu time spent up to now is       17.4 secs

     total energy              =    -164.30672490 Ry
     Harris-Foulkes estimate   =    -761.35257104 Ry
     estimated scf accuracy    <      29.81360673 Ry

     iteration #100     ecut=    30.00 Ry     beta=0.70
     Davidson diagonalization with overlap
     ethr =  1.00E-02,  avg # of iterations =  6.0

     negative rho (up, down):  8.035E-01 0.000E+00

     total cpu time spent up to now is       17.4 secs

     total energy              =   -1484.46034329 Ry
     Harris-Foulkes estimate   =   -2548.41762755 Ry
     estimated scf accuracy    <      26.98527062 Ry

     End of self-consistent calculation

     convergence NOT achieved after 100 iterations: stopping

     Writing output data file pwscf.save
 
     init_run     :      0.09s CPU      0.11s WALL (       1 calls)
     electrons    :     11.15s CPU     14.58s WALL (      11 calls)
     update_pot   :      1.27s CPU      1.77s WALL (      10 calls)
     forces       :      0.26s CPU      0.27s WALL (      10 calls)

     Called by init_run:
     wfcinit      :      0.01s CPU      0.03s WALL (       1 calls)
     potinit      :      0.03s CPU      0.03s WALL (       1 calls)

     Called by electrons:
     c_bands      :      5.35s CPU      5.89s WALL (     318 calls)
     sum_band     :      0.94s CPU      1.05s WALL (     318 calls)
     v_of_rho     :      2.40s CPU      2.66s WALL (     329 calls)
     mix_rho      :      2.07s CPU      3.65s WALL (     318 calls)

     Called by c_bands:
     init_us_2    :      0.03s CPU      0.04s WALL (     637 calls)
     cegterg      :      5.28s CPU      5.71s WALL (     318 calls)

     Called by sum_band:

     Called by *egterg:
     h_psi        :      4.36s CPU      4.68s WALL (    1519 calls)
     g_psi        :      0.04s CPU      0.04s WALL (    1200 calls)
     cdiaghg      :      0.34s CPU      0.40s WALL (    1508 calls)

     Called by h_psi:
     h_psi:pot    :      4.34s CPU      4.65s WALL (    1519 calls)
     h_psi:calbec :      0.14s CPU      0.31s WALL (    1519 calls)
     vloc_psi     :      4.18s CPU      4.33s WALL (    1519 calls)
     add_vuspsi   :      0.01s CPU      0.02s WALL (    1519 calls)

     General routines
     calbec       :      0.21s CPU      0.41s WALL (    1568 calls)
     fft          :      1.56s CPU      1.73s WALL (    3639 calls)
     fftw         :      4.37s CPU      4.59s WALL (   19336 calls)
     davcio       :      0.32s CPU      1.34s WALL (    5394 calls)
 
     Parallel routines
     fft_scatter  :      2.28s CPU      2.53s WALL (   22975 calls)
 
     PWSCF        :    13.11s CPU        17.50s WALL

 
   This run was terminated on:   1:24:18  11Feb2018            

=------------------------------------------------------------------------------=
   JOB DONE.
=------------------------------------------------------------------------------=
