
     Program PWSCF v.6.0 (svn rev. 13079) starts on 11Feb2018 at  1:27:33 

     This program is part of the open-source Quantum ESPRESSO suite
     for quantum simulation of materials; please cite
         "P. Giannozzi et al., J. Phys.:Condens. Matter 21 395502 (2009);
          URL http://www.quantum-espresso.org", 
     in publications or presentations arising from this work. More details at
     http://www.quantum-espresso.org/quote

     Parallel version (MPI), running on    28 processors
     R & G space division:  proc/nbgrp/npool/nimage =      28
     Reading input from inputs/water-1-md/351.in

     Current dimensions of program PWSCF are:
     Max number of different atomic species (ntypx) = 10
     Max number of k-points (npk) =  40000
     Max angular momentum in pseudopotentials (lmaxx) =  3

     Subspace diagonalization in iterative solution of the eigenvalue problem:
     a serial algorithm will be used

 
     Parallelization info
     --------------------
     sticks:   dense  smooth     PW     G-vecs:    dense   smooth      PW
     Min         136     136     33                 6338     6338     787
     Max         137     137     34                 6341     6341     792
     Sum        3809    3809    949               177509   177509   22119
 


     bravais-lattice index     =            1
     lattice parameter (alat)  =      20.0000  a.u.
     unit-cell volume          =    8000.0000 (a.u.)^3
     number of atoms/cell      =            3
     number of atomic types    =            2
     number of electrons       =         8.00
     number of Kohn-Sham states=            8
     kinetic-energy cutoff     =      30.0000  Ry
     charge density cutoff     =     120.0000  Ry
     convergence threshold     =      1.0E-08
     mixing beta               =       0.7000
     number of iterations used =            8  plain     mixing
     Exchange-correlation      = BLYP ( 1  3  1  3 0 0)
     nstep                     =         5000


     celldm(1)=  20.000000  celldm(2)=   0.000000  celldm(3)=   0.000000
     celldm(4)=   0.000000  celldm(5)=   0.000000  celldm(6)=   0.000000

     crystal axes: (cart. coord. in units of alat)
               a(1) = (   1.000000   0.000000   0.000000 )  
               a(2) = (   0.000000   1.000000   0.000000 )  
               a(3) = (   0.000000   0.000000   1.000000 )  

     reciprocal axes: (cart. coord. in units 2 pi/alat)
               b(1) = (  1.000000  0.000000  0.000000 )  
               b(2) = (  0.000000  1.000000  0.000000 )  
               b(3) = (  0.000000  0.000000  1.000000 )  


     PseudoPot. # 1 for  H read from file:
     ./H.blyp-hgh.UPF
     MD5 check sum: c576e69559cde411e611be972c763230
     Pseudo is Norm-conserving, Zval =  1.0
     Generated in analytical, separable form
     Using radial grid of  929 points,  0 beta functions with: 

     PseudoPot. # 2 for  O read from file:
     ./O.blyp-hgh.UPF
     MD5 check sum: d0b7156309aa9befef28faac7bc56342
     Pseudo is Norm-conserving, Zval =  6.0
     Generated in analytical, separable form
     Using radial grid of 1095 points,  1 beta functions with: 
                l(1) =   0

     atomic species   valence    mass     pseudopotential
        H              1.00     1.01000      H( 1.00)
        O              6.00    16.00000      O( 1.00)

     No symmetry found



   Cartesian axes

     site n.     atom                  positions (alat units)
         1           H   tau(   1) = (   0.2444186   0.4659368   0.5474119  )
         2           H   tau(   2) = (   0.2302983   0.8834686   0.0705041  )
         3           O   tau(   3) = (   0.3560883   0.4780569   0.7070139  )

     number of k points=     1  Marzari-Vanderbilt smearing, width (Ry)=  0.0250
                       cart. coord. in units 2pi/alat
        k(    1) = (   0.0000000   0.0000000   0.0000000), wk =   2.0000000

     Dense  grid:   177509 G-vectors     FFT dimensions: (  72,  72,  72)

     Estimated max dynamical RAM per process >       6.09Mb

     Estimated total allocated dynamical RAM >     170.64Mb

     Initial potential from superposition of free atoms
     Check: negative starting charge=   -0.345134

     starting charge    7.99998, renormalised to    8.00000

     negative rho (up, down):  3.451E-01 0.000E+00
     Starting wfc are    6 randomized atomic wfcs +    2 random wfc

     total cpu time spent up to now is        0.2 secs

     per-process dynamical memory:    18.8 Mb

     Self-consistent Calculation

     iteration #  1     ecut=    30.00 Ry     beta=0.70
     Davidson diagonalization with overlap
     ethr =  1.00E-02,  avg # of iterations =  7.0

     negative rho (up, down):  8.601E-02 0.000E+00

     total cpu time spent up to now is        0.3 secs

     total energy              =     -29.67671315 Ry
     Harris-Foulkes estimate   =     -32.12784538 Ry
     estimated scf accuracy    <       2.81189689 Ry

     iteration #  2     ecut=    30.00 Ry     beta=0.70
     Davidson diagonalization with overlap
     ethr =  1.00E-02,  avg # of iterations =  3.0

     negative rho (up, down):  6.407E-02 0.000E+00

     total cpu time spent up to now is        0.3 secs

     total energy              =     -31.96063092 Ry
     Harris-Foulkes estimate   =     -35.45347089 Ry
     estimated scf accuracy    <       8.98784429 Ry

     iteration #  3     ecut=    30.00 Ry     beta=0.70
     Davidson diagonalization with overlap
     ethr =  1.00E-02,  avg # of iterations =  2.0

     negative rho (up, down):  6.551E-02 0.000E+00

     total cpu time spent up to now is        0.4 secs

     total energy              =     -32.34771389 Ry
     Harris-Foulkes estimate   =     -32.27355909 Ry
     estimated scf accuracy    <       2.81779514 Ry

     iteration #  4     ecut=    30.00 Ry     beta=0.70
     Davidson diagonalization with overlap
     ethr =  1.00E-02,  avg # of iterations =  1.0

     negative rho (up, down):  6.240E-02 0.000E+00

     total cpu time spent up to now is        0.4 secs

     total energy              =     -32.26001319 Ry
     Harris-Foulkes estimate   =     -32.35618105 Ry
     estimated scf accuracy    <       2.98479527 Ry

     iteration #  5     ecut=    30.00 Ry     beta=0.70
     Davidson diagonalization with overlap
     ethr =  1.00E-02,  avg # of iterations =  1.0

     negative rho (up, down):  2.808E-02 0.000E+00

     total cpu time spent up to now is        0.4 secs

     total energy              =     -31.14726087 Ry
     Harris-Foulkes estimate   =     -32.25346287 Ry
     estimated scf accuracy    <       2.87195193 Ry

     iteration #  6     ecut=    30.00 Ry     beta=0.70
     Davidson diagonalization with overlap
     ethr =  1.00E-02,  avg # of iterations =  4.0

     negative rho (up, down):  3.481E-03 0.000E+00

     total cpu time spent up to now is        0.5 secs

     total energy              =     -32.44039720 Ry
     Harris-Foulkes estimate   =     -32.32899973 Ry
     estimated scf accuracy    <       2.96264832 Ry

     iteration #  7     ecut=    30.00 Ry     beta=0.70
     Davidson diagonalization with overlap
     ethr =  1.00E-02,  avg # of iterations =  1.0

     negative rho (up, down):  3.241E-03 0.000E+00

     total cpu time spent up to now is        0.5 secs

     total energy              =     -32.33089422 Ry
     Harris-Foulkes estimate   =     -32.48195787 Ry
     estimated scf accuracy    <       4.03785277 Ry

     iteration #  8     ecut=    30.00 Ry     beta=0.70
     Davidson diagonalization with overlap
     ethr =  1.00E-02,  avg # of iterations =  1.0

     negative rho (up, down):  1.164E-04 0.000E+00

     total cpu time spent up to now is        0.5 secs

     total energy              =     -31.44207275 Ry
     Harris-Foulkes estimate   =     -32.33267524 Ry
     estimated scf accuracy    <       3.63101342 Ry

     iteration #  9     ecut=    30.00 Ry     beta=0.70
     Davidson diagonalization with overlap
     ethr =  1.00E-02,  avg # of iterations =  1.0

     negative rho (up, down):  1.017E-04 0.000E+00

     total cpu time spent up to now is        0.6 secs

     total energy              =     -31.67855831 Ry
     Harris-Foulkes estimate   =     -31.70731598 Ry
     estimated scf accuracy    <       0.97134519 Ry

     iteration # 10     ecut=    30.00 Ry     beta=0.70
     Davidson diagonalization with overlap
     ethr =  1.00E-02,  avg # of iterations =  1.0

     negative rho (up, down):  4.956E-03 0.000E+00

     total cpu time spent up to now is        0.6 secs

     total energy              =     -31.53929447 Ry
     Harris-Foulkes estimate   =     -31.68034212 Ry
     estimated scf accuracy    <       0.91947387 Ry

     iteration # 11     ecut=    30.00 Ry     beta=0.70
     Davidson diagonalization with overlap
     ethr =  1.00E-02,  avg # of iterations =  1.0

     negative rho (up, down):  2.002E-03 0.000E+00

     total cpu time spent up to now is        0.6 secs

     total energy              =     -31.81408631 Ry
     Harris-Foulkes estimate   =     -31.74722706 Ry
     estimated scf accuracy    <       1.42448734 Ry

     iteration # 12     ecut=    30.00 Ry     beta=0.70
     Davidson diagonalization with overlap
     ethr =  1.00E-02,  avg # of iterations =  1.0

     negative rho (up, down):  5.634E-04 0.000E+00

     total cpu time spent up to now is        0.7 secs

     total energy              =     -31.53433617 Ry
     Harris-Foulkes estimate   =     -31.81799674 Ry
     estimated scf accuracy    <       1.74150284 Ry

     iteration # 13     ecut=    30.00 Ry     beta=0.70
     Davidson diagonalization with overlap
     ethr =  1.00E-02,  avg # of iterations =  1.0

     negative rho (up, down):  7.520E-05 0.000E+00

     total cpu time spent up to now is        0.7 secs

     total energy              =     -31.64065361 Ry
     Harris-Foulkes estimate   =     -31.70990561 Ry
     estimated scf accuracy    <       1.03341783 Ry

     iteration # 14     ecut=    30.00 Ry     beta=0.70
     Davidson diagonalization with overlap
     ethr =  1.00E-02,  avg # of iterations =  1.0

     negative rho (up, down):  9.766E-06 0.000E+00

     total cpu time spent up to now is        0.7 secs

     total energy              =     -31.65292383 Ry
     Harris-Foulkes estimate   =     -31.65004309 Ry
     estimated scf accuracy    <       0.09696223 Ry

     iteration # 15     ecut=    30.00 Ry     beta=0.70
     Davidson diagonalization with overlap
     ethr =  1.21E-03,  avg # of iterations =  1.0

     negative rho (up, down):  9.331E-06 0.000E+00

     total cpu time spent up to now is        0.7 secs

     total energy              =     -31.65088202 Ry
     Harris-Foulkes estimate   =     -31.65471266 Ry
     estimated scf accuracy    <       0.38904826 Ry

     iteration # 16     ecut=    30.00 Ry     beta=0.70
     Davidson diagonalization with overlap
     ethr =  1.21E-03,  avg # of iterations =  1.0

     negative rho (up, down):  7.888E-06 0.000E+00

     total cpu time spent up to now is        0.8 secs

     total energy              =     -31.65160240 Ry
     Harris-Foulkes estimate   =     -31.65137941 Ry
     estimated scf accuracy    <       0.20661071 Ry

     iteration # 17     ecut=    30.00 Ry     beta=0.70
     Davidson diagonalization with overlap
     ethr =  1.21E-03,  avg # of iterations =  1.0

     negative rho (up, down):  4.100E-07 0.000E+00

     total cpu time spent up to now is        0.8 secs

     total energy              =     -31.64469136 Ry
     Harris-Foulkes estimate   =     -31.65161870 Ry
     estimated scf accuracy    <       0.22390794 Ry

     iteration # 18     ecut=    30.00 Ry     beta=0.70
     Davidson diagonalization with overlap
     ethr =  1.21E-03,  avg # of iterations =  1.0

     negative rho (up, down):  1.188E-05 0.000E+00

     total cpu time spent up to now is        0.8 secs

     total energy              =     -31.64801285 Ry
     Harris-Foulkes estimate   =     -31.64833195 Ry
     estimated scf accuracy    <       0.00264737 Ry

     iteration # 19     ecut=    30.00 Ry     beta=0.70
     Davidson diagonalization with overlap
     ethr =  3.31E-05,  avg # of iterations =  7.0

     negative rho (up, down):  1.574E-06 0.000E+00

     total cpu time spent up to now is        0.9 secs

     total energy              =     -31.64783392 Ry
     Harris-Foulkes estimate   =     -31.64870192 Ry
     estimated scf accuracy    <       0.03133063 Ry

     iteration # 20     ecut=    30.00 Ry     beta=0.70
     Davidson diagonalization with overlap
     ethr =  3.31E-05,  avg # of iterations =  1.0

     negative rho (up, down):  7.915E-08 0.000E+00

     total cpu time spent up to now is        0.9 secs

     total energy              =     -31.64828083 Ry
     Harris-Foulkes estimate   =     -31.64828431 Ry
     estimated scf accuracy    <       0.00011003 Ry

     iteration # 21     ecut=    30.00 Ry     beta=0.70
     Davidson diagonalization with overlap
     ethr =  1.38E-06,  avg # of iterations = 12.0

     total cpu time spent up to now is        1.0 secs

     total energy              =     -31.64828559 Ry
     Harris-Foulkes estimate   =     -31.64828471 Ry
     estimated scf accuracy    <       0.00004508 Ry

     iteration # 22     ecut=    30.00 Ry     beta=0.70
     Davidson diagonalization with overlap
     ethr =  5.63E-07,  avg # of iterations =  1.0

     total cpu time spent up to now is        1.0 secs

     total energy              =     -31.64828435 Ry
     Harris-Foulkes estimate   =     -31.64828562 Ry
     estimated scf accuracy    <       0.00003820 Ry

     iteration # 23     ecut=    30.00 Ry     beta=0.70
     Davidson diagonalization with overlap
     ethr =  4.77E-07,  avg # of iterations =  1.0

     total cpu time spent up to now is        1.0 secs

     total energy              =     -31.64828512 Ry
     Harris-Foulkes estimate   =     -31.64828543 Ry
     estimated scf accuracy    <       0.00000912 Ry

     iteration # 24     ecut=    30.00 Ry     beta=0.70
     Davidson diagonalization with overlap
     ethr =  1.14E-07,  avg # of iterations =  1.0

     total cpu time spent up to now is        1.1 secs

     total energy              =     -31.64828527 Ry
     Harris-Foulkes estimate   =     -31.64828525 Ry
     estimated scf accuracy    <       0.00000002 Ry

     iteration # 25     ecut=    30.00 Ry     beta=0.70
     Davidson diagonalization with overlap
     ethr =  1.98E-10,  avg # of iterations =  1.0

     total cpu time spent up to now is        1.1 secs

     End of self-consistent calculation

          k = 0.0000 0.0000 0.0000 ( 22119 PWs)   bands (ev):

   -23.5798  -8.2358  -6.9034  -6.9026  -6.7673  -5.4619  -0.1297   0.7150

     the Fermi energy is    -6.7339 ev

!    total energy              =     -31.64828529 Ry
     Harris-Foulkes estimate   =     -31.64828527 Ry
     estimated scf accuracy    <          2.6E-11 Ry

     convergence has been achieved in  25 iterations

     Forces acting on atoms (Ry/au):

     atom    1 type  1   force =     0.06652448    0.00689138    0.09459726
     atom    2 type  1   force =     0.00023770   -0.00026335   -0.00003897
     atom    3 type  2   force =    -0.06676218   -0.00662803   -0.09455829

     Total force =     0.163903     Total SCF correction =     0.000027

     Molecular Dynamics Calculation

     Starting temperature  =  1000.00 K

     temperature is controlled by Andersen thermostat
     Collision frequency = 1.0000/timestep
     mass H                =     1.01
     mass O                =    16.00
     Time step             =   100.00 a.u.,  4.8378 femto-seconds

     Entering Dynamics:    iteration =     1
                           time      =   0.0048 pico-seconds


     Andersen thermostat:    3 collisions

ATOMIC_POSITIONS (bohr)
H        4.665731122   9.759376081  11.558535238
H        4.157743118  18.068944855   1.238333697
O        7.164114275   9.508099558  14.112594598


     kinetic energy (Ekin) =     0.04666327 Ry
     temperature           =  2455.84624993 K 
     Ekin + Etot (const)   =   -31.60162202 Ry

     Linear momentum :   -0.0000000000    0.0000000000    0.0000000000

     Writing output data file pwscf.save
     Check: negative starting charge=   -0.345134
     NEW-OLD atomic charge density approx. for the potential
     Check: negative starting charge=   -0.344417

     negative rho (up, down):  1.474E-01 0.000E+00

     total cpu time spent up to now is        1.3 secs

     per-process dynamical memory:    20.4 Mb

     Self-consistent Calculation

     iteration #  1     ecut=    30.00 Ry     beta=0.70
     Davidson diagonalization with overlap
     ethr =  1.00E-06,  avg # of iterations = 20.0

     negative rho (up, down):  3.701E-02 0.000E+00

     total cpu time spent up to now is        1.4 secs

     total energy              =     -31.27683022 Ry
     Harris-Foulkes estimate   =     -31.53475424 Ry
     estimated scf accuracy    <       0.40504789 Ry

     iteration #  2     ecut=    30.00 Ry     beta=0.70
     Davidson diagonalization with overlap
     ethr =  5.06E-03,  avg # of iterations =  3.0

     negative rho (up, down):  3.588E-03 0.000E+00

     total cpu time spent up to now is        1.5 secs

     total energy              =     -30.92390030 Ry
     Harris-Foulkes estimate   =     -32.66921007 Ry
     estimated scf accuracy    <       9.65833764 Ry

     iteration #  3     ecut=    30.00 Ry     beta=0.70
     Davidson diagonalization with overlap
     ethr =  5.06E-03,  avg # of iterations =  3.0

     negative rho (up, down):  4.604E-03 0.000E+00

     total cpu time spent up to now is        1.5 secs

     total energy              =     -31.56331841 Ry
     Harris-Foulkes estimate   =     -31.89650447 Ry
     estimated scf accuracy    <       0.80485016 Ry

     iteration #  4     ecut=    30.00 Ry     beta=0.70
     Davidson diagonalization with overlap
     ethr =  5.06E-03,  avg # of iterations =  2.0

     negative rho (up, down):  9.913E-03 0.000E+00

     total cpu time spent up to now is        1.5 secs

     total energy              =     -31.68657309 Ry
     Harris-Foulkes estimate   =     -31.75069188 Ry
     estimated scf accuracy    <       1.64926343 Ry

     iteration #  5     ecut=    30.00 Ry     beta=0.70
     Davidson diagonalization with overlap
     ethr =  5.06E-03,  avg # of iterations =  1.0

     negative rho (up, down):  2.720E-02 0.000E+00

     total cpu time spent up to now is        1.6 secs

     total energy              =     -31.64625204 Ry
     Harris-Foulkes estimate   =     -31.68961601 Ry
     estimated scf accuracy    <       0.48333298 Ry

     iteration #  6     ecut=    30.00 Ry     beta=0.70
     Davidson diagonalization with overlap
     ethr =  5.06E-03,  avg # of iterations =  1.0

     negative rho (up, down):  3.102E-03 0.000E+00

     total cpu time spent up to now is        1.6 secs

     total energy              =     -31.66465436 Ry
     Harris-Foulkes estimate   =     -31.69635660 Ry
     estimated scf accuracy    <       0.80884619 Ry

     iteration #  7     ecut=    30.00 Ry     beta=0.70
     Davidson diagonalization with overlap
     ethr =  5.06E-03,  avg # of iterations =  1.0

     negative rho (up, down):  4.702E-03 0.000E+00

     total cpu time spent up to now is        1.6 secs

     total energy              =     -31.68528073 Ry
     Harris-Foulkes estimate   =     -31.69144812 Ry
     estimated scf accuracy    <       0.27725996 Ry

     iteration #  8     ecut=    30.00 Ry     beta=0.70
     Davidson diagonalization with overlap
     ethr =  3.47E-03,  avg # of iterations =  1.0

     negative rho (up, down):  2.482E-03 0.000E+00

     total cpu time spent up to now is        1.7 secs

     total energy              =     -31.69080774 Ry
     Harris-Foulkes estimate   =     -31.69141901 Ry
     estimated scf accuracy    <       0.02569743 Ry

     iteration #  9     ecut=    30.00 Ry     beta=0.70
     Davidson diagonalization with overlap
     ethr =  3.21E-04,  avg # of iterations =  1.0

     negative rho (up, down):  5.217E-04 0.000E+00

     total cpu time spent up to now is        1.7 secs

     total energy              =     -31.69112965 Ry
     Harris-Foulkes estimate   =     -31.69113941 Ry
     estimated scf accuracy    <       0.00009280 Ry

     iteration # 10     ecut=    30.00 Ry     beta=0.70
     Davidson diagonalization with overlap
     c_bands:  1 eigenvalues not converged
     ethr =  1.16E-06,  avg # of iterations = 20.0

     negative rho (up, down):  1.139E-03 0.000E+00

     total cpu time spent up to now is        1.7 secs

     total energy              =     -31.69078181 Ry
     Harris-Foulkes estimate   =     -31.69126950 Ry
     estimated scf accuracy    <       0.01026176 Ry

     iteration # 11     ecut=    30.00 Ry     beta=0.70
     Davidson diagonalization with overlap
     ethr =  1.16E-06,  avg # of iterations = 14.0

     negative rho (up, down):  3.597E-08 0.000E+00

     total cpu time spent up to now is        1.8 secs

     total energy              =     -31.69093451 Ry
     Harris-Foulkes estimate   =     -31.69127257 Ry
     estimated scf accuracy    <       0.00929597 Ry

     iteration # 12     ecut=    30.00 Ry     beta=0.70
     Davidson diagonalization with overlap
     ethr =  1.16E-06,  avg # of iterations =  4.0

     negative rho (up, down):  1.769E-08 0.000E+00

     total cpu time spent up to now is        1.8 secs

     total energy              =     -31.69114297 Ry
     Harris-Foulkes estimate   =     -31.69116945 Ry
     estimated scf accuracy    <       0.00168315 Ry

     iteration # 13     ecut=    30.00 Ry     beta=0.70
     Davidson diagonalization with overlap
     ethr =  1.16E-06,  avg # of iterations =  1.0

     negative rho (up, down):  1.729E-07 0.000E+00

     total cpu time spent up to now is        1.9 secs

     total energy              =     -31.69114419 Ry
     Harris-Foulkes estimate   =     -31.69115122 Ry
     estimated scf accuracy    <       0.00023671 Ry

     iteration # 14     ecut=    30.00 Ry     beta=0.70
     Davidson diagonalization with overlap
     ethr =  1.16E-06,  avg # of iterations =  1.0

     total cpu time spent up to now is        1.9 secs

     total energy              =     -31.69114805 Ry
     Harris-Foulkes estimate   =     -31.69114833 Ry
     estimated scf accuracy    <       0.00000774 Ry

     iteration # 15     ecut=    30.00 Ry     beta=0.70
     Davidson diagonalization with overlap
     ethr =  9.68E-08,  avg # of iterations =  1.0

     total cpu time spent up to now is        1.9 secs

     total energy              =     -31.69114821 Ry
     Harris-Foulkes estimate   =     -31.69114821 Ry
     estimated scf accuracy    <       0.00000061 Ry

     iteration # 16     ecut=    30.00 Ry     beta=0.70
     Davidson diagonalization with overlap
     ethr =  7.60E-09,  avg # of iterations =  1.0

     total cpu time spent up to now is        1.9 secs

     End of self-consistent calculation

          k = 0.0000 0.0000 0.0000 ( 22119 PWs)   bands (ev):

   -23.5829  -8.4935  -6.8978  -6.8974  -6.7625  -4.9089  -0.1158   0.7344

     the Fermi energy is    -6.7287 ev

!    total energy              =     -31.69114830 Ry
     Harris-Foulkes estimate   =     -31.69114822 Ry
     estimated scf accuracy    <          7.2E-11 Ry

     convergence has been achieved in  16 iterations

     Forces acting on atoms (Ry/au):

     atom    1 type  1   force =     0.10613714   -0.01148516    0.10842394
     atom    2 type  1   force =     0.00046198   -0.00078685    0.00016464
     atom    3 type  2   force =    -0.10659912    0.01227201   -0.10858858

     Total force =     0.215544     Total SCF correction =     0.000377

     Entering Dynamics:    iteration =     2
                           time      =   0.0097 pico-seconds


     Andersen thermostat:    3 collisions

ATOMIC_POSITIONS (bohr)
H        5.942954454   9.686901768  12.817860124
H        4.275017824  17.797154413   2.024240204
O        7.076086586   9.529831271  13.983489367


     kinetic energy (Ekin) =     0.08422066 Ry
     temperature           =  4432.45840009 K 
     Ekin + Etot (const)   =   -31.60692764 Ry
     Message from routine dynamics:
     Total linear momentum <> 0

     Linear momentum :    0.0829475635    0.0831803994   -0.1225418936

     Writing output data file pwscf.save

     first order wave-functions extrapolation
     Check: negative starting charge=   -0.344417
     first order charge density extrapolation
     Check: negative starting charge=   -0.353089

     negative rho (up, down):  5.016E-01 0.000E+00

     total cpu time spent up to now is        2.3 secs

     per-process dynamical memory:    20.4 Mb

     Self-consistent Calculation

     iteration #  1     ecut=    30.00 Ry     beta=0.70
     Davidson diagonalization with overlap
     c_bands:  1 eigenvalues not converged
     ethr =  1.00E-06,  avg # of iterations = 20.0

     negative rho (up, down):  9.918E-02 0.000E+00

     total cpu time spent up to now is        2.4 secs

     total energy              =      31.04031632 Ry
     Harris-Foulkes estimate   =    -153.12474394 Ry
     estimated scf accuracy    <      14.67519322 Ry

     iteration #  2     ecut=    30.00 Ry     beta=0.70
     Davidson diagonalization with overlap
     ethr =  1.00E-02,  avg # of iterations =  4.0

     negative rho (up, down):  6.440E-02 0.000E+00

     total cpu time spent up to now is        2.4 secs

     total energy              =     -33.73015332 Ry
     Harris-Foulkes estimate   =     -41.55401900 Ry
     estimated scf accuracy    <      15.74473986 Ry

     iteration #  3     ecut=    30.00 Ry     beta=0.70
     Davidson diagonalization with overlap
     ethr =  1.00E-02,  avg # of iterations =  2.0

     negative rho (up, down):  4.112E-02 0.000E+00

     total cpu time spent up to now is        2.4 secs

     total energy              =     -32.38910358 Ry
     Harris-Foulkes estimate   =     -34.28005245 Ry
     estimated scf accuracy    <       4.66540547 Ry

     iteration #  4     ecut=    30.00 Ry     beta=0.70
     Davidson diagonalization with overlap
     ethr =  1.00E-02,  avg # of iterations =  3.0

     negative rho (up, down):  2.365E-02 0.000E+00

     total cpu time spent up to now is        2.5 secs

     total energy              =     -31.91904575 Ry
     Harris-Foulkes estimate   =     -32.42426044 Ry
     estimated scf accuracy    <       1.55104872 Ry

     iteration #  5     ecut=    30.00 Ry     beta=0.70
     Davidson diagonalization with overlap
     ethr =  1.00E-02,  avg # of iterations =  2.0

     negative rho (up, down):  2.462E-02 0.000E+00

     total cpu time spent up to now is        2.5 secs

     total energy              =     -32.04938593 Ry
     Harris-Foulkes estimate   =     -32.08577555 Ry
     estimated scf accuracy    <       1.73961406 Ry

     iteration #  6     ecut=    30.00 Ry     beta=0.70
     Davidson diagonalization with overlap
     ethr =  1.00E-02,  avg # of iterations =  1.0

     negative rho (up, down):  2.110E-02 0.000E+00

     total cpu time spent up to now is        2.5 secs

     total energy              =     -32.50731382 Ry
     Harris-Foulkes estimate   =     -32.04762411 Ry
     estimated scf accuracy    <       2.08397214 Ry

     iteration #  7     ecut=    30.00 Ry     beta=0.70
     Davidson diagonalization with overlap
     ethr =  1.00E-02,  avg # of iterations =  1.0

     negative rho (up, down):  2.467E-02 0.000E+00

     total cpu time spent up to now is        2.6 secs

     total energy              =     -32.46325364 Ry
     Harris-Foulkes estimate   =     -32.47700032 Ry
     estimated scf accuracy    <       2.42389698 Ry

     iteration #  8     ecut=    30.00 Ry     beta=0.70
     Davidson diagonalization with overlap
     ethr =  1.00E-02,  avg # of iterations =  1.0

     negative rho (up, down):  2.544E-02 0.000E+00

     total cpu time spent up to now is        2.6 secs

     total energy              =     -32.46399856 Ry
     Harris-Foulkes estimate   =     -32.46559186 Ry
     estimated scf accuracy    <       2.42050801 Ry

     iteration #  9     ecut=    30.00 Ry     beta=0.70
     Davidson diagonalization with overlap
     ethr =  1.00E-02,  avg # of iterations =  1.0

     negative rho (up, down):  3.939E-02 0.000E+00

     total cpu time spent up to now is        2.6 secs

     total energy              =     -32.85665511 Ry
     Harris-Foulkes estimate   =     -32.46447883 Ry
     estimated scf accuracy    <       2.43622045 Ry

     iteration # 10     ecut=    30.00 Ry     beta=0.70
     Davidson diagonalization with overlap
     ethr =  1.00E-02,  avg # of iterations =  1.0

     negative rho (up, down):  1.360E-01 0.000E+00

     total cpu time spent up to now is        2.7 secs

     total energy              =     -34.90395478 Ry
     Harris-Foulkes estimate   =     -32.89867859 Ry
     estimated scf accuracy    <       5.72690135 Ry

     iteration # 11     ecut=    30.00 Ry     beta=0.70
     Davidson diagonalization with overlap
     ethr =  1.00E-02,  avg # of iterations =  4.0

     negative rho (up, down):  2.390E-01 0.000E+00

     total cpu time spent up to now is        2.7 secs

     total energy              =     -36.19460356 Ry
     Harris-Foulkes estimate   =     -35.91699230 Ry
     estimated scf accuracy    <      26.50551047 Ry

     iteration # 12     ecut=    30.00 Ry     beta=0.70
     Davidson diagonalization with overlap
     ethr =  1.00E-02,  avg # of iterations =  2.0

     negative rho (up, down):  2.877E-01 0.000E+00

     total cpu time spent up to now is        2.8 secs

     total energy              =     -36.09817413 Ry
     Harris-Foulkes estimate   =     -36.72619433 Ry
     estimated scf accuracy    <      27.16845256 Ry

     iteration # 13     ecut=    30.00 Ry     beta=0.70
     Davidson diagonalization with overlap
     ethr =  1.00E-02,  avg # of iterations =  2.0

     negative rho (up, down):  2.508E-01 0.000E+00

     total cpu time spent up to now is        2.8 secs

     total energy              =     -35.87408005 Ry
     Harris-Foulkes estimate   =     -36.39466395 Ry
     estimated scf accuracy    <      27.57310913 Ry

     iteration # 14     ecut=    30.00 Ry     beta=0.70
     Davidson diagonalization with overlap
     ethr =  1.00E-02,  avg # of iterations =  2.0

     negative rho (up, down):  7.165E-01 0.000E+00

     total cpu time spent up to now is        2.8 secs

     total energy              =     -31.66049424 Ry
     Harris-Foulkes estimate   =     -36.21924331 Ry
     estimated scf accuracy    <      26.80634505 Ry

     iteration # 15     ecut=    30.00 Ry     beta=0.70
     Davidson diagonalization with overlap
     ethr =  1.00E-02,  avg # of iterations =  3.0

     negative rho (up, down):  4.577E-01 0.000E+00

     total cpu time spent up to now is        2.9 secs

     total energy              =     -31.48346178 Ry
     Harris-Foulkes estimate   =     -33.39827140 Ry
     estimated scf accuracy    <      10.44996422 Ry

     iteration # 16     ecut=    30.00 Ry     beta=0.70
     Davidson diagonalization with overlap
     ethr =  1.00E-02,  avg # of iterations =  7.0

     negative rho (up, down):  4.533E-01 0.000E+00

     total cpu time spent up to now is        2.9 secs

     total energy              =     -20.52459483 Ry
     Harris-Foulkes estimate   =     -40.22125154 Ry
     estimated scf accuracy    <       5.54316302 Ry

     iteration # 17     ecut=    30.00 Ry     beta=0.70
     Davidson diagonalization with overlap
     ethr =  1.00E-02,  avg # of iterations =  3.0

     negative rho (up, down):  5.478E-01 0.000E+00

     total cpu time spent up to now is        3.0 secs

     total energy              =     -37.21496092 Ry
     Harris-Foulkes estimate   =     -32.32285773 Ry
     estimated scf accuracy    <       1.81183180 Ry

     iteration # 18     ecut=    30.00 Ry     beta=0.70
     Davidson diagonalization with overlap
     ethr =  1.00E-02,  avg # of iterations =  5.0

     negative rho (up, down):  7.960E-01 0.000E+00

     total cpu time spent up to now is        3.0 secs

     total energy              =      -9.20900762 Ry
     Harris-Foulkes estimate   =     -88.84771295 Ry
     estimated scf accuracy    <       5.50096689 Ry

     iteration # 19     ecut=    30.00 Ry     beta=0.70
     Davidson diagonalization with overlap
     ethr =  1.00E-02,  avg # of iterations =  4.0

     negative rho (up, down):  7.642E-01 0.000E+00

     total cpu time spent up to now is        3.0 secs

     total energy              =    -128.67942276 Ry
     Harris-Foulkes estimate   =     -54.64772569 Ry
     estimated scf accuracy    <       5.58591692 Ry

     iteration # 20     ecut=    30.00 Ry     beta=0.70
     Davidson diagonalization with overlap
     ethr =  1.00E-02,  avg # of iterations =  6.0

     negative rho (up, down):  7.851E-01 0.000E+00

     total cpu time spent up to now is        3.1 secs

     total energy              =     -14.56165629 Ry
     Harris-Foulkes estimate   =    -790.00649318 Ry
     estimated scf accuracy    <      43.63662076 Ry

     iteration # 21     ecut=    30.00 Ry     beta=0.70
     Davidson diagonalization with overlap
     ethr =  1.00E-02,  avg # of iterations =  4.0

     negative rho (up, down):  7.949E-01 0.000E+00

     total cpu time spent up to now is        3.1 secs

     total energy              =      -3.63501006 Ry
     Harris-Foulkes estimate   =    -413.40050145 Ry
     estimated scf accuracy    <      15.84112965 Ry

     iteration # 22     ecut=    30.00 Ry     beta=0.70
     Davidson diagonalization with overlap
     ethr =  1.00E-02,  avg # of iterations =  6.0

     negative rho (up, down):  8.652E-01 0.000E+00

     total cpu time spent up to now is        3.2 secs

     total energy              =      31.51229505 Ry
     Harris-Foulkes estimate   =    -360.12839473 Ry
     estimated scf accuracy    <      42.67770366 Ry

     iteration # 23     ecut=    30.00 Ry     beta=0.70
     Davidson diagonalization with overlap
     ethr =  1.00E-02,  avg # of iterations =  4.0

     negative rho (up, down):  4.188E-01 0.000E+00

     total cpu time spent up to now is        3.2 secs

     total energy              =     -72.18449300 Ry
     Harris-Foulkes estimate   =     -60.33802254 Ry
     estimated scf accuracy    <      16.15525847 Ry

     iteration # 24     ecut=    30.00 Ry     beta=0.70
     Davidson diagonalization with overlap
     ethr =  1.00E-02,  avg # of iterations =  8.0

     negative rho (up, down):  3.948E-01 0.000E+00

     total cpu time spent up to now is        3.3 secs

     total energy              =      38.21600699 Ry
     Harris-Foulkes estimate   =    -439.63309804 Ry
     estimated scf accuracy    <      80.28398818 Ry

     iteration # 25     ecut=    30.00 Ry     beta=0.70
     Davidson diagonalization with overlap
     ethr =  1.00E-02,  avg # of iterations =  5.0

     negative rho (up, down):  4.345E-01 0.000E+00

     total cpu time spent up to now is        3.3 secs

     total energy              =   -1139.28403316 Ry
     Harris-Foulkes estimate   =    -308.33915578 Ry
     estimated scf accuracy    <      79.37667584 Ry

     iteration # 26     ecut=    30.00 Ry     beta=0.70
     Davidson diagonalization with overlap
     ethr =  1.00E-02,  avg # of iterations =  6.0

     negative rho (up, down):  8.495E-01 0.000E+00

     total cpu time spent up to now is        3.4 secs

     total energy              =      89.75905121 Ry
     Harris-Foulkes estimate   =   -3932.82324340 Ry
     estimated scf accuracy    <      69.59208417 Ry

     iteration # 27     ecut=    30.00 Ry     beta=0.70
     Davidson diagonalization with overlap
     ethr =  1.00E-02,  avg # of iterations =  8.0

     negative rho (up, down):  1.121E+00 0.000E+00

     total cpu time spent up to now is        3.4 secs

     total energy              =    -358.07040265 Ry
     Harris-Foulkes estimate   =    -345.68499271 Ry
     estimated scf accuracy    <      69.92841824 Ry

     iteration # 28     ecut=    30.00 Ry     beta=0.70
     Davidson diagonalization with overlap
     ethr =  1.00E-02,  avg # of iterations =  6.0

     negative rho (up, down):  1.521E+00 0.000E+00

     total cpu time spent up to now is        3.5 secs

     total energy              =     -28.93859644 Ry
     Harris-Foulkes estimate   =  -29031.70430385 Ry
     estimated scf accuracy    <      70.70488326 Ry

     iteration # 29     ecut=    30.00 Ry     beta=0.70
     Davidson diagonalization with overlap
     ethr =  1.00E-02,  avg # of iterations =  9.0

     negative rho (up, down):  1.462E+00 0.000E+00

     total cpu time spent up to now is        3.6 secs

     total energy              =   -1413.24208155 Ry
     Harris-Foulkes estimate   =   -1766.02727724 Ry
     estimated scf accuracy    <      59.15938099 Ry

     iteration # 30     ecut=    30.00 Ry     beta=0.70
     Davidson diagonalization with overlap
     ethr =  1.00E-02,  avg # of iterations =  8.0

     negative rho (up, down):  1.779E+00 0.000E+00

     total cpu time spent up to now is        3.6 secs

     total energy              =    -475.23541101 Ry
     Harris-Foulkes estimate   =   -4153.01419085 Ry
     estimated scf accuracy    <      58.15321550 Ry

     iteration # 31     ecut=    30.00 Ry     beta=0.70
     Davidson diagonalization with overlap
     ethr =  1.00E-02,  avg # of iterations =  7.0

     negative rho (up, down):  1.696E+00 0.000E+00

     total cpu time spent up to now is        3.7 secs

     total energy              =      76.39500775 Ry
     Harris-Foulkes estimate   =   -3589.65509909 Ry
     estimated scf accuracy    <      62.64159783 Ry

     iteration # 32     ecut=    30.00 Ry     beta=0.70
     Davidson diagonalization with overlap
     ethr =  1.00E-02,  avg # of iterations =  8.0

     negative rho (up, down):  1.012E+00 0.000E+00

     total cpu time spent up to now is        3.7 secs

     total energy              =      97.84475397 Ry
     Harris-Foulkes estimate   =   -2612.24418008 Ry
     estimated scf accuracy    <      63.25494603 Ry

     iteration # 33     ecut=    30.00 Ry     beta=0.70
     Davidson diagonalization with overlap
     ethr =  1.00E-02,  avg # of iterations = 11.0

     negative rho (up, down):  1.312E+00 0.000E+00

     total cpu time spent up to now is        3.8 secs

     total energy              =     112.22037759 Ry
     Harris-Foulkes estimate   =   -2252.16775045 Ry
     estimated scf accuracy    <      21.38112776 Ry

     iteration # 34     ecut=    30.00 Ry     beta=0.70
     Davidson diagonalization with overlap
     ethr =  1.00E-02,  avg # of iterations =  9.0

     negative rho (up, down):  3.463E-01 0.000E+00

     total cpu time spent up to now is        3.9 secs

     total energy              =     -18.52195449 Ry
     Harris-Foulkes estimate   =    -764.33523169 Ry
     estimated scf accuracy    <      21.36678187 Ry

     iteration # 35     ecut=    30.00 Ry     beta=0.70
     Davidson diagonalization with overlap
     ethr =  1.00E-02,  avg # of iterations =  5.0

     negative rho (up, down):  3.140E-01 0.000E+00

     total cpu time spent up to now is        3.9 secs

     total energy              =      40.65658267 Ry
     Harris-Foulkes estimate   =  -19136.53297689 Ry
     estimated scf accuracy    <      27.84737497 Ry

     iteration # 36     ecut=    30.00 Ry     beta=0.70
     Davidson diagonalization with overlap
     ethr =  1.00E-02,  avg # of iterations =  7.0

     negative rho (up, down):  2.590E-01 0.000E+00

     total cpu time spent up to now is        4.0 secs

     total energy              =     134.03711781 Ry
     Harris-Foulkes estimate   =  -14837.22103127 Ry
     estimated scf accuracy    <      16.53849298 Ry

     iteration # 37     ecut=    30.00 Ry     beta=0.70
     Davidson diagonalization with overlap
     ethr =  1.00E-02,  avg # of iterations =  7.0

     negative rho (up, down):  2.331E-01 0.000E+00

     total cpu time spent up to now is        4.0 secs

     total energy              =     125.97417667 Ry
     Harris-Foulkes estimate   =   -1788.52757644 Ry
     estimated scf accuracy    <      21.57231910 Ry

     iteration # 38     ecut=    30.00 Ry     beta=0.70
     Davidson diagonalization with overlap
     ethr =  1.00E-02,  avg # of iterations = 10.0

     negative rho (up, down):  4.788E-02 0.000E+00

     total cpu time spent up to now is        4.1 secs

     total energy              =      96.48733113 Ry
     Harris-Foulkes estimate   =    -378.12536051 Ry
     estimated scf accuracy    <      23.22113226 Ry

     iteration # 39     ecut=    30.00 Ry     beta=0.70
     Davidson diagonalization with overlap
     ethr =  1.00E-02,  avg # of iterations =  7.0

     negative rho (up, down):  1.326E-02 0.000E+00

     total cpu time spent up to now is        4.1 secs

     total energy              =     128.88243027 Ry
     Harris-Foulkes estimate   =   -1727.23209833 Ry
     estimated scf accuracy    <      21.73001552 Ry

     iteration # 40     ecut=    30.00 Ry     beta=0.70
     Davidson diagonalization with overlap
     ethr =  1.00E-02,  avg # of iterations =  8.0

     negative rho (up, down):  1.564E-03 0.000E+00

     total cpu time spent up to now is        4.2 secs

     total energy              =      24.77466505 Ry
     Harris-Foulkes estimate   =    -154.03391336 Ry
     estimated scf accuracy    <      28.90899688 Ry

     iteration # 41     ecut=    30.00 Ry     beta=0.70
     Davidson diagonalization with overlap
     ethr =  1.00E-02,  avg # of iterations =  8.0

     negative rho (up, down):  4.357E-04 0.000E+00

     total cpu time spent up to now is        4.2 secs

     total energy              =     -84.45125181 Ry
     Harris-Foulkes estimate   =     -81.56062675 Ry
     estimated scf accuracy    <      63.25001889 Ry

     iteration # 42     ecut=    30.00 Ry     beta=0.70
     Davidson diagonalization with overlap
     ethr =  1.00E-02,  avg # of iterations =  1.0

     negative rho (up, down):  3.651E-02 0.000E+00

     total cpu time spent up to now is        4.3 secs

     total energy              =     -87.72165210 Ry
     Harris-Foulkes estimate   =     -84.45721257 Ry
     estimated scf accuracy    <      66.54690412 Ry

     iteration # 43     ecut=    30.00 Ry     beta=0.70
     Davidson diagonalization with overlap
     ethr =  1.00E-02,  avg # of iterations =  6.0

     negative rho (up, down):  1.067E-01 0.000E+00

     total cpu time spent up to now is        4.3 secs

     total energy              =   -5963.89481471 Ry
     Harris-Foulkes estimate   =   -1069.93003576 Ry
     estimated scf accuracy    <      32.90560456 Ry

     iteration # 44     ecut=    30.00 Ry     beta=0.70
     Davidson diagonalization with overlap
     ethr =  1.00E-02,  avg # of iterations =  4.0

     negative rho (up, down):  3.765E-05 0.000E+00

     total cpu time spent up to now is        4.4 secs

     total energy              =     145.97714986 Ry
     Harris-Foulkes estimate   =  -30456.38061133 Ry
     estimated scf accuracy    <      34.01339625 Ry

     iteration # 45     ecut=    30.00 Ry     beta=0.70
     Davidson diagonalization with overlap
     ethr =  1.00E-02,  avg # of iterations =  8.0

     negative rho (up, down):  5.243E-02 0.000E+00

     total cpu time spent up to now is        4.4 secs

     total energy              =     -84.66189649 Ry
     Harris-Foulkes estimate   =     -82.18198558 Ry
     estimated scf accuracy    <      64.22407350 Ry

     iteration # 46     ecut=    30.00 Ry     beta=0.70
     Davidson diagonalization with overlap
     ethr =  1.00E-02,  avg # of iterations =  6.0

     negative rho (up, down):  1.812E-02 0.000E+00

     total cpu time spent up to now is        4.5 secs

     total energy              =      79.37064942 Ry
     Harris-Foulkes estimate   =    -492.20858031 Ry
     estimated scf accuracy    <      20.38501765 Ry

     iteration # 47     ecut=    30.00 Ry     beta=0.70
     Davidson diagonalization with overlap
     ethr =  1.00E-02,  avg # of iterations =  7.0

     negative rho (up, down):  9.330E-02 0.000E+00

     total cpu time spent up to now is        4.5 secs

     total energy              =    -120.25545848 Ry
     Harris-Foulkes estimate   =    -209.68013614 Ry
     estimated scf accuracy    <      41.32984967 Ry

     iteration # 48     ecut=    30.00 Ry     beta=0.70
     Davidson diagonalization with overlap
     ethr =  1.00E-02,  avg # of iterations =  4.0

     negative rho (up, down):  1.455E-01 0.000E+00

     total cpu time spent up to now is        4.6 secs

     total energy              =     -37.39078919 Ry
     Harris-Foulkes estimate   =    -688.33623331 Ry
     estimated scf accuracy    <      46.48325631 Ry

     iteration # 49     ecut=    30.00 Ry     beta=0.70
     Davidson diagonalization with overlap
     ethr =  1.00E-02,  avg # of iterations =  5.0

     negative rho (up, down):  6.533E-02 0.000E+00

     total cpu time spent up to now is        4.6 secs

     total energy              =      40.68563307 Ry
     Harris-Foulkes estimate   =    -262.49286614 Ry
     estimated scf accuracy    <      30.55861629 Ry

     iteration # 50     ecut=    30.00 Ry     beta=0.70
     Davidson diagonalization with overlap
     ethr =  1.00E-02,  avg # of iterations =  6.0

     negative rho (up, down):  2.155E-01 0.000E+00

     total cpu time spent up to now is        4.7 secs

     total energy              =      48.74348027 Ry
     Harris-Foulkes estimate   =     -86.97411819 Ry
     estimated scf accuracy    <      65.02784559 Ry

     iteration # 51     ecut=    30.00 Ry     beta=0.70
     Davidson diagonalization with overlap
     ethr =  1.00E-02,  avg # of iterations =  9.0

     negative rho (up, down):  1.645E-01 0.000E+00

     total cpu time spent up to now is        4.7 secs

     total energy              =      17.19724931 Ry
     Harris-Foulkes estimate   =    -662.26134213 Ry
     estimated scf accuracy    <      27.46246219 Ry

     iteration # 52     ecut=    30.00 Ry     beta=0.70
     Davidson diagonalization with overlap
     ethr =  1.00E-02,  avg # of iterations = 14.0

     negative rho (up, down):  8.667E-02 0.000E+00

     total cpu time spent up to now is        4.8 secs

     total energy              =      49.27629941 Ry
     Harris-Foulkes estimate   =    -499.80249329 Ry
     estimated scf accuracy    <      32.30244881 Ry

     iteration # 53     ecut=    30.00 Ry     beta=0.70
     Davidson diagonalization with overlap
     ethr =  1.00E-02,  avg # of iterations =  7.0

     negative rho (up, down):  1.781E-01 0.000E+00

     total cpu time spent up to now is        4.9 secs

     total energy              =    -131.68249296 Ry
     Harris-Foulkes estimate   =    -243.01955496 Ry
     estimated scf accuracy    <      70.10937414 Ry

     iteration # 54     ecut=    30.00 Ry     beta=0.70
     Davidson diagonalization with overlap
     ethr =  1.00E-02,  avg # of iterations =  6.0

     negative rho (up, down):  3.576E-01 0.000E+00

     total cpu time spent up to now is        5.0 secs

     total energy              =     450.21338416 Ry
     Harris-Foulkes estimate   =   -3041.62386801 Ry
     estimated scf accuracy    <      28.25569845 Ry

     iteration # 55     ecut=    30.00 Ry     beta=0.70
     Davidson diagonalization with overlap
     ethr =  1.00E-02,  avg # of iterations =  8.0

     negative rho (up, down):  1.092E+00 0.000E+00

     total cpu time spent up to now is        5.0 secs

     total energy              =     124.37684185 Ry
     Harris-Foulkes estimate   =    -292.50487588 Ry
     estimated scf accuracy    <      45.85933431 Ry

     iteration # 56     ecut=    30.00 Ry     beta=0.70
     Davidson diagonalization with overlap
     ethr =  1.00E-02,  avg # of iterations =  8.0

     negative rho (up, down):  1.397E+00 0.000E+00

     total cpu time spent up to now is        5.1 secs

     total energy              =    -270.34300799 Ry
     Harris-Foulkes estimate   =   -1431.93211510 Ry
     estimated scf accuracy    <      56.91421051 Ry

     iteration # 57     ecut=    30.00 Ry     beta=0.70
     Davidson diagonalization with overlap
     ethr =  1.00E-02,  avg # of iterations =  6.0

     negative rho (up, down):  1.495E+00 0.000E+00

     total cpu time spent up to now is        5.2 secs

     total energy              =    -660.95861247 Ry
     Harris-Foulkes estimate   =   -4637.26536079 Ry
     estimated scf accuracy    <      51.76032675 Ry

     iteration # 58     ecut=    30.00 Ry     beta=0.70
     Davidson diagonalization with overlap
     ethr =  1.00E-02,  avg # of iterations =  7.0

     negative rho (up, down):  1.745E+00 0.000E+00

     total cpu time spent up to now is        5.2 secs

     total energy              =     -35.80958817 Ry
     Harris-Foulkes estimate   =  -25422.52799612 Ry
     estimated scf accuracy    <      60.21312891 Ry

     iteration # 59     ecut=    30.00 Ry     beta=0.70
     Davidson diagonalization with overlap
     ethr =  1.00E-02,  avg # of iterations =  9.0

     negative rho (up, down):  1.193E+00 0.000E+00

     total cpu time spent up to now is        5.3 secs

     total energy              =      49.69135123 Ry
     Harris-Foulkes estimate   =   -1273.69074176 Ry
     estimated scf accuracy    <      34.36707138 Ry

     iteration # 60     ecut=    30.00 Ry     beta=0.70
     Davidson diagonalization with overlap
     ethr =  1.00E-02,  avg # of iterations =  6.0

     negative rho (up, down):  1.742E+00 0.000E+00

     total cpu time spent up to now is        5.4 secs

     total energy              =    -252.25786562 Ry
     Harris-Foulkes estimate   =   -2326.57163350 Ry
     estimated scf accuracy    <      44.34822666 Ry

     iteration # 61     ecut=    30.00 Ry     beta=0.70
     Davidson diagonalization with overlap
     ethr =  1.00E-02,  avg # of iterations =  5.0

     negative rho (up, down):  2.033E+00 0.000E+00

     total cpu time spent up to now is        5.4 secs

     total energy              =    -155.46704370 Ry
     Harris-Foulkes estimate   =   -5055.22698761 Ry
     estimated scf accuracy    <      42.47966142 Ry

     iteration # 62     ecut=    30.00 Ry     beta=0.70
     Davidson diagonalization with overlap
     ethr =  1.00E-02,  avg # of iterations =  7.0

     negative rho (up, down):  1.419E+00 0.000E+00

     total cpu time spent up to now is        5.5 secs

     total energy              =     -56.82563962 Ry
     Harris-Foulkes estimate   =   -9497.77647677 Ry
     estimated scf accuracy    <      42.49321291 Ry

     iteration # 63     ecut=    30.00 Ry     beta=0.70
     Davidson diagonalization with overlap
     ethr =  1.00E-02,  avg # of iterations =  9.0

     negative rho (up, down):  1.677E+00 0.000E+00

     total cpu time spent up to now is        5.5 secs

     total energy              =    -757.70918053 Ry
     Harris-Foulkes estimate   =   -1167.89752953 Ry
     estimated scf accuracy    <      33.92332714 Ry

     iteration # 64     ecut=    30.00 Ry     beta=0.70
     Davidson diagonalization with overlap
     ethr =  1.00E-02,  avg # of iterations =  9.0

     negative rho (up, down):  1.941E+00 0.000E+00

     total cpu time spent up to now is        5.6 secs

     total energy              =      -4.77896401 Ry
     Harris-Foulkes estimate   =  -34166.67174867 Ry
     estimated scf accuracy    <      27.33063695 Ry

     iteration # 65     ecut=    30.00 Ry     beta=0.70
     Davidson diagonalization with overlap
     ethr =  1.00E-02,  avg # of iterations =  8.0

     negative rho (up, down):  1.109E+00 0.000E+00

     total cpu time spent up to now is        5.6 secs

     total energy              =       7.26564544 Ry
     Harris-Foulkes estimate   =   -2661.84394606 Ry
     estimated scf accuracy    <      32.52020086 Ry

     iteration # 66     ecut=    30.00 Ry     beta=0.70
     Davidson diagonalization with overlap
     ethr =  1.00E-02,  avg # of iterations = 10.0

     negative rho (up, down):  5.853E-01 0.000E+00

     total cpu time spent up to now is        5.7 secs

     total energy              =      25.18253335 Ry
     Harris-Foulkes estimate   =   -2942.02366989 Ry
     estimated scf accuracy    <      32.62966758 Ry

     iteration # 67     ecut=    30.00 Ry     beta=0.70
     Davidson diagonalization with overlap
     ethr =  1.00E-02,  avg # of iterations = 12.0

     negative rho (up, down):  4.124E-01 0.000E+00

     total cpu time spent up to now is        5.8 secs

     total energy              =      83.74130730 Ry
     Harris-Foulkes estimate   =   -3508.60683847 Ry
     estimated scf accuracy    <      24.84715682 Ry

     iteration # 68     ecut=    30.00 Ry     beta=0.70
     Davidson diagonalization with overlap
     ethr =  1.00E-02,  avg # of iterations = 10.0

     negative rho (up, down):  1.768E-01 0.000E+00

     total cpu time spent up to now is        5.8 secs

     total energy              =    -130.17021087 Ry
     Harris-Foulkes estimate   =    -736.58329753 Ry
     estimated scf accuracy    <      22.90114432 Ry

     iteration # 69     ecut=    30.00 Ry     beta=0.70
     Davidson diagonalization with overlap
     ethr =  1.00E-02,  avg # of iterations =  6.0

     negative rho (up, down):  2.733E-01 0.000E+00

     total cpu time spent up to now is        5.9 secs

     total energy              =      23.99488330 Ry
     Harris-Foulkes estimate   =   -4156.14416044 Ry
     estimated scf accuracy    <      18.80334048 Ry

     iteration # 70     ecut=    30.00 Ry     beta=0.70
     Davidson diagonalization with overlap
     ethr =  1.00E-02,  avg # of iterations =  9.0

     negative rho (up, down):  3.811E-01 0.000E+00

     total cpu time spent up to now is        6.0 secs

     total energy              =     -40.01470942 Ry
     Harris-Foulkes estimate   =   -1068.17699139 Ry
     estimated scf accuracy    <      29.45079254 Ry

     iteration # 71     ecut=    30.00 Ry     beta=0.70
     Davidson diagonalization with overlap
     ethr =  1.00E-02,  avg # of iterations =  7.0

     negative rho (up, down):  4.972E-01 0.000E+00

     total cpu time spent up to now is        6.0 secs

     total energy              =      84.92482667 Ry
     Harris-Foulkes estimate   =    -593.59819517 Ry
     estimated scf accuracy    <      28.31889149 Ry

     iteration # 72     ecut=    30.00 Ry     beta=0.70
     Davidson diagonalization with overlap
     ethr =  1.00E-02,  avg # of iterations =  8.0

     negative rho (up, down):  6.504E-01 0.000E+00

     total cpu time spent up to now is        6.1 secs

     total energy              =      12.34758771 Ry
     Harris-Foulkes estimate   =    -769.87198714 Ry
     estimated scf accuracy    <      26.50842179 Ry

     iteration # 73     ecut=    30.00 Ry     beta=0.70
     Davidson diagonalization with overlap
     ethr =  1.00E-02,  avg # of iterations =  8.0

     negative rho (up, down):  6.682E-01 0.000E+00

     total cpu time spent up to now is        6.1 secs

     total energy              =    -516.53586969 Ry
     Harris-Foulkes estimate   =   -1784.66118385 Ry
     estimated scf accuracy    <      19.44136622 Ry

     iteration # 74     ecut=    30.00 Ry     beta=0.70
     Davidson diagonalization with overlap
     ethr =  1.00E-02,  avg # of iterations =  6.0

     negative rho (up, down):  6.842E-01 0.000E+00

     total cpu time spent up to now is        6.2 secs

     total energy              =    -425.91030541 Ry
     Harris-Foulkes estimate   =   -4480.85463789 Ry
     estimated scf accuracy    <      23.75190962 Ry

     iteration # 75     ecut=    30.00 Ry     beta=0.70
     Davidson diagonalization with overlap
     ethr =  1.00E-02,  avg # of iterations =  5.0

     negative rho (up, down):  7.257E-03 0.000E+00

     total cpu time spent up to now is        6.2 secs

     total energy              =      87.65760799 Ry
     Harris-Foulkes estimate   =   -8877.42067693 Ry
     estimated scf accuracy    <      19.37925035 Ry

     iteration # 76     ecut=    30.00 Ry     beta=0.70
     Davidson diagonalization with overlap
     ethr =  1.00E-02,  avg # of iterations =  8.0

     negative rho (up, down):  3.270E-04 0.000E+00

     total cpu time spent up to now is        6.3 secs

     total energy              =      32.38833369 Ry
     Harris-Foulkes estimate   =    -178.06079352 Ry
     estimated scf accuracy    <      19.19820671 Ry

     iteration # 77     ecut=    30.00 Ry     beta=0.70
     Davidson diagonalization with overlap
     ethr =  1.00E-02,  avg # of iterations =  4.0

     total cpu time spent up to now is        6.3 secs

     total energy              =     -31.60108851 Ry
     Harris-Foulkes estimate   =     -34.08870055 Ry
     estimated scf accuracy    <       6.89793912 Ry

     iteration # 78     ecut=    30.00 Ry     beta=0.70
     Davidson diagonalization with overlap
     ethr =  1.00E-02,  avg # of iterations =  2.0

     negative rho (up, down):  8.758E-04 0.000E+00

     total cpu time spent up to now is        6.4 secs

     total energy              =     -31.70228067 Ry
     Harris-Foulkes estimate   =     -32.38078238 Ry
     estimated scf accuracy    <       2.97851216 Ry

     iteration # 79     ecut=    30.00 Ry     beta=0.70
     Davidson diagonalization with overlap
     ethr =  1.00E-02,  avg # of iterations =  2.0

     negative rho (up, down):  2.786E-02 0.000E+00

     total cpu time spent up to now is        6.4 secs

     total energy              =     -34.82356024 Ry
     Harris-Foulkes estimate   =     -32.37909331 Ry
     estimated scf accuracy    <       2.56720020 Ry

     iteration # 80     ecut=    30.00 Ry     beta=0.70
     Davidson diagonalization with overlap
     ethr =  1.00E-02,  avg # of iterations =  4.0

     negative rho (up, down):  1.058E-02 0.000E+00

     total cpu time spent up to now is        6.5 secs

     total energy              =      19.63409995 Ry
     Harris-Foulkes estimate   =    -199.44973889 Ry
     estimated scf accuracy    <      15.76404494 Ry

     iteration # 81     ecut=    30.00 Ry     beta=0.70
     Davidson diagonalization with overlap
     ethr =  1.00E-02,  avg # of iterations =  5.0

     negative rho (up, down):  4.706E-03 0.000E+00

     total cpu time spent up to now is        6.5 secs

     total energy              =     -31.73422153 Ry
     Harris-Foulkes estimate   =     -32.46342709 Ry
     estimated scf accuracy    <       1.25557243 Ry

     iteration # 82     ecut=    30.00 Ry     beta=0.70
     Davidson diagonalization with overlap
     ethr =  1.00E-02,  avg # of iterations =  2.0

     negative rho (up, down):  1.018E-03 0.000E+00

     total cpu time spent up to now is        6.5 secs

     total energy              =     -31.61533727 Ry
     Harris-Foulkes estimate   =     -32.01113515 Ry
     estimated scf accuracy    <       0.41698333 Ry

     iteration # 83     ecut=    30.00 Ry     beta=0.70
     Davidson diagonalization with overlap
     ethr =  5.21E-03,  avg # of iterations =  2.0

     negative rho (up, down):  1.536E-03 0.000E+00

     total cpu time spent up to now is        6.6 secs

     total energy              =     -31.86654758 Ry
     Harris-Foulkes estimate   =     -31.89034614 Ry
     estimated scf accuracy    <       0.24510804 Ry

     iteration # 84     ecut=    30.00 Ry     beta=0.70
     Davidson diagonalization with overlap
     ethr =  3.06E-03,  avg # of iterations =  1.0

     negative rho (up, down):  4.839E-05 0.000E+00

     total cpu time spent up to now is        6.6 secs

     total energy              =     -31.80294306 Ry
     Harris-Foulkes estimate   =     -31.90892334 Ry
     estimated scf accuracy    <       1.06924174 Ry

     iteration # 85     ecut=    30.00 Ry     beta=0.70
     Davidson diagonalization with overlap
     ethr =  3.06E-03,  avg # of iterations =  1.0

     negative rho (up, down):  4.531E-05 0.000E+00

     total cpu time spent up to now is        6.6 secs

     total energy              =     -31.86818544 Ry
     Harris-Foulkes estimate   =     -31.93477499 Ry
     estimated scf accuracy    <       1.81539347 Ry

     iteration # 86     ecut=    30.00 Ry     beta=0.70
     Davidson diagonalization with overlap
     ethr =  3.06E-03,  avg # of iterations =  1.0

     negative rho (up, down):  5.746E-06 0.000E+00

     total cpu time spent up to now is        6.7 secs

     total energy              =     -31.81203833 Ry
     Harris-Foulkes estimate   =     -31.87506275 Ry
     estimated scf accuracy    <       0.72126775 Ry

     iteration # 87     ecut=    30.00 Ry     beta=0.70
     Davidson diagonalization with overlap
     ethr =  3.06E-03,  avg # of iterations =  1.0

     negative rho (up, down):  2.507E-08 0.000E+00

     total cpu time spent up to now is        6.7 secs

     total energy              =     -31.83651174 Ry
     Harris-Foulkes estimate   =     -31.88643392 Ry
     estimated scf accuracy    <       0.95174785 Ry

     iteration # 88     ecut=    30.00 Ry     beta=0.70
     Davidson diagonalization with overlap
     ethr =  3.06E-03,  avg # of iterations =  1.0

     negative rho (up, down):  4.309E-08 0.000E+00

     total cpu time spent up to now is        6.7 secs

     total energy              =     -31.85396994 Ry
     Harris-Foulkes estimate   =     -31.85730379 Ry
     estimated scf accuracy    <       0.09680730 Ry

     iteration # 89     ecut=    30.00 Ry     beta=0.70
     Davidson diagonalization with overlap
     ethr =  1.21E-03,  avg # of iterations =  1.0

     negative rho (up, down):  3.887E-06 0.000E+00

     total cpu time spent up to now is        6.8 secs

     total energy              =     -31.85714112 Ry
     Harris-Foulkes estimate   =     -31.85556347 Ry
     estimated scf accuracy    <       0.04976029 Ry

     iteration # 90     ecut=    30.00 Ry     beta=0.70
     Davidson diagonalization with overlap
     ethr =  6.22E-04,  avg # of iterations =  1.0

     total cpu time spent up to now is        6.8 secs

     total energy              =     -31.84041171 Ry
     Harris-Foulkes estimate   =     -31.85836012 Ry
     estimated scf accuracy    <       0.08558101 Ry

     iteration # 91     ecut=    30.00 Ry     beta=0.70
     Davidson diagonalization with overlap
     ethr =  6.22E-04,  avg # of iterations =  1.0

     negative rho (up, down):  4.912E-07 0.000E+00

     total cpu time spent up to now is        6.8 secs

     total energy              =     -31.88169799 Ry
     Harris-Foulkes estimate   =     -31.92352597 Ry
     estimated scf accuracy    <       1.36637250 Ry

     iteration # 92     ecut=    30.00 Ry     beta=0.70
     Davidson diagonalization with overlap
     ethr =  6.22E-04,  avg # of iterations =  1.0

     negative rho (up, down):  1.072E-08 0.000E+00

     total cpu time spent up to now is        6.9 secs

     total energy              =     -31.81532790 Ry
     Harris-Foulkes estimate   =     -31.88012777 Ry
     estimated scf accuracy    <       1.41598004 Ry

     iteration # 93     ecut=    30.00 Ry     beta=0.70
     Davidson diagonalization with overlap
     ethr =  6.22E-04,  avg # of iterations =  1.0

     total cpu time spent up to now is        6.9 secs

     total energy              =     -31.85230257 Ry
     Harris-Foulkes estimate   =     -31.86635207 Ry
     estimated scf accuracy    <       0.44836986 Ry

     iteration # 94     ecut=    30.00 Ry     beta=0.70
     Davidson diagonalization with overlap
     ethr =  6.22E-04,  avg # of iterations =  1.0

     total cpu time spent up to now is        6.9 secs

     total energy              =     -31.85809745 Ry
     Harris-Foulkes estimate   =     -31.85825975 Ry
     estimated scf accuracy    <       0.00137009 Ry

     iteration # 95     ecut=    30.00 Ry     beta=0.70
     Davidson diagonalization with overlap
     ethr =  1.71E-05,  avg # of iterations =  9.0

     total cpu time spent up to now is        7.0 secs

     total energy              =     -31.85818840 Ry
     Harris-Foulkes estimate   =     -31.85831473 Ry
     estimated scf accuracy    <       0.00889104 Ry

     iteration # 96     ecut=    30.00 Ry     beta=0.70
     Davidson diagonalization with overlap
     ethr =  1.71E-05,  avg # of iterations =  1.0

     total cpu time spent up to now is        7.0 secs

     total energy              =     -31.85818005 Ry
     Harris-Foulkes estimate   =     -31.85822455 Ry
     estimated scf accuracy    <       0.00169167 Ry

     iteration # 97     ecut=    30.00 Ry     beta=0.70
     Davidson diagonalization with overlap
     ethr =  1.71E-05,  avg # of iterations =  1.0

     total cpu time spent up to now is        7.0 secs

     total energy              =     -31.85820357 Ry
     Harris-Foulkes estimate   =     -31.85820338 Ry
     estimated scf accuracy    <       0.00000285 Ry

     iteration # 98     ecut=    30.00 Ry     beta=0.70
     Davidson diagonalization with overlap
     ethr =  3.56E-08,  avg # of iterations =  5.0

     total cpu time spent up to now is        7.1 secs

     total energy              =     -31.85820238 Ry
     Harris-Foulkes estimate   =     -31.85820392 Ry
     estimated scf accuracy    <       0.00004495 Ry

     iteration # 99     ecut=    30.00 Ry     beta=0.70
     Davidson diagonalization with overlap
     ethr =  3.56E-08,  avg # of iterations =  1.0

     total cpu time spent up to now is        7.1 secs

     total energy              =     -31.85820324 Ry
     Harris-Foulkes estimate   =     -31.85820333 Ry
     estimated scf accuracy    <       0.00000378 Ry

     iteration #100     ecut=    30.00 Ry     beta=0.70
     Davidson diagonalization with overlap
     ethr =  3.56E-08,  avg # of iterations =  1.0

     total cpu time spent up to now is        7.1 secs

     End of self-consistent calculation

          k = 0.0000 0.0000 0.0000 ( 22119 PWs)   bands (ev):

   -26.0206 -11.0409  -7.1448  -7.1445  -7.0006  -0.4606   0.5548   0.7920

     the Fermi energy is    -6.9727 ev

!    total energy              =     -31.85820325 Ry
     Harris-Foulkes estimate   =     -31.85820329 Ry
     estimated scf accuracy    <          3.7E-09 Ry

     convergence has been achieved in 100 iterations

     Forces acting on atoms (Ry/au):

     atom    1 type  1   force =    -0.38113436    0.05273460   -0.39229576
     atom    2 type  1   force =    -0.00011547   -0.00026193   -0.00040150
     atom    3 type  2   force =     0.38124984   -0.05247267    0.39269726

     Total force =     0.777339     Total SCF correction =     0.000026

     Entering Dynamics:    iteration =     3
                           time      =   0.0145 pico-seconds


     Andersen thermostat:    3 collisions

ATOMIC_POSITIONS (bohr)
H        1.710982631  10.005385412   8.358498302
H        4.317560691  17.998288169   1.860266263
O        7.340544289   9.497030423  14.275337437


     kinetic energy (Ekin) =     0.50283238 Ry
     temperature           = 26463.61956780 K 
     Ekin + Etot (const)   =   -31.35537087 Ry
     Message from routine dynamics:
     Total linear momentum <> 0

     Linear momentum :   -0.4863233698   -0.2401151805    0.0916538649

     Writing output data file pwscf.save

     second order wave-functions extrapolation
     Check: negative starting charge=   -0.353089
     second order charge density extrapolation
     Check: negative starting charge=   -0.347735

     negative rho (up, down):  1.112E+00 0.000E+00

     total cpu time spent up to now is        7.5 secs

     per-process dynamical memory:    20.4 Mb

     Self-consistent Calculation

     iteration #  1     ecut=    30.00 Ry     beta=0.70
     Davidson diagonalization with overlap
     ethr =  1.00E-06,  avg # of iterations = 12.0

     negative rho (up, down):  2.378E-01 0.000E+00

     total cpu time spent up to now is        7.6 secs

     total energy              =      92.74446040 Ry
     Harris-Foulkes estimate   =    -293.97355135 Ry
     estimated scf accuracy    <      29.83833701 Ry

     iteration #  2     ecut=    30.00 Ry     beta=0.70
     Davidson diagonalization with overlap
     ethr =  1.00E-02,  avg # of iterations = 11.0

     negative rho (up, down):  1.169E-01 0.000E+00

     total cpu time spent up to now is        7.6 secs

     total energy              =      63.95755526 Ry
     Harris-Foulkes estimate   =    -168.56168542 Ry
     estimated scf accuracy    <      32.24262453 Ry

     iteration #  3     ecut=    30.00 Ry     beta=0.70
     Davidson diagonalization with overlap
     ethr =  1.00E-02,  avg # of iterations =  4.0

     negative rho (up, down):  7.691E-02 0.000E+00

     total cpu time spent up to now is        7.7 secs

     total energy              =      -2.16970742 Ry
     Harris-Foulkes estimate   =     -95.46633747 Ry
     estimated scf accuracy    <      21.05806783 Ry

     iteration #  4     ecut=    30.00 Ry     beta=0.70
     Davidson diagonalization with overlap
     ethr =  1.00E-02,  avg # of iterations =  5.0

     negative rho (up, down):  7.144E-02 0.000E+00

     total cpu time spent up to now is        7.7 secs

     total energy              =     -14.63953045 Ry
     Harris-Foulkes estimate   =     -46.12492900 Ry
     estimated scf accuracy    <      18.70783223 Ry

     iteration #  5     ecut=    30.00 Ry     beta=0.70
     Davidson diagonalization with overlap
     ethr =  1.00E-02,  avg # of iterations =  4.0

     negative rho (up, down):  6.703E-02 0.000E+00

     total cpu time spent up to now is        7.8 secs

     total energy              =     -34.19906879 Ry
     Harris-Foulkes estimate   =     -36.68944537 Ry
     estimated scf accuracy    <       9.40293994 Ry

     iteration #  6     ecut=    30.00 Ry     beta=0.70
     Davidson diagonalization with overlap
     ethr =  1.00E-02,  avg # of iterations =  1.0

     negative rho (up, down):  6.373E-02 0.000E+00

     total cpu time spent up to now is        7.8 secs

     total energy              =     -34.06265038 Ry
     Harris-Foulkes estimate   =     -34.91308921 Ry
     estimated scf accuracy    <       7.14819372 Ry

     iteration #  7     ecut=    30.00 Ry     beta=0.70
     Davidson diagonalization with overlap
     ethr =  1.00E-02,  avg # of iterations =  1.0

     negative rho (up, down):  1.419E-01 0.000E+00

     total cpu time spent up to now is        7.8 secs

     total energy              =     -31.83678631 Ry
     Harris-Foulkes estimate   =     -34.07002947 Ry
     estimated scf accuracy    <       5.72171158 Ry

     iteration #  8     ecut=    30.00 Ry     beta=0.70
     Davidson diagonalization with overlap
     ethr =  1.00E-02,  avg # of iterations =  2.0

     negative rho (up, down):  2.231E-01 0.000E+00

     total cpu time spent up to now is        7.9 secs

     total energy              =     -32.58701981 Ry
     Harris-Foulkes estimate   =     -33.34785094 Ry
     estimated scf accuracy    <       4.22242599 Ry

     iteration #  9     ecut=    30.00 Ry     beta=0.70
     Davidson diagonalization with overlap
     ethr =  1.00E-02,  avg # of iterations =  1.0

     negative rho (up, down):  1.806E-01 0.000E+00

     total cpu time spent up to now is        7.9 secs

     total energy              =     -32.34184191 Ry
     Harris-Foulkes estimate   =     -32.61652096 Ry
     estimated scf accuracy    <       3.10355409 Ry

     iteration # 10     ecut=    30.00 Ry     beta=0.70
     Davidson diagonalization with overlap
     ethr =  1.00E-02,  avg # of iterations =  2.0

     negative rho (up, down):  5.739E-01 0.000E+00

     total cpu time spent up to now is        7.9 secs

     total energy              =     -34.25787056 Ry
     Harris-Foulkes estimate   =     -32.35544857 Ry
     estimated scf accuracy    <       2.73218296 Ry

     iteration # 11     ecut=    30.00 Ry     beta=0.70
     Davidson diagonalization with overlap
     ethr =  1.00E-02,  avg # of iterations =  5.0

     negative rho (up, down):  3.926E-01 0.000E+00

     total cpu time spent up to now is        8.0 secs

     total energy              =    -131.60463262 Ry
     Harris-Foulkes estimate   =    -319.45033470 Ry
     estimated scf accuracy    <      56.29100554 Ry

     iteration # 12     ecut=    30.00 Ry     beta=0.70
     Davidson diagonalization with overlap
     ethr =  1.00E-02,  avg # of iterations =  5.0

     negative rho (up, down):  3.345E-01 0.000E+00

     total cpu time spent up to now is        8.0 secs

     total energy              =    5069.65769291 Ry
     Harris-Foulkes estimate   =    -353.66721549 Ry
     estimated scf accuracy    <      23.79821807 Ry

     iteration # 13     ecut=    30.00 Ry     beta=0.70
     Davidson diagonalization with overlap
     ethr =  1.00E-02,  avg # of iterations =  4.0

     negative rho (up, down):  3.136E-01 0.000E+00

     total cpu time spent up to now is        8.1 secs

     total energy              =      49.84383024 Ry
     Harris-Foulkes estimate   =    -899.03994836 Ry
     estimated scf accuracy    <      48.59881855 Ry

     iteration # 14     ecut=    30.00 Ry     beta=0.70
     Davidson diagonalization with overlap
     ethr =  1.00E-02,  avg # of iterations =  6.0

     negative rho (up, down):  2.980E-01 0.000E+00

     total cpu time spent up to now is        8.1 secs

     total energy              =     436.42745641 Ry
     Harris-Foulkes estimate   =    -130.32684719 Ry
     estimated scf accuracy    <      37.76262086 Ry

     iteration # 15     ecut=    30.00 Ry     beta=0.70
     Davidson diagonalization with overlap
     ethr =  1.00E-02,  avg # of iterations =  4.0

     negative rho (up, down):  1.301E-01 0.000E+00

     total cpu time spent up to now is        8.2 secs

     total energy              =   -1070.29075489 Ry
     Harris-Foulkes estimate   =    -354.16909685 Ry
     estimated scf accuracy    <      43.72417342 Ry

     iteration # 16     ecut=    30.00 Ry     beta=0.70
     Davidson diagonalization with overlap
     ethr =  1.00E-02,  avg # of iterations =  4.0

     negative rho (up, down):  1.913E-01 0.000E+00

     total cpu time spent up to now is        8.2 secs

     total energy              =    -146.15989905 Ry
     Harris-Foulkes estimate   =   -2572.87942831 Ry
     estimated scf accuracy    <      45.57645250 Ry

     iteration # 17     ecut=    30.00 Ry     beta=0.70
     Davidson diagonalization with overlap
     ethr =  1.00E-02,  avg # of iterations =  6.0

     negative rho (up, down):  1.118E-01 0.000E+00

     total cpu time spent up to now is        8.3 secs

     total energy              =       4.22093759 Ry
     Harris-Foulkes estimate   =    -225.17939529 Ry
     estimated scf accuracy    <      24.22101145 Ry

     iteration # 18     ecut=    30.00 Ry     beta=0.70
     Davidson diagonalization with overlap
     ethr =  1.00E-02,  avg # of iterations =  5.0

     negative rho (up, down):  2.455E-01 0.000E+00

     total cpu time spent up to now is        8.3 secs

     total energy              =    -200.47620067 Ry
     Harris-Foulkes estimate   =    -360.35382274 Ry
     estimated scf accuracy    <      17.82837805 Ry

     iteration # 19     ecut=    30.00 Ry     beta=0.70
     Davidson diagonalization with overlap
     ethr =  1.00E-02,  avg # of iterations =  7.0

     negative rho (up, down):  1.192E+00 0.000E+00

     total cpu time spent up to now is        8.4 secs

     total energy              =      -1.81430292 Ry
     Harris-Foulkes estimate   =   -1251.84561029 Ry
     estimated scf accuracy    <      50.19457100 Ry

     iteration # 20     ecut=    30.00 Ry     beta=0.70
     Davidson diagonalization with overlap
     ethr =  1.00E-02,  avg # of iterations =  6.0

     negative rho (up, down):  1.378E+00 0.000E+00

     total cpu time spent up to now is        8.4 secs

     total energy              =   -3202.47282121 Ry
     Harris-Foulkes estimate   =    -899.11189731 Ry
     estimated scf accuracy    <      27.72664708 Ry

     iteration # 21     ecut=    30.00 Ry     beta=0.70
     Davidson diagonalization with overlap
     ethr =  1.00E-02,  avg # of iterations =  6.0

     negative rho (up, down):  1.417E+00 0.000E+00

     total cpu time spent up to now is        8.5 secs

     total energy              =   -3141.40143275 Ry
     Harris-Foulkes estimate   =   -7653.27928915 Ry
     estimated scf accuracy    <      30.49907990 Ry

     iteration # 22     ecut=    30.00 Ry     beta=0.70
     Davidson diagonalization with overlap
     ethr =  1.00E-02,  avg # of iterations =  7.0

     negative rho (up, down):  1.567E+00 0.000E+00

     total cpu time spent up to now is        8.5 secs

     total energy              =    -257.73663511 Ry
     Harris-Foulkes estimate   =  -12795.88924512 Ry
     estimated scf accuracy    <      24.14005343 Ry

     iteration # 23     ecut=    30.00 Ry     beta=0.70
     Davidson diagonalization with overlap
     ethr =  1.00E-02,  avg # of iterations =  6.0

     negative rho (up, down):  1.363E+00 0.000E+00

     total cpu time spent up to now is        8.6 secs

     total energy              =    -239.11754463 Ry
     Harris-Foulkes estimate   =   -2848.53453676 Ry
     estimated scf accuracy    <      31.62685820 Ry

     iteration # 24     ecut=    30.00 Ry     beta=0.70
     Davidson diagonalization with overlap
     ethr =  1.00E-02,  avg # of iterations =  8.0

     negative rho (up, down):  1.117E+00 0.000E+00

     total cpu time spent up to now is        8.7 secs

     total energy              =   -8136.26958932 Ry
     Harris-Foulkes estimate   =   -3270.41454486 Ry
     estimated scf accuracy    <      36.20412002 Ry

     iteration # 25     ecut=    30.00 Ry     beta=0.70
     Davidson diagonalization with overlap
     ethr =  1.00E-02,  avg # of iterations =  6.0

     negative rho (up, down):  9.041E-01 0.000E+00

     total cpu time spent up to now is        8.7 secs

     total energy              =  -13688.67598068 Ry
     Harris-Foulkes estimate   =  -31881.11413600 Ry
     estimated scf accuracy    <      35.74709392 Ry

     iteration # 26     ecut=    30.00 Ry     beta=0.70
     Davidson diagonalization with overlap
     ethr =  1.00E-02,  avg # of iterations =  8.0

     negative rho (up, down):  1.147E+00 0.000E+00

     total cpu time spent up to now is        8.8 secs

     total energy              =    -636.96952347 Ry
     Harris-Foulkes estimate   =  -21603.69135051 Ry
     estimated scf accuracy    <      40.62758562 Ry

     iteration # 27     ecut=    30.00 Ry     beta=0.70
     Davidson diagonalization with overlap
     ethr =  1.00E-02,  avg # of iterations =  5.0

     negative rho (up, down):  6.096E-01 0.000E+00

     total cpu time spent up to now is        8.8 secs

     total energy              =    -169.94947464 Ry
     Harris-Foulkes estimate   =  -21696.66017387 Ry
     estimated scf accuracy    <      53.13787129 Ry

     iteration # 28     ecut=    30.00 Ry     beta=0.70
     Davidson diagonalization with overlap
     ethr =  1.00E-02,  avg # of iterations =  6.0

     negative rho (up, down):  3.410E-01 0.000E+00

     total cpu time spent up to now is        8.9 secs

     total energy              =      86.61677499 Ry
     Harris-Foulkes estimate   =   -1121.32962520 Ry
     estimated scf accuracy    <      26.94003223 Ry

     iteration # 29     ecut=    30.00 Ry     beta=0.70
     Davidson diagonalization with overlap
     ethr =  1.00E-02,  avg # of iterations =  6.0

     negative rho (up, down):  3.935E-01 0.000E+00

     total cpu time spent up to now is        8.9 secs

     total energy              =      71.11813398 Ry
     Harris-Foulkes estimate   =   -1126.30497005 Ry
[...]

     total cpu time spent up to now is       10.5 secs

     total energy              =     133.49309690 Ry
     Harris-Foulkes estimate   =   -4018.87654833 Ry
     estimated scf accuracy    <      40.65100773 Ry

     iteration # 59     ecut=    30.00 Ry     beta=0.70
     Davidson diagonalization with overlap
     ethr =  1.00E-02,  avg # of iterations = 15.0

     negative rho (up, down):  9.222E-02 0.000E+00

     total cpu time spent up to now is       10.6 secs

     total energy              =      -5.52311711 Ry
     Harris-Foulkes estimate   =    -118.02831043 Ry
     estimated scf accuracy    <      21.71742254 Ry

     iteration # 60     ecut=    30.00 Ry     beta=0.70
     Davidson diagonalization with overlap
     ethr =  1.00E-02,  avg # of iterations =  5.0

     negative rho (up, down):  1.033E-01 0.000E+00

     total cpu time spent up to now is       10.7 secs

     total energy              =     -72.40898072 Ry
     Harris-Foulkes estimate   =    -871.35464838 Ry
     estimated scf accuracy    <      19.24320406 Ry

     iteration # 61     ecut=    30.00 Ry     beta=0.70
     Davidson diagonalization with overlap
     ethr =  1.00E-02,  avg # of iterations = 15.0

     negative rho (up, down):  3.272E-01 0.000E+00

     total cpu time spent up to now is       10.7 secs

     total energy              =     -22.50491160 Ry
     Harris-Foulkes estimate   =    -674.34915752 Ry
     estimated scf accuracy    <      19.76975580 Ry

     iteration # 62     ecut=    30.00 Ry     beta=0.70
     Davidson diagonalization with overlap
     ethr =  1.00E-02,  avg # of iterations =  8.0

     negative rho (up, down):  3.448E-01 0.000E+00

     total cpu time spent up to now is       10.8 secs

     total energy              =   -3998.38812585 Ry
     Harris-Foulkes estimate   =    -546.97062494 Ry
     estimated scf accuracy    <      30.30888017 Ry

     iteration # 63     ecut=    30.00 Ry     beta=0.70
     Davidson diagonalization with overlap
     ethr =  1.00E-02,  avg # of iterations =  5.0

     negative rho (up, down):  3.639E-01 0.000E+00

     total cpu time spent up to now is       10.8 secs

     total energy              =    -158.92506300 Ry
     Harris-Foulkes estimate   =  -16992.52863104 Ry
     estimated scf accuracy    <      36.96788010 Ry

     iteration # 64     ecut=    30.00 Ry     beta=0.70
     Davidson diagonalization with overlap
     ethr =  1.00E-02,  avg # of iterations =  8.0

     negative rho (up, down):  3.271E-01 0.000E+00

     total cpu time spent up to now is       10.9 secs

     total energy              =      63.45475150 Ry
     Harris-Foulkes estimate   =   -4588.11357883 Ry
     estimated scf accuracy    <      36.11513182 Ry

     iteration # 65     ecut=    30.00 Ry     beta=0.70
     Davidson diagonalization with overlap
     ethr =  1.00E-02,  avg # of iterations =  8.0

     negative rho (up, down):  2.855E-01 0.000E+00

     total cpu time spent up to now is       10.9 secs

     total energy              =    -101.59630604 Ry
     Harris-Foulkes estimate   =    -151.79356809 Ry
     estimated scf accuracy    <      28.63409752 Ry

     iteration # 66     ecut=    30.00 Ry     beta=0.70
     Davidson diagonalization with overlap
     ethr =  1.00E-02,  avg # of iterations =  6.0

     negative rho (up, down):  9.751E-02 0.000E+00

     total cpu time spent up to now is       11.0 secs

     total energy              =     115.36705229 Ry
     Harris-Foulkes estimate   =   -2185.98853211 Ry
     estimated scf accuracy    <      26.18475437 Ry

     iteration # 67     ecut=    30.00 Ry     beta=0.70
     Davidson diagonalization with overlap
     ethr =  1.00E-02,  avg # of iterations =  7.0

     negative rho (up, down):  1.682E-01 0.000E+00

     total cpu time spent up to now is       11.1 secs

     total energy              =       8.22101758 Ry
     Harris-Foulkes estimate   =    -292.76088671 Ry
     estimated scf accuracy    <      25.92594354 Ry

     iteration # 68     ecut=    30.00 Ry     beta=0.70
     Davidson diagonalization with overlap
     ethr =  1.00E-02,  avg # of iterations =  5.0

     negative rho (up, down):  7.939E-01 0.000E+00

     total cpu time spent up to now is       11.1 secs

     total energy              =   11824.43348355 Ry
     Harris-Foulkes estimate   =    -627.78230849 Ry
     estimated scf accuracy    <      29.63241915 Ry

     iteration # 69     ecut=    30.00 Ry     beta=0.70
     Davidson diagonalization with overlap
     ethr =  1.00E-02,  avg # of iterations = 10.0

     negative rho (up, down):  8.413E-01 0.000E+00

     total cpu time spent up to now is       11.2 secs

     total energy              =      86.89314102 Ry
     Harris-Foulkes estimate   =    -850.88116093 Ry
     estimated scf accuracy    <      24.37638668 Ry

     iteration # 70     ecut=    30.00 Ry     beta=0.70
     Davidson diagonalization with overlap
     ethr =  1.00E-02,  avg # of iterations = 10.0

     negative rho (up, down):  8.162E-01 0.000E+00

     total cpu time spent up to now is       11.2 secs

     total energy              =   -2224.18124968 Ry
     Harris-Foulkes estimate   =   -2242.17435047 Ry
     estimated scf accuracy    <      20.82912987 Ry

     iteration # 71     ecut=    30.00 Ry     beta=0.70
     Davidson diagonalization with overlap
     ethr =  1.00E-02,  avg # of iterations = 10.0

     negative rho (up, down):  4.312E-01 0.000E+00

     total cpu time spent up to now is       11.3 secs

     total energy              =      83.05074105 Ry
     Harris-Foulkes estimate   =   -5194.72224518 Ry
     estimated scf accuracy    <      16.94990213 Ry

     iteration # 72     ecut=    30.00 Ry     beta=0.70
     Davidson diagonalization with overlap
     ethr =  1.00E-02,  avg # of iterations =  8.0

     negative rho (up, down):  2.416E-01 0.000E+00

     total cpu time spent up to now is       11.4 secs

     total energy              =     116.06196425 Ry
     Harris-Foulkes estimate   =   -2040.42217280 Ry
     estimated scf accuracy    <      28.17448783 Ry

     iteration # 73     ecut=    30.00 Ry     beta=0.70
     Davidson diagonalization with overlap
     ethr =  1.00E-02,  avg # of iterations =  9.0

     negative rho (up, down):  2.664E-01 0.000E+00

     total cpu time spent up to now is       11.4 secs

     total energy              =      62.13025962 Ry
     Harris-Foulkes estimate   =    -295.66493472 Ry
     estimated scf accuracy    <      28.12871047 Ry

     iteration # 74     ecut=    30.00 Ry     beta=0.70
     Davidson diagonalization with overlap
     ethr =  1.00E-02,  avg # of iterations =  6.0

     negative rho (up, down):  1.863E-01 0.000E+00

     total cpu time spent up to now is       11.5 secs

     total energy              =     -45.88694498 Ry
     Harris-Foulkes estimate   =    -737.66366619 Ry
     estimated scf accuracy    <      22.88018727 Ry

     iteration # 75     ecut=    30.00 Ry     beta=0.70
     Davidson diagonalization with overlap
     ethr =  1.00E-02,  avg # of iterations =  6.0

     negative rho (up, down):  2.007E-01 0.000E+00

     total cpu time spent up to now is       11.5 secs

     total energy              =      27.57762877 Ry
     Harris-Foulkes estimate   =   -1876.52381447 Ry
     estimated scf accuracy    <      25.54610433 Ry

     iteration # 76     ecut=    30.00 Ry     beta=0.70
     Davidson diagonalization with overlap
     ethr =  1.00E-02,  avg # of iterations =  7.0

     negative rho (up, down):  2.971E-02 0.000E+00

     total cpu time spent up to now is       11.6 secs

     total energy              =     120.62181870 Ry
     Harris-Foulkes estimate   =   -4504.12894480 Ry
     estimated scf accuracy    <      39.45404722 Ry

     iteration # 77     ecut=    30.00 Ry     beta=0.70
     Davidson diagonalization with overlap
     ethr =  1.00E-02,  avg # of iterations =  8.0

     negative rho (up, down):  3.829E-02 0.000E+00

     total cpu time spent up to now is       11.6 secs

     total energy              =      14.59789482 Ry
     Harris-Foulkes estimate   =    -213.51153618 Ry
     estimated scf accuracy    <      20.94618333 Ry

     iteration # 78     ecut=    30.00 Ry     beta=0.70
     Davidson diagonalization with overlap
     ethr =  1.00E-02,  avg # of iterations =  6.0

     negative rho (up, down):  4.626E-02 0.000E+00

     total cpu time spent up to now is       11.7 secs

     total energy              =       9.49682733 Ry
     Harris-Foulkes estimate   =    -998.42613660 Ry
     estimated scf accuracy    <      22.34388229 Ry

     iteration # 79     ecut=    30.00 Ry     beta=0.70
     Davidson diagonalization with overlap
     ethr =  1.00E-02,  avg # of iterations =  7.0

     negative rho (up, down):  6.690E-02 0.000E+00

     total cpu time spent up to now is       11.8 secs

     total energy              =    -160.78304683 Ry
     Harris-Foulkes estimate   =   -1537.43977214 Ry
     estimated scf accuracy    <      24.64339208 Ry

     iteration # 80     ecut=    30.00 Ry     beta=0.70
     Davidson diagonalization with overlap
     ethr =  1.00E-02,  avg # of iterations =  6.0

     negative rho (up, down):  1.171E-01 0.000E+00

     total cpu time spent up to now is       11.8 secs

     total energy              =      34.56611303 Ry
     Harris-Foulkes estimate   =    -908.90356009 Ry
     estimated scf accuracy    <      23.46579957 Ry

     iteration # 81     ecut=    30.00 Ry     beta=0.70
     Davidson diagonalization with overlap
     ethr =  1.00E-02,  avg # of iterations =  5.0

     negative rho (up, down):  1.451E-01 0.000E+00

     total cpu time spent up to now is       11.9 secs

     total energy              =      18.71428873 Ry
     Harris-Foulkes estimate   =    -707.83398300 Ry
     estimated scf accuracy    <      24.67226725 Ry

     iteration # 82     ecut=    30.00 Ry     beta=0.70
     Davidson diagonalization with overlap
     ethr =  1.00E-02,  avg # of iterations =  7.0

     negative rho (up, down):  7.716E-02 0.000E+00

     total cpu time spent up to now is       11.9 secs

     total energy              =    -161.21042078 Ry
     Harris-Foulkes estimate   =    -544.58521080 Ry
     estimated scf accuracy    <      18.99369659 Ry

     iteration # 83     ecut=    30.00 Ry     beta=0.70
     Davidson diagonalization with overlap
     ethr =  1.00E-02,  avg # of iterations =  9.0

     negative rho (up, down):  1.134E-01 0.000E+00

     total cpu time spent up to now is       12.0 secs

     total energy              =    4819.15240319 Ry
     Harris-Foulkes estimate   =    -995.62807544 Ry
     estimated scf accuracy    <      15.02951170 Ry

     iteration # 84     ecut=    30.00 Ry     beta=0.70
     Davidson diagonalization with overlap
     ethr =  1.00E-02,  avg # of iterations =  9.0

     negative rho (up, down):  1.465E-03 0.000E+00

     total cpu time spent up to now is       12.0 secs

     total energy              =      -1.26313921 Ry
     Harris-Foulkes estimate   =    -374.03335410 Ry
     estimated scf accuracy    <      23.51597693 Ry

     iteration # 85     ecut=    30.00 Ry     beta=0.70
     Davidson diagonalization with overlap
     ethr =  1.00E-02,  avg # of iterations =  7.0

     negative rho (up, down):  6.890E-02 0.000E+00

     total cpu time spent up to now is       12.1 secs

     total energy              =     -12.97626861 Ry
     Harris-Foulkes estimate   =    -156.07053850 Ry
     estimated scf accuracy    <      23.00410741 Ry

     iteration # 86     ecut=    30.00 Ry     beta=0.70
     Davidson diagonalization with overlap
     ethr =  1.00E-02,  avg # of iterations =  9.0

     total cpu time spent up to now is       12.1 secs

     total energy              =      64.05662367 Ry
     Harris-Foulkes estimate   =    -163.47169797 Ry
     estimated scf accuracy    <      16.69698556 Ry

     iteration # 87     ecut=    30.00 Ry     beta=0.70
     Davidson diagonalization with overlap
     ethr =  1.00E-02,  avg # of iterations =  7.0

     total cpu time spent up to now is       12.2 secs

     total energy              =     -47.84414950 Ry
     Harris-Foulkes estimate   =     -49.46387533 Ry
     estimated scf accuracy    <      30.08627603 Ry

     iteration # 88     ecut=    30.00 Ry     beta=0.70
     Davidson diagonalization with overlap
     ethr =  1.00E-02,  avg # of iterations =  1.0

     negative rho (up, down):  1.381E-01 0.000E+00

     total cpu time spent up to now is       12.2 secs

     total energy              =     -41.10055873 Ry
     Harris-Foulkes estimate   =     -47.85317267 Ry
     estimated scf accuracy    <      27.65654784 Ry

     iteration # 89     ecut=    30.00 Ry     beta=0.70
     Davidson diagonalization with overlap
     ethr =  1.00E-02,  avg # of iterations =  5.0

     negative rho (up, down):  1.178E-01 0.000E+00

     total cpu time spent up to now is       12.3 secs

     total energy              =     -76.74978225 Ry
     Harris-Foulkes estimate   =    -887.01061021 Ry
     estimated scf accuracy    <      17.54136405 Ry

     iteration # 90     ecut=    30.00 Ry     beta=0.70
     Davidson diagonalization with overlap
     ethr =  1.00E-02,  avg # of iterations = 11.0

     negative rho (up, down):  1.588E-01 0.000E+00

     total cpu time spent up to now is       12.3 secs

     total energy              =      -1.21793478 Ry
     Harris-Foulkes estimate   =   -1880.66738271 Ry
     estimated scf accuracy    <      13.47534579 Ry

     iteration # 91     ecut=    30.00 Ry     beta=0.70
     Davidson diagonalization with overlap
     ethr =  1.00E-02,  avg # of iterations =  6.0

     negative rho (up, down):  3.922E-01 0.000E+00

     total cpu time spent up to now is       12.4 secs

     total energy              =     -21.34218219 Ry
     Harris-Foulkes estimate   =     -81.13516914 Ry
     estimated scf accuracy    <      16.29611504 Ry

     iteration # 92     ecut=    30.00 Ry     beta=0.70
     Davidson diagonalization with overlap
     ethr =  1.00E-02,  avg # of iterations =  7.0

     negative rho (up, down):  6.252E-01 0.000E+00

     total cpu time spent up to now is       12.4 secs

     total energy              =    -194.49087902 Ry
     Harris-Foulkes estimate   =    -179.40507737 Ry
     estimated scf accuracy    <      18.10421229 Ry

     iteration # 93     ecut=    30.00 Ry     beta=0.70
     Davidson diagonalization with overlap
     ethr =  1.00E-02,  avg # of iterations =  9.0

     negative rho (up, down):  2.531E-01 0.000E+00

     total cpu time spent up to now is       12.5 secs

     total energy              =      87.98865808 Ry
     Harris-Foulkes estimate   =   -1173.32272613 Ry
     estimated scf accuracy    <      41.60179927 Ry

     iteration # 94     ecut=    30.00 Ry     beta=0.70
     Davidson diagonalization with overlap
     ethr =  1.00E-02,  avg # of iterations = 10.0

     negative rho (up, down):  7.351E-02 0.000E+00

     total cpu time spent up to now is       12.5 secs

     total energy              =    -351.61362225 Ry
     Harris-Foulkes estimate   =   -5607.30637339 Ry
     estimated scf accuracy    <      11.29885799 Ry

     iteration # 95     ecut=    30.00 Ry     beta=0.70
     Davidson diagonalization with overlap
     ethr =  1.00E-02,  avg # of iterations =  5.0

     negative rho (up, down):  1.312E-01 0.000E+00

     total cpu time spent up to now is       12.6 secs

     total energy              =    -148.60565279 Ry
     Harris-Foulkes estimate   =   -2396.85393096 Ry
     estimated scf accuracy    <      41.29306669 Ry

     iteration # 96     ecut=    30.00 Ry     beta=0.70
     Davidson diagonalization with overlap
     ethr =  1.00E-02,  avg # of iterations =  5.0

     negative rho (up, down):  1.648E-01 0.000E+00

     total cpu time spent up to now is       12.6 secs

     total energy              =   -2131.06117852 Ry
     Harris-Foulkes estimate   =   -1445.51103766 Ry
     estimated scf accuracy    <      41.94581822 Ry

     iteration # 97     ecut=    30.00 Ry     beta=0.70
     Davidson diagonalization with overlap
     ethr =  1.00E-02,  avg # of iterations =  3.0

     negative rho (up, down):  1.606E-01 0.000E+00

     total cpu time spent up to now is       12.7 secs

     total energy              =    1362.10629622 Ry
     Harris-Foulkes estimate   =   -3410.08423680 Ry
     estimated scf accuracy    <      36.35193433 Ry

     iteration # 98     ecut=    30.00 Ry     beta=0.70
     Davidson diagonalization with overlap
     ethr =  1.00E-02,  avg # of iterations = 14.0

     negative rho (up, down):  2.062E-01 0.000E+00

     total cpu time spent up to now is       12.7 secs

     total energy              =    1368.67563391 Ry
     Harris-Foulkes estimate   =    -165.86378267 Ry
     estimated scf accuracy    <      14.83625262 Ry

     iteration # 99     ecut=    30.00 Ry     beta=0.70
     Davidson diagonalization with overlap
     ethr =  1.00E-02,  avg # of iterations =  7.0

     negative rho (up, down):  1.051E-01 0.000E+00

     total cpu time spent up to now is       12.8 secs

     total energy              =    -192.54115732 Ry
     Harris-Foulkes estimate   =    -826.31232031 Ry
     estimated scf accuracy    <      28.33423261 Ry

     iteration #100     ecut=    30.00 Ry     beta=0.70
     Davidson diagonalization with overlap
     ethr =  1.00E-02,  avg # of iterations =  8.0

     negative rho (up, down):  8.830E-02 0.000E+00

     total cpu time spent up to now is       12.8 secs

     total energy              =     -42.00685536 Ry
     Harris-Foulkes estimate   =    -593.22446444 Ry
     estimated scf accuracy    <      28.48282637 Ry

     End of self-consistent calculation

     convergence NOT achieved after 100 iterations: stopping

     Writing output data file pwscf.save
 
     init_run     :      0.10s CPU      0.11s WALL (       1 calls)
     electrons    :      9.84s CPU     11.92s WALL (       4 calls)
     update_pot   :      0.32s CPU      0.46s WALL (       3 calls)
     forces       :      0.08s CPU      0.08s WALL (       3 calls)

     Called by init_run:
     wfcinit      :      0.01s CPU      0.02s WALL (       1 calls)
     potinit      :      0.02s CPU      0.03s WALL (       1 calls)

     Called by electrons:
     c_bands      :      5.44s CPU      5.68s WALL (     241 calls)
     sum_band     :      0.71s CPU      0.75s WALL (     241 calls)
     v_of_rho     :      1.83s CPU      1.95s WALL (     245 calls)
     mix_rho      :      1.68s CPU      2.98s WALL (     241 calls)

     Called by c_bands:
     init_us_2    :      0.02s CPU      0.03s WALL (     483 calls)
     cegterg      :      5.38s CPU      5.54s WALL (     241 calls)

     Called by sum_band:

     Called by *egterg:
     h_psi        :      4.48s CPU      4.61s WALL (    1583 calls)
     g_psi        :      0.05s CPU      0.05s WALL (    1341 calls)
     cdiaghg      :      0.33s CPU      0.34s WALL (    1579 calls)

     Called by h_psi:
     h_psi:pot    :      4.46s CPU      4.58s WALL (    1583 calls)
     h_psi:calbec :      0.05s CPU      0.06s WALL (    1583 calls)
     vloc_psi     :      4.39s CPU      4.50s WALL (    1583 calls)
     add_vuspsi   :      0.01s CPU      0.01s WALL (    1583 calls)

     General routines
     calbec       :      0.06s CPU      0.08s WALL (    1597 calls)
     fft          :      1.08s CPU      1.15s WALL (    2701 calls)
     fftw         :      4.43s CPU      4.56s WALL (   19404 calls)
     davcio       :      0.26s CPU      1.12s WALL (    4477 calls)
 
     Parallel routines
     fft_scatter  :      1.99s CPU      2.11s WALL (   22105 calls)
 
     PWSCF        :    10.52s CPU        12.92s WALL

 
   This run was terminated on:   1:27:46  11Feb2018            

=------------------------------------------------------------------------------=
   JOB DONE.
=------------------------------------------------------------------------------=
