
     Program PWSCF v.6.0 (svn rev. 13079) starts on 11Feb2018 at  1:32:36 

     This program is part of the open-source Quantum ESPRESSO suite
     for quantum simulation of materials; please cite
         "P. Giannozzi et al., J. Phys.:Condens. Matter 21 395502 (2009);
          URL http://www.quantum-espresso.org", 
     in publications or presentations arising from this work. More details at
     http://www.quantum-espresso.org/quote

     Parallel version (MPI), running on    28 processors
     R & G space division:  proc/nbgrp/npool/nimage =      28
     Reading input from inputs/water-1-md/367.in

     Current dimensions of program PWSCF are:
     Max number of different atomic species (ntypx) = 10
     Max number of k-points (npk) =  40000
     Max angular momentum in pseudopotentials (lmaxx) =  3

     Subspace diagonalization in iterative solution of the eigenvalue problem:
     a serial algorithm will be used

 
     Parallelization info
     --------------------
     sticks:   dense  smooth     PW     G-vecs:    dense   smooth      PW
     Min         136     136     33                 6338     6338     787
     Max         137     137     34                 6341     6341     792
     Sum        3809    3809    949               177509   177509   22119
 


     bravais-lattice index     =            1
     lattice parameter (alat)  =      20.0000  a.u.
     unit-cell volume          =    8000.0000 (a.u.)^3
     number of atoms/cell      =            3
     number of atomic types    =            2
     number of electrons       =         8.00
     number of Kohn-Sham states=            8
     kinetic-energy cutoff     =      30.0000  Ry
     charge density cutoff     =     120.0000  Ry
     convergence threshold     =      1.0E-08
     mixing beta               =       0.7000
     number of iterations used =            8  plain     mixing
     Exchange-correlation      = BLYP ( 1  3  1  3 0 0)
     nstep                     =         5000


     celldm(1)=  20.000000  celldm(2)=   0.000000  celldm(3)=   0.000000
     celldm(4)=   0.000000  celldm(5)=   0.000000  celldm(6)=   0.000000

     crystal axes: (cart. coord. in units of alat)
               a(1) = (   1.000000   0.000000   0.000000 )  
               a(2) = (   0.000000   1.000000   0.000000 )  
               a(3) = (   0.000000   0.000000   1.000000 )  

     reciprocal axes: (cart. coord. in units 2 pi/alat)
               b(1) = (  1.000000  0.000000  0.000000 )  
               b(2) = (  0.000000  1.000000  0.000000 )  
               b(3) = (  0.000000  0.000000  1.000000 )  


     PseudoPot. # 1 for  H read from file:
     ./H.blyp-hgh.UPF
     MD5 check sum: c576e69559cde411e611be972c763230
     Pseudo is Norm-conserving, Zval =  1.0
     Generated in analytical, separable form
     Using radial grid of  929 points,  0 beta functions with: 

     PseudoPot. # 2 for  O read from file:
     ./O.blyp-hgh.UPF
     MD5 check sum: d0b7156309aa9befef28faac7bc56342
     Pseudo is Norm-conserving, Zval =  6.0
     Generated in analytical, separable form
     Using radial grid of 1095 points,  1 beta functions with: 
                l(1) =   0

     atomic species   valence    mass     pseudopotential
        H              1.00     1.01000      H( 1.00)
        O              6.00    16.00000      O( 1.00)

     No symmetry found



   Cartesian axes

     site n.     atom                  positions (alat units)
         1           H   tau(   1) = (   0.6048806   0.8976388   0.2847783  )
         2           H   tau(   2) = (   0.2360782   0.4440276   0.2302100  )
         3           O   tau(   3) = (   0.5190137   0.7621090   0.4594052  )

     number of k points=     1  Marzari-Vanderbilt smearing, width (Ry)=  0.0250
                       cart. coord. in units 2pi/alat
        k(    1) = (   0.0000000   0.0000000   0.0000000), wk =   2.0000000

     Dense  grid:   177509 G-vectors     FFT dimensions: (  72,  72,  72)

     Estimated max dynamical RAM per process >       6.09Mb

     Estimated total allocated dynamical RAM >     170.64Mb

     Initial potential from superposition of free atoms
     Check: negative starting charge=   -0.340611

     starting charge    7.99998, renormalised to    8.00000

     negative rho (up, down):  3.406E-01 0.000E+00
     Starting wfc are    6 randomized atomic wfcs +    2 random wfc

     total cpu time spent up to now is        0.2 secs

     per-process dynamical memory:    18.8 Mb

     Self-consistent Calculation

     iteration #  1     ecut=    30.00 Ry     beta=0.70
     Davidson diagonalization with overlap
     ethr =  1.00E-02,  avg # of iterations =  7.0

     negative rho (up, down):  8.370E-02 0.000E+00

     total cpu time spent up to now is        0.3 secs

     total energy              =     -29.16481257 Ry
     Harris-Foulkes estimate   =     -32.07876621 Ry
     estimated scf accuracy    <       3.36517740 Ry

     iteration #  2     ecut=    30.00 Ry     beta=0.70
     Davidson diagonalization with overlap
     ethr =  1.00E-02,  avg # of iterations =  4.0

     negative rho (up, down):  6.202E-02 0.000E+00

     total cpu time spent up to now is        0.3 secs

     total energy              =     -32.14354744 Ry
     Harris-Foulkes estimate   =     -36.21925109 Ry
     estimated scf accuracy    <      10.31689884 Ry

     iteration #  3     ecut=    30.00 Ry     beta=0.70
     Davidson diagonalization with overlap
     ethr =  1.00E-02,  avg # of iterations =  3.0

     negative rho (up, down):  6.526E-02 0.000E+00

     total cpu time spent up to now is        0.4 secs

     total energy              =     -32.69147072 Ry
     Harris-Foulkes estimate   =     -32.44502297 Ry
     estimated scf accuracy    <       3.75408950 Ry

     iteration #  4     ecut=    30.00 Ry     beta=0.70
     Davidson diagonalization with overlap
     ethr =  1.00E-02,  avg # of iterations =  1.0

     negative rho (up, down):  5.918E-02 0.000E+00

     total cpu time spent up to now is        0.4 secs

     total energy              =     -32.34458742 Ry
     Harris-Foulkes estimate   =     -32.70322272 Ry
     estimated scf accuracy    <       4.17921532 Ry

     iteration #  5     ecut=    30.00 Ry     beta=0.70
     Davidson diagonalization with overlap
     ethr =  1.00E-02,  avg # of iterations =  1.0

     negative rho (up, down):  3.583E-02 0.000E+00

     total cpu time spent up to now is        0.4 secs

     total energy              =     -31.06115320 Ry
     Harris-Foulkes estimate   =     -32.33587340 Ry
     estimated scf accuracy    <       3.59063239 Ry

     iteration #  6     ecut=    30.00 Ry     beta=0.70
     Davidson diagonalization with overlap
     ethr =  1.00E-02,  avg # of iterations =  2.0

     negative rho (up, down):  9.655E-03 0.000E+00

     total cpu time spent up to now is        0.5 secs

     total energy              =     -31.93960328 Ry
     Harris-Foulkes estimate   =     -31.98165132 Ry
     estimated scf accuracy    <       3.80786388 Ry

     iteration #  7     ecut=    30.00 Ry     beta=0.70
     Davidson diagonalization with overlap
     ethr =  1.00E-02,  avg # of iterations =  1.0

     negative rho (up, down):  3.517E-05 0.000E+00

     total cpu time spent up to now is        0.5 secs

     total energy              =     -31.22192199 Ry
     Harris-Foulkes estimate   =     -31.94224204 Ry
     estimated scf accuracy    <       3.56092442 Ry

     iteration #  8     ecut=    30.00 Ry     beta=0.70
     Davidson diagonalization with overlap
     ethr =  1.00E-02,  avg # of iterations =  1.0

     negative rho (up, down):  8.517E-06 0.000E+00

     total cpu time spent up to now is        0.5 secs

     total energy              =     -31.75320805 Ry
     Harris-Foulkes estimate   =     -31.75240520 Ry
     estimated scf accuracy    <       1.95241414 Ry

     iteration #  9     ecut=    30.00 Ry     beta=0.70
     Davidson diagonalization with overlap
     ethr =  1.00E-02,  avg # of iterations =  1.0

     negative rho (up, down):  6.625E-05 0.000E+00

     total cpu time spent up to now is        0.5 secs

     total energy              =     -31.71275109 Ry
     Harris-Foulkes estimate   =     -31.75381720 Ry
     estimated scf accuracy    <       1.97110898 Ry

     iteration # 10     ecut=    30.00 Ry     beta=0.70
     Davidson diagonalization with overlap
     ethr =  1.00E-02,  avg # of iterations =  1.0

     negative rho (up, down):  1.046E-03 0.000E+00

     total cpu time spent up to now is        0.6 secs

     total energy              =     -31.45498900 Ry
     Harris-Foulkes estimate   =     -31.71356894 Ry
     estimated scf accuracy    <       1.77345750 Ry

     iteration # 11     ecut=    30.00 Ry     beta=0.70
     Davidson diagonalization with overlap
     ethr =  1.00E-02,  avg # of iterations =  1.0

     negative rho (up, down):  8.629E-04 0.000E+00

     total cpu time spent up to now is        0.6 secs

     total energy              =     -31.29255277 Ry
     Harris-Foulkes estimate   =     -31.64045778 Ry
     estimated scf accuracy    <       2.20890109 Ry

     iteration # 12     ecut=    30.00 Ry     beta=0.70
     Davidson diagonalization with overlap
     ethr =  1.00E-02,  avg # of iterations =  1.0

     negative rho (up, down):  4.476E-04 0.000E+00

     total cpu time spent up to now is        0.6 secs

     total energy              =     -31.91266395 Ry
     Harris-Foulkes estimate   =     -31.77433828 Ry
     estimated scf accuracy    <       2.09067351 Ry

     iteration # 13     ecut=    30.00 Ry     beta=0.70
     Davidson diagonalization with overlap
     ethr =  1.00E-02,  avg # of iterations =  1.0

     negative rho (up, down):  5.287E-04 0.000E+00

     total cpu time spent up to now is        0.7 secs

     total energy              =     -31.73456560 Ry
     Harris-Foulkes estimate   =     -31.91667138 Ry
     estimated scf accuracy    <       2.53856032 Ry

     iteration # 14     ecut=    30.00 Ry     beta=0.70
     Davidson diagonalization with overlap
     ethr =  1.00E-02,  avg # of iterations =  1.0

     negative rho (up, down):  2.654E-04 0.000E+00

     total cpu time spent up to now is        0.7 secs

     total energy              =     -31.78341842 Ry
     Harris-Foulkes estimate   =     -31.74318327 Ry
     estimated scf accuracy    <       1.84180828 Ry

     iteration # 15     ecut=    30.00 Ry     beta=0.70
     Davidson diagonalization with overlap
     ethr =  1.00E-02,  avg # of iterations =  1.0

     negative rho (up, down):  1.609E-04 0.000E+00

     total cpu time spent up to now is        0.7 secs

     total energy              =     -31.77840604 Ry
     Harris-Foulkes estimate   =     -31.78459062 Ry
     estimated scf accuracy    <       1.74114410 Ry

     iteration # 16     ecut=    30.00 Ry     beta=0.70
     Davidson diagonalization with overlap
     ethr =  1.00E-02,  avg # of iterations =  1.0

     negative rho (up, down):  2.260E-05 0.000E+00

     total cpu time spent up to now is        0.8 secs

     total energy              =     -31.75904180 Ry
     Harris-Foulkes estimate   =     -31.77872988 Ry
     estimated scf accuracy    <       1.66391136 Ry

     iteration # 17     ecut=    30.00 Ry     beta=0.70
     Davidson diagonalization with overlap
     ethr =  1.00E-02,  avg # of iterations =  1.0

     negative rho (up, down):  1.794E-04 0.000E+00

     total cpu time spent up to now is        0.8 secs

     total energy              =     -31.77509767 Ry
     Harris-Foulkes estimate   =     -31.75916756 Ry
     estimated scf accuracy    <       1.67695045 Ry

     iteration # 18     ecut=    30.00 Ry     beta=0.70
     Davidson diagonalization with overlap
     ethr =  1.00E-02,  avg # of iterations =  1.0

     negative rho (up, down):  6.615E-04 0.000E+00

     total cpu time spent up to now is        0.8 secs

     total energy              =     -31.77449538 Ry
     Harris-Foulkes estimate   =     -31.77528593 Ry
     estimated scf accuracy    <       1.75101267 Ry

     iteration # 19     ecut=    30.00 Ry     beta=0.70
     Davidson diagonalization with overlap
     ethr =  1.00E-02,  avg # of iterations =  1.0

     negative rho (up, down):  2.315E-04 0.000E+00

     total cpu time spent up to now is        0.9 secs

     total energy              =     -31.77251287 Ry
     Harris-Foulkes estimate   =     -31.77469647 Ry
     estimated scf accuracy    <       1.67248147 Ry

     iteration # 20     ecut=    30.00 Ry     beta=0.70
     Davidson diagonalization with overlap
     ethr =  1.00E-02,  avg # of iterations =  1.0

     negative rho (up, down):  3.638E-02 0.000E+00

     total cpu time spent up to now is        0.9 secs

     total energy              =     -30.76337058 Ry
     Harris-Foulkes estimate   =     -31.77254680 Ry
     estimated scf accuracy    <       1.66781694 Ry

     iteration # 21     ecut=    30.00 Ry     beta=0.70
     Davidson diagonalization with overlap
     ethr =  1.00E-02,  avg # of iterations =  3.0

     negative rho (up, down):  5.963E-07 0.000E+00

     total cpu time spent up to now is        1.0 secs

     total energy              =     -31.17504432 Ry
     Harris-Foulkes estimate   =     -33.88689336 Ry
     estimated scf accuracy    <      14.69600250 Ry

     iteration # 22     ecut=    30.00 Ry     beta=0.70
     Davidson diagonalization with overlap
     ethr =  1.00E-02,  avg # of iterations =  1.0

     total cpu time spent up to now is        1.0 secs

     total energy              =     -31.54815127 Ry
     Harris-Foulkes estimate   =     -31.94135085 Ry
     estimated scf accuracy    <       4.00355961 Ry

     iteration # 23     ecut=    30.00 Ry     beta=0.70
     Davidson diagonalization with overlap
     ethr =  1.00E-02,  avg # of iterations =  1.0

     negative rho (up, down):  2.106E-07 0.000E+00

     total cpu time spent up to now is        1.0 secs

     total energy              =     -31.53008469 Ry
     Harris-Foulkes estimate   =     -31.56985275 Ry
     estimated scf accuracy    <       2.89816837 Ry

     iteration # 24     ecut=    30.00 Ry     beta=0.70
     Davidson diagonalization with overlap
     ethr =  1.00E-02,  avg # of iterations =  3.0

     total cpu time spent up to now is        1.1 secs

     total energy              =     -31.50302075 Ry
     Harris-Foulkes estimate   =     -31.62887658 Ry
     estimated scf accuracy    <       1.26944059 Ry

     iteration # 25     ecut=    30.00 Ry     beta=0.70
     Davidson diagonalization with overlap
     ethr =  1.00E-02,  avg # of iterations =  1.0

     total cpu time spent up to now is        1.1 secs

     total energy              =     -31.55027479 Ry
     Harris-Foulkes estimate   =     -31.59809364 Ry
     estimated scf accuracy    <       0.92800345 Ry

     iteration # 26     ecut=    30.00 Ry     beta=0.70
     Davidson diagonalization with overlap
     ethr =  1.00E-02,  avg # of iterations =  1.0

     total cpu time spent up to now is        1.1 secs

     total energy              =     -31.57402487 Ry
     Harris-Foulkes estimate   =     -31.57027592 Ry
     estimated scf accuracy    <       0.04423356 Ry

     iteration # 27     ecut=    30.00 Ry     beta=0.70
     Davidson diagonalization with overlap
     ethr =  5.53E-04,  avg # of iterations =  1.0

     total cpu time spent up to now is        1.2 secs

     total energy              =     -31.54595740 Ry
     Harris-Foulkes estimate   =     -31.57993530 Ry
     estimated scf accuracy    <       0.77345361 Ry

     iteration # 28     ecut=    30.00 Ry     beta=0.70
     Davidson diagonalization with overlap
     ethr =  5.53E-04,  avg # of iterations =  1.0

     total cpu time spent up to now is        1.2 secs

     total energy              =     -31.57309491 Ry
     Harris-Foulkes estimate   =     -31.57415866 Ry
     estimated scf accuracy    <       0.27495130 Ry

     iteration # 29     ecut=    30.00 Ry     beta=0.70
     Davidson diagonalization with overlap
     ethr =  5.53E-04,  avg # of iterations =  1.0

     total cpu time spent up to now is        1.2 secs

     total energy              =     -31.56745102 Ry
     Harris-Foulkes estimate   =     -31.57316305 Ry
     estimated scf accuracy    <       0.21489054 Ry

     iteration # 30     ecut=    30.00 Ry     beta=0.70
     Davidson diagonalization with overlap
     ethr =  5.53E-04,  avg # of iterations =  1.0

     total cpu time spent up to now is        1.3 secs

     total energy              =     -31.57044606 Ry
     Harris-Foulkes estimate   =     -31.56980186 Ry
     estimated scf accuracy    <       0.00478290 Ry

     iteration # 31     ecut=    30.00 Ry     beta=0.70
     Davidson diagonalization with overlap
     ethr =  5.98E-05,  avg # of iterations =  4.0

     total cpu time spent up to now is        1.3 secs

     total energy              =     -31.56915298 Ry
     Harris-Foulkes estimate   =     -31.57232512 Ry
     estimated scf accuracy    <       0.17293687 Ry

     iteration # 32     ecut=    30.00 Ry     beta=0.70
     Davidson diagonalization with overlap
     ethr =  5.98E-05,  avg # of iterations =  1.0

     total cpu time spent up to now is        1.3 secs

     total energy              =     -31.56914828 Ry
     Harris-Foulkes estimate   =     -31.57006897 Ry
     estimated scf accuracy    <       0.03662712 Ry

     iteration # 33     ecut=    30.00 Ry     beta=0.70
     Davidson diagonalization with overlap
     ethr =  5.98E-05,  avg # of iterations =  1.0

     negative rho (up, down):  8.426E-07 0.000E+00

     total cpu time spent up to now is        1.4 secs

     total energy              =     -31.56959507 Ry
     Harris-Foulkes estimate   =     -31.56960434 Ry
     estimated scf accuracy    <       0.00007552 Ry

     iteration # 34     ecut=    30.00 Ry     beta=0.70
     Davidson diagonalization with overlap
     ethr =  9.44E-07,  avg # of iterations = 14.0

     total cpu time spent up to now is        1.4 secs

     total energy              =     -31.56959248 Ry
     Harris-Foulkes estimate   =     -31.56960153 Ry
     estimated scf accuracy    <       0.00032309 Ry

     iteration # 35     ecut=    30.00 Ry     beta=0.70
     Davidson diagonalization with overlap
     ethr =  9.44E-07,  avg # of iterations =  1.0

     total cpu time spent up to now is        1.4 secs

     total energy              =     -31.56959614 Ry
     Harris-Foulkes estimate   =     -31.56959629 Ry
     estimated scf accuracy    <       0.00000265 Ry

     iteration # 36     ecut=    30.00 Ry     beta=0.70
     Davidson diagonalization with overlap
     ethr =  3.32E-08,  avg # of iterations =  1.0

     total cpu time spent up to now is        1.5 secs

     total energy              =     -31.56959613 Ry
     Harris-Foulkes estimate   =     -31.56959618 Ry
     estimated scf accuracy    <       0.00000005 Ry

     iteration # 37     ecut=    30.00 Ry     beta=0.70
     Davidson diagonalization with overlap
     ethr =  5.75E-10,  avg # of iterations =  1.0

     total cpu time spent up to now is        1.5 secs

     total energy              =     -31.56959608 Ry
     Harris-Foulkes estimate   =     -31.56959613 Ry
     estimated scf accuracy    <       0.00000001 Ry

     iteration # 38     ecut=    30.00 Ry     beta=0.70
     Davidson diagonalization with overlap
     ethr =  1.41E-10,  avg # of iterations =  1.0

     total cpu time spent up to now is        1.5 secs

     End of self-consistent calculation

          k = 0.0000 0.0000 0.0000 ( 22119 PWs)   bands (ev):

   -23.5919  -7.7573  -6.9210  -6.9188  -6.7830  -6.3205  -0.1460   0.6798

     the Fermi energy is    -6.7524 ev

!    total energy              =     -31.56959608 Ry
     Harris-Foulkes estimate   =     -31.56959608 Ry
     estimated scf accuracy    <          1.4E-10 Ry

     convergence has been achieved in  38 iterations

     Forces acting on atoms (Ry/au):

     atom    1 type  1   force =    -0.02722779   -0.04219100    0.05424206
     atom    2 type  1   force =    -0.00036829    0.00037753    0.00000246
     atom    3 type  2   force =     0.02759608    0.04181347   -0.05424452

     Total force =     0.104481     Total SCF correction =     0.000032

     Molecular Dynamics Calculation

     Starting temperature  =  1000.00 K

     temperature is controlled by Andersen thermostat
     Collision frequency = 1.0000/timestep
     mass H                =     1.01
     mass O                =    16.00
     Time step             =   100.00 a.u.,  4.8378 femto-seconds

     Entering Dynamics:    iteration =     1
                           time      =   0.0048 pico-seconds


     Andersen thermostat:    3 collisions

ATOMIC_POSITIONS (bohr)
H       11.872334003  17.923078457   6.158183034
H        4.296991847   8.970616413   4.500906775
O       10.421295791  15.238369341   9.165421685


     kinetic energy (Ekin) =     0.01345142 Ry
     temperature           =   707.93630804 K 
     Ekin + Etot (const)   =   -31.55614466 Ry

     Linear momentum :   -0.0000000000   -0.0000000000    0.0000000000

     Writing output data file pwscf.save
     Check: negative starting charge=   -0.340611
     NEW-OLD atomic charge density approx. for the potential
     Check: negative starting charge=   -0.342114

     negative rho (up, down):  9.043E-02 0.000E+00

     total cpu time spent up to now is        1.8 secs

     per-process dynamical memory:    20.4 Mb

     Self-consistent Calculation

     iteration #  1     ecut=    30.00 Ry     beta=0.70
     Davidson diagonalization with overlap
     c_bands:  1 eigenvalues not converged
     ethr =  1.00E-06,  avg # of iterations = 20.0

     negative rho (up, down):  2.220E-02 0.000E+00

     total cpu time spent up to now is        1.9 secs

     total energy              =     -31.54577681 Ry
     Harris-Foulkes estimate   =     -31.54252737 Ry
     estimated scf accuracy    <       0.05746297 Ry

     iteration #  2     ecut=    30.00 Ry     beta=0.70
     Davidson diagonalization with overlap
     ethr =  7.18E-04,  avg # of iterations =  2.0

     negative rho (up, down):  1.993E-02 0.000E+00

     total cpu time spent up to now is        1.9 secs

     total energy              =     -31.53652400 Ry
     Harris-Foulkes estimate   =     -31.97463706 Ry
     estimated scf accuracy    <       3.27829537 Ry

     iteration #  3     ecut=    30.00 Ry     beta=0.70
     Davidson diagonalization with overlap
     ethr =  7.18E-04,  avg # of iterations =  2.0

     negative rho (up, down):  1.973E-02 0.000E+00

     total cpu time spent up to now is        1.9 secs

     total energy              =     -31.59725333 Ry
     Harris-Foulkes estimate   =     -31.60822501 Ry
     estimated scf accuracy    <       1.20670257 Ry

     iteration #  4     ecut=    30.00 Ry     beta=0.70
     Davidson diagonalization with overlap
     ethr =  7.18E-04,  avg # of iterations =  1.0

     negative rho (up, down):  5.189E-03 0.000E+00

     total cpu time spent up to now is        2.0 secs

     total energy              =     -31.57061881 Ry
     Harris-Foulkes estimate   =     -31.59880290 Ry
     estimated scf accuracy    <       0.65402557 Ry

     iteration #  5     ecut=    30.00 Ry     beta=0.70
     Davidson diagonalization with overlap
     ethr =  7.18E-04,  avg # of iterations =  1.0

     negative rho (up, down):  1.951E-03 0.000E+00

     total cpu time spent up to now is        2.0 secs

     total energy              =     -31.59990199 Ry
     Harris-Foulkes estimate   =     -31.62280249 Ry
     estimated scf accuracy    <       0.79210444 Ry

     iteration #  6     ecut=    30.00 Ry     beta=0.70
     Davidson diagonalization with overlap
     ethr =  7.18E-04,  avg # of iterations =  1.0

     negative rho (up, down):  6.603E-05 0.000E+00

     total cpu time spent up to now is        2.0 secs

     total energy              =     -31.60841193 Ry
     Harris-Foulkes estimate   =     -31.60861557 Ry
     estimated scf accuracy    <       0.02236280 Ry

     iteration #  7     ecut=    30.00 Ry     beta=0.70
     Davidson diagonalization with overlap
     ethr =  2.80E-04,  avg # of iterations =  3.0

     negative rho (up, down):  2.793E-05 0.000E+00

     total cpu time spent up to now is        2.1 secs

     total energy              =     -31.60905695 Ry
     Harris-Foulkes estimate   =     -31.60936421 Ry
     estimated scf accuracy    <       0.01512672 Ry

     iteration #  8     ecut=    30.00 Ry     beta=0.70
     Davidson diagonalization with overlap
     ethr =  1.89E-04,  avg # of iterations =  1.0

     negative rho (up, down):  5.861E-06 0.000E+00

     total cpu time spent up to now is        2.1 secs

     total energy              =     -31.60916079 Ry
     Harris-Foulkes estimate   =     -31.60918744 Ry
     estimated scf accuracy    <       0.00044403 Ry

     iteration #  9     ecut=    30.00 Ry     beta=0.70
     Davidson diagonalization with overlap
     ethr =  5.55E-06,  avg # of iterations = 12.0

     total cpu time spent up to now is        2.1 secs

     total energy              =     -31.60913039 Ry
     Harris-Foulkes estimate   =     -31.60920541 Ry
     estimated scf accuracy    <       0.00147959 Ry

     iteration # 10     ecut=    30.00 Ry     beta=0.70
     Davidson diagonalization with overlap
     ethr =  5.55E-06,  avg # of iterations =  1.0

     total cpu time spent up to now is        2.2 secs

     total energy              =     -31.60918128 Ry
     Harris-Foulkes estimate   =     -31.60921336 Ry
     estimated scf accuracy    <       0.00183150 Ry

     iteration # 11     ecut=    30.00 Ry     beta=0.70
     Davidson diagonalization with overlap
     ethr =  5.55E-06,  avg # of iterations =  1.0

     total cpu time spent up to now is        2.2 secs

     total energy              =     -31.60918691 Ry
     Harris-Foulkes estimate   =     -31.60919240 Ry
     estimated scf accuracy    <       0.00016874 Ry

     iteration # 12     ecut=    30.00 Ry     beta=0.70
     Davidson diagonalization with overlap
     ethr =  2.11E-06,  avg # of iterations =  1.0

     total cpu time spent up to now is        2.3 secs

     total energy              =     -31.60918999 Ry
     Harris-Foulkes estimate   =     -31.60919033 Ry
     estimated scf accuracy    <       0.00001241 Ry

     iteration # 13     ecut=    30.00 Ry     beta=0.70
     Davidson diagonalization with overlap
     ethr =  1.55E-07,  avg # of iterations =  1.0

     total cpu time spent up to now is        2.3 secs

     total energy              =     -31.60919008 Ry
     Harris-Foulkes estimate   =     -31.60919008 Ry
     estimated scf accuracy    <       0.00000075 Ry

     iteration # 14     ecut=    30.00 Ry     beta=0.70
     Davidson diagonalization with overlap
     ethr =  9.38E-09,  avg # of iterations =  1.0

     total cpu time spent up to now is        2.3 secs

     total energy              =     -31.60919004 Ry
     Harris-Foulkes estimate   =     -31.60919008 Ry
     estimated scf accuracy    <       0.00000048 Ry

     iteration # 15     ecut=    30.00 Ry     beta=0.70
     Davidson diagonalization with overlap
     ethr =  6.05E-09,  avg # of iterations =  1.0

     total cpu time spent up to now is        2.3 secs

     End of self-consistent calculation

          k = 0.0000 0.0000 0.0000 ( 22119 PWs)   bands (ev):

   -23.5766  -8.0005  -6.9022  -6.9003  -6.7629  -5.9183  -0.1351   0.7107

     the Fermi energy is    -6.7313 ev

!    total energy              =     -31.60919000 Ry
     Harris-Foulkes estimate   =     -31.60919004 Ry
     estimated scf accuracy    <          1.1E-10 Ry

     convergence has been achieved in  15 iterations

     Forces acting on atoms (Ry/au):

     atom    1 type  1   force =    -0.03223406   -0.05918563    0.06696979
     atom    2 type  1   force =     0.00021608    0.00028506    0.00019274
     atom    3 type  2   force =     0.03201798    0.05890057   -0.06716252

     Total force =     0.134284     Total SCF correction =     0.000097

     Entering Dynamics:    iteration =     2
                           time      =   0.0097 pico-seconds


     Andersen thermostat:    3 collisions

ATOMIC_POSITIONS (bohr)
H       11.904155858  17.053287853   6.587697700
H        4.431608439   8.579712148   4.377812870
O       10.410789364  15.317950705   9.146078874


     kinetic energy (Ekin) =     0.02958619 Ry
     temperature           =  1557.09470289 K 
     Ekin + Etot (const)   =   -31.57960381 Ry
     Message from routine dynamics:
     Total linear momentum <> 0

     Linear momentum :    0.3807461877    0.1505400795    0.0068520658

     Writing output data file pwscf.save

     first order wave-functions extrapolation
     Check: negative starting charge=   -0.342114
     first order charge density extrapolation
     Check: negative starting charge=   -0.344305

     negative rho (up, down):  2.304E-01 0.000E+00

     total cpu time spent up to now is        2.7 secs

     per-process dynamical memory:    20.4 Mb

     Self-consistent Calculation

     iteration #  1     ecut=    30.00 Ry     beta=0.70
     Davidson diagonalization with overlap
     ethr =  1.00E-06,  avg # of iterations = 15.0

     negative rho (up, down):  4.479E-02 0.000E+00

     total cpu time spent up to now is        2.8 secs

     total energy              =      25.12451501 Ry
     Harris-Foulkes estimate   =    -114.99588461 Ry
     estimated scf accuracy    <      13.84620965 Ry

     iteration #  2     ecut=    30.00 Ry     beta=0.70
     Davidson diagonalization with overlap
     ethr =  1.00E-02,  avg # of iterations =  4.0

     negative rho (up, down):  2.954E-02 0.000E+00

     total cpu time spent up to now is        2.8 secs

     total energy              =     -33.38233385 Ry
     Harris-Foulkes estimate   =     -41.69603651 Ry
     estimated scf accuracy    <      17.12179476 Ry

     iteration #  3     ecut=    30.00 Ry     beta=0.70
     Davidson diagonalization with overlap
     ethr =  1.00E-02,  avg # of iterations =  2.0

     negative rho (up, down):  1.905E-02 0.000E+00

     total cpu time spent up to now is        2.8 secs

     total energy              =     -32.17447737 Ry
     Harris-Foulkes estimate   =     -34.01170265 Ry
     estimated scf accuracy    <       4.98466673 Ry

     iteration #  4     ecut=    30.00 Ry     beta=0.70
     Davidson diagonalization with overlap
     ethr =  1.00E-02,  avg # of iterations =  4.0

     negative rho (up, down):  1.100E-02 0.000E+00

     total cpu time spent up to now is        2.9 secs

     total energy              =     -31.91922600 Ry
     Harris-Foulkes estimate   =     -32.23790049 Ry
     estimated scf accuracy    <       1.63144733 Ry

     iteration #  5     ecut=    30.00 Ry     beta=0.70
     Davidson diagonalization with overlap
     ethr =  1.00E-02,  avg # of iterations =  1.0

     negative rho (up, down):  1.100E-02 0.000E+00

     total cpu time spent up to now is        2.9 secs

     total energy              =     -31.90985299 Ry
     Harris-Foulkes estimate   =     -31.94588773 Ry
     estimated scf accuracy    <       0.69922915 Ry

     iteration #  6     ecut=    30.00 Ry     beta=0.70
     Davidson diagonalization with overlap
     ethr =  8.74E-03,  avg # of iterations =  1.0

     negative rho (up, down):  4.560E-03 0.000E+00

     total cpu time spent up to now is        2.9 secs

     total energy              =     -31.34868038 Ry
     Harris-Foulkes estimate   =     -32.02645346 Ry
     estimated scf accuracy    <       1.89793611 Ry

     iteration #  7     ecut=    30.00 Ry     beta=0.70
     Davidson diagonalization with overlap
     ethr =  8.74E-03,  avg # of iterations =  2.0

     negative rho (up, down):  5.897E-03 0.000E+00

     total cpu time spent up to now is        3.0 secs

     total energy              =     -31.92204521 Ry
     Harris-Foulkes estimate   =     -32.10635803 Ry
     estimated scf accuracy    <       2.28584507 Ry

     iteration #  8     ecut=    30.00 Ry     beta=0.70
     Davidson diagonalization with overlap
     ethr =  8.74E-03,  avg # of iterations =  1.0

     negative rho (up, down):  5.892E-03 0.000E+00

     total cpu time spent up to now is        3.0 secs

     total energy              =     -31.92399414 Ry
     Harris-Foulkes estimate   =     -31.93533273 Ry
     estimated scf accuracy    <       1.73567982 Ry

     iteration #  9     ecut=    30.00 Ry     beta=0.70
     Davidson diagonalization with overlap
     ethr =  8.74E-03,  avg # of iterations =  1.0

     negative rho (up, down):  5.980E-03 0.000E+00

     total cpu time spent up to now is        3.0 secs

     total energy              =     -31.89849355 Ry
     Harris-Foulkes estimate   =     -31.92418218 Ry
     estimated scf accuracy    <       1.70378076 Ry

     iteration # 10     ecut=    30.00 Ry     beta=0.70
     Davidson diagonalization with overlap
     ethr =  8.74E-03,  avg # of iterations =  1.0

     negative rho (up, down):  1.568E-04 0.000E+00

     total cpu time spent up to now is        3.1 secs

     total energy              =     -32.13116919 Ry
     Harris-Foulkes estimate   =     -31.89868873 Ry
     estimated scf accuracy    <       1.63632210 Ry

     iteration # 11     ecut=    30.00 Ry     beta=0.70
     Davidson diagonalization with overlap
     ethr =  8.74E-03,  avg # of iterations =  1.0

     negative rho (up, down):  1.113E-02 0.000E+00

     total cpu time spent up to now is        3.1 secs

     total energy              =     -31.14926844 Ry
     Harris-Foulkes estimate   =     -32.21941048 Ry
     estimated scf accuracy    <       3.00979839 Ry

     iteration # 12     ecut=    30.00 Ry     beta=0.70
     Davidson diagonalization with overlap
     ethr =  8.74E-03,  avg # of iterations =  2.0

     negative rho (up, down):  2.456E-03 0.000E+00

     total cpu time spent up to now is        3.1 secs

     total energy              =     -32.01257614 Ry
     Harris-Foulkes estimate   =     -32.20062418 Ry
     estimated scf accuracy    <       1.65515129 Ry

     iteration # 13     ecut=    30.00 Ry     beta=0.70
     Davidson diagonalization with overlap
     ethr =  8.74E-03,  avg # of iterations =  1.0

     negative rho (up, down):  2.548E-05 0.000E+00

     total cpu time spent up to now is        3.2 secs

     total energy              =     -31.74838793 Ry
     Harris-Foulkes estimate   =     -32.01485194 Ry
     estimated scf accuracy    <       1.36170845 Ry

     iteration # 14     ecut=    30.00 Ry     beta=0.70
     Davidson diagonalization with overlap
     ethr =  8.74E-03,  avg # of iterations =  1.0

     negative rho (up, down):  2.302E-04 0.000E+00

     total cpu time spent up to now is        3.2 secs

     total energy              =     -31.67361468 Ry
     Harris-Foulkes estimate   =     -31.75021666 Ry
     estimated scf accuracy    <       0.95672759 Ry

     iteration # 15     ecut=    30.00 Ry     beta=0.70
     Davidson diagonalization with overlap
     ethr =  8.74E-03,  avg # of iterations =  1.0

     negative rho (up, down):  4.959E-04 0.000E+00

     total cpu time spent up to now is        3.2 secs

     total energy              =     -31.50723897 Ry
     Harris-Foulkes estimate   =     -31.73020524 Ry
     estimated scf accuracy    <       1.09563144 Ry

     iteration # 16     ecut=    30.00 Ry     beta=0.70
     Davidson diagonalization with overlap
     ethr =  8.74E-03,  avg # of iterations =  1.0

     negative rho (up, down):  2.117E-05 0.000E+00

     total cpu time spent up to now is        3.3 secs

     total energy              =     -31.85503417 Ry
     Harris-Foulkes estimate   =     -31.90740446 Ry
     estimated scf accuracy    <       1.21185265 Ry

     iteration # 17     ecut=    30.00 Ry     beta=0.70
     Davidson diagonalization with overlap
     ethr =  8.74E-03,  avg # of iterations =  1.0

     negative rho (up, down):  4.147E-06 0.000E+00

     total cpu time spent up to now is        3.3 secs

     total energy              =     -31.80254169 Ry
     Harris-Foulkes estimate   =     -31.85517219 Ry
     estimated scf accuracy    <       1.13510763 Ry

     iteration # 18     ecut=    30.00 Ry     beta=0.70
     Davidson diagonalization with overlap
     ethr =  8.74E-03,  avg # of iterations =  1.0

     negative rho (up, down):  1.547E-06 0.000E+00

     total cpu time spent up to now is        3.3 secs

     total energy              =     -31.76391312 Ry
     Harris-Foulkes estimate   =     -31.80269087 Ry
     estimated scf accuracy    <       1.04933841 Ry

     iteration # 19     ecut=    30.00 Ry     beta=0.70
     Davidson diagonalization with overlap
     ethr =  8.74E-03,  avg # of iterations =  1.0

     negative rho (up, down):  7.650E-07 0.000E+00

     total cpu time spent up to now is        3.4 secs

     total energy              =     -31.70738550 Ry
     Harris-Foulkes estimate   =     -31.76399217 Ry
     estimated scf accuracy    <       0.98553600 Ry

     iteration # 20     ecut=    30.00 Ry     beta=0.70
     Davidson diagonalization with overlap
     ethr =  8.74E-03,  avg # of iterations =  1.0

     negative rho (up, down):  2.960E-07 0.000E+00

     total cpu time spent up to now is        3.4 secs

     total energy              =     -31.71627511 Ry
     Harris-Foulkes estimate   =     -31.71607960 Ry
     estimated scf accuracy    <       0.09684419 Ry

     iteration # 21     ecut=    30.00 Ry     beta=0.70
     Davidson diagonalization with overlap
     ethr =  1.21E-03,  avg # of iterations =  1.0

     total cpu time spent up to now is        3.4 secs

     total energy              =     -31.69943536 Ry
     Harris-Foulkes estimate   =     -31.71629212 Ry
     estimated scf accuracy    <       0.10964314 Ry

     iteration # 22     ecut=    30.00 Ry     beta=0.70
     Davidson diagonalization with overlap
     ethr =  1.21E-03,  avg # of iterations =  1.0

     total cpu time spent up to now is        3.5 secs

     total energy              =     -31.76068327 Ry
     Harris-Foulkes estimate   =     -31.75053391 Ry
     estimated scf accuracy    <       1.59310953 Ry

     iteration # 23     ecut=    30.00 Ry     beta=0.70
     Davidson diagonalization with overlap
     ethr =  1.21E-03,  avg # of iterations =  1.0

     total cpu time spent up to now is        3.5 secs

     total energy              =     -31.76625175 Ry
     Harris-Foulkes estimate   =     -31.76053338 Ry
     estimated scf accuracy    <       1.48913828 Ry

     iteration # 24     ecut=    30.00 Ry     beta=0.70
     Davidson diagonalization with overlap
     ethr =  1.21E-03,  avg # of iterations =  1.0

     total cpu time spent up to now is        3.5 secs

     total energy              =     -31.70917190 Ry
     Harris-Foulkes estimate   =     -31.76617363 Ry
     estimated scf accuracy    <       1.41276714 Ry

     iteration # 25     ecut=    30.00 Ry     beta=0.70
     Davidson diagonalization with overlap
     ethr =  1.21E-03,  avg # of iterations =  1.0

     total cpu time spent up to now is        3.6 secs

     total energy              =     -31.71323186 Ry
     Harris-Foulkes estimate   =     -31.71642180 Ry
     estimated scf accuracy    <       0.13607644 Ry

     iteration # 26     ecut=    30.00 Ry     beta=0.70
     Davidson diagonalization with overlap
     ethr =  1.21E-03,  avg # of iterations =  1.0

     total cpu time spent up to now is        3.6 secs

     total energy              =     -31.71472102 Ry
     Harris-Foulkes estimate   =     -31.71475158 Ry
     estimated scf accuracy    <       0.00033449 Ry

     iteration # 27     ecut=    30.00 Ry     beta=0.70
     Davidson diagonalization with overlap
     ethr =  4.18E-06,  avg # of iterations =  9.0

     total cpu time spent up to now is        3.6 secs

     total energy              =     -31.71461077 Ry
     Harris-Foulkes estimate   =     -31.71477774 Ry
     estimated scf accuracy    <       0.00227315 Ry

     iteration # 28     ecut=    30.00 Ry     beta=0.70
     Davidson diagonalization with overlap
     ethr =  4.18E-06,  avg # of iterations =  1.0

     total cpu time spent up to now is        3.7 secs

     total energy              =     -31.71467143 Ry
     Harris-Foulkes estimate   =     -31.71485810 Ry
     estimated scf accuracy    <       0.00863233 Ry

     iteration # 29     ecut=    30.00 Ry     beta=0.70
     Davidson diagonalization with overlap
     ethr =  4.18E-06,  avg # of iterations =  1.0

     total cpu time spent up to now is        3.7 secs

     total energy              =     -31.71474127 Ry
     Harris-Foulkes estimate   =     -31.71475101 Ry
     estimated scf accuracy    <       0.00017456 Ry

     iteration # 30     ecut=    30.00 Ry     beta=0.70
     Davidson diagonalization with overlap
     ethr =  2.18E-06,  avg # of iterations =  1.0

     total cpu time spent up to now is        3.7 secs

     total energy              =     -31.71475013 Ry
     Harris-Foulkes estimate   =     -31.71475197 Ry
     estimated scf accuracy    <       0.00025135 Ry

     iteration # 31     ecut=    30.00 Ry     beta=0.70
     Davidson diagonalization with overlap
     ethr =  2.18E-06,  avg # of iterations =  1.0

     total cpu time spent up to now is        3.8 secs

     total energy              =     -31.71474766 Ry
     Harris-Foulkes estimate   =     -31.71475043 Ry
     estimated scf accuracy    <       0.00012174 Ry

     iteration # 32     ecut=    30.00 Ry     beta=0.70
     Davidson diagonalization with overlap
     ethr =  1.52E-06,  avg # of iterations =  1.0

     total cpu time spent up to now is        3.8 secs

     total energy              =     -31.71474844 Ry
     Harris-Foulkes estimate   =     -31.71474871 Ry
     estimated scf accuracy    <       0.00000365 Ry

     iteration # 33     ecut=    30.00 Ry     beta=0.70
     Davidson diagonalization with overlap
     ethr =  4.56E-08,  avg # of iterations =  1.0

     total cpu time spent up to now is        3.8 secs

     total energy              =     -31.71474847 Ry
     Harris-Foulkes estimate   =     -31.71474885 Ry
     estimated scf accuracy    <       0.00001427 Ry

     iteration # 34     ecut=    30.00 Ry     beta=0.70
     Davidson diagonalization with overlap
     ethr =  4.56E-08,  avg # of iterations =  1.0

     total cpu time spent up to now is        3.9 secs

     total energy              =     -31.71474867 Ry
     Harris-Foulkes estimate   =     -31.71474866 Ry
     estimated scf accuracy    <       0.00000001 Ry

     iteration # 35     ecut=    30.00 Ry     beta=0.70
     Davidson diagonalization with overlap
     ethr =  1.82E-10,  avg # of iterations =  1.0

     total cpu time spent up to now is        3.9 secs

     End of self-consistent calculation

          k = 0.0000 0.0000 0.0000 ( 22119 PWs)   bands (ev):

   -23.5826  -8.6313  -6.8923  -6.8907  -6.7542  -4.5853  -0.1006   0.7684

     the Fermi energy is    -6.7218 ev

!    total energy              =     -31.71474864 Ry
     Harris-Foulkes estimate   =     -31.71474867 Ry
     estimated scf accuracy    <          2.3E-09 Ry

     convergence has been achieved in  35 iterations

     Forces acting on atoms (Ry/au):

     atom    1 type  1   force =    -0.07132244   -0.08329580    0.12193540
     atom    2 type  1   force =     0.00004442   -0.00014348    0.00023898
     atom    3 type  2   force =     0.07127801    0.08343928   -0.12217439

     Total force =     0.232083     Total SCF correction =     0.000074

     Entering Dynamics:    iteration =     3
                           time      =   0.0145 pico-seconds


     Andersen thermostat:    3 collisions

ATOMIC_POSITIONS (bohr)
H       11.034269963  16.445320061   7.682393887
H        4.212572611   8.691353487   4.173711224
O       10.479527547  15.349281312   9.089860094


     kinetic energy (Ekin) =     0.02732675 Ry
     temperature           =  1438.18257011 K 
     Ekin + Etot (const)   =   -31.68742188 Ry
     Message from routine dynamics:
     Total linear momentum <> 0

     Linear momentum :   -0.0313804463    0.1858096828    0.1057850514

     Writing output data file pwscf.save

     second order wave-functions extrapolation
     Check: negative starting charge=   -0.344305
     second order charge density extrapolation
     Check: negative starting charge=   -0.348655

     negative rho (up, down):  3.007E-01 0.000E+00

     total cpu time spent up to now is        4.2 secs

     per-process dynamical memory:    20.4 Mb

     Self-consistent Calculation

     iteration #  1     ecut=    30.00 Ry     beta=0.70
     Davidson diagonalization with overlap
     c_bands:  1 eigenvalues not converged
     ethr =  1.00E-06,  avg # of iterations = 20.0

     negative rho (up, down):  5.815E-02 0.000E+00

     total cpu time spent up to now is        4.3 secs

     total energy              =     -30.36035515 Ry
     Harris-Foulkes estimate   =     -32.31500576 Ry
     estimated scf accuracy    <       0.96672189 Ry

     iteration #  2     ecut=    30.00 Ry     beta=0.70
     Davidson diagonalization with overlap
     ethr =  1.00E-02,  avg # of iterations =  3.0

     negative rho (up, down):  8.880E-03 0.000E+00

     total cpu time spent up to now is        4.3 secs

     total energy              =     -30.89452365 Ry
     Harris-Foulkes estimate   =     -33.20272879 Ry
     estimated scf accuracy    <       8.64043330 Ry

     iteration #  3     ecut=    30.00 Ry     beta=0.70
     Davidson diagonalization with overlap
     ethr =  1.00E-02,  avg # of iterations =  2.0

     negative rho (up, down):  2.184E-02 0.000E+00

     total cpu time spent up to now is        4.4 secs

     total energy              =     -31.85324417 Ry
     Harris-Foulkes estimate   =     -32.12159807 Ry
     estimated scf accuracy    <       1.77503326 Ry

     iteration #  4     ecut=    30.00 Ry     beta=0.70
     Davidson diagonalization with overlap
     ethr =  1.00E-02,  avg # of iterations =  1.0

     negative rho (up, down):  5.899E-03 0.000E+00

     total cpu time spent up to now is        4.4 secs

     total energy              =     -31.86306973 Ry
     Harris-Foulkes estimate   =     -31.99701593 Ry
     estimated scf accuracy    <       1.20867316 Ry

     iteration #  5     ecut=    30.00 Ry     beta=0.70
     Davidson diagonalization with overlap
     ethr =  1.00E-02,  avg # of iterations =  1.0

     negative rho (up, down):  1.208E-02 0.000E+00

     total cpu time spent up to now is        4.4 secs

     total energy              =     -31.90881976 Ry
     Harris-Foulkes estimate   =     -32.01670452 Ry
     estimated scf accuracy    <       1.35985103 Ry

     iteration #  6     ecut=    30.00 Ry     beta=0.70
     Davidson diagonalization with overlap
     ethr =  1.00E-02,  avg # of iterations =  1.0

     negative rho (up, down):  1.583E-02 0.000E+00

     total cpu time spent up to now is        4.5 secs

     total energy              =     -31.92490300 Ry
     Harris-Foulkes estimate   =     -31.92499586 Ry
     estimated scf accuracy    <       0.01515653 Ry

     iteration #  7     ecut=    30.00 Ry     beta=0.70
     Davidson diagonalization with overlap
     ethr =  1.89E-04,  avg # of iterations =  6.0

     negative rho (up, down):  8.354E-03 0.000E+00

     total cpu time spent up to now is        4.5 secs

     total energy              =     -31.93070192 Ry
     Harris-Foulkes estimate   =     -31.92825439 Ry
     estimated scf accuracy    <       0.16751622 Ry

     iteration #  8     ecut=    30.00 Ry     beta=0.70
     Davidson diagonalization with overlap
     ethr =  1.89E-04,  avg # of iterations =  3.0

     negative rho (up, down):  1.494E-02 0.000E+00

     total cpu time spent up to now is        4.5 secs

     total energy              =     -31.93609484 Ry
     Harris-Foulkes estimate   =     -31.93378970 Ry
     estimated scf accuracy    <       0.00394832 Ry

     iteration #  9     ecut=    30.00 Ry     beta=0.70
     Davidson diagonalization with overlap
     ethr =  4.94E-05,  avg # of iterations =  4.0

     negative rho (up, down):  4.680E-05 0.000E+00

     total cpu time spent up to now is        4.6 secs

     total energy              =     -31.93296810 Ry
     Harris-Foulkes estimate   =     -31.93816495 Ry
     estimated scf accuracy    <       0.09392457 Ry

     iteration # 10     ecut=    30.00 Ry     beta=0.70
     Davidson diagonalization with overlap
     ethr =  4.94E-05,  avg # of iterations =  3.0

     negative rho (up, down):  4.727E-04 0.000E+00

     total cpu time spent up to now is        4.6 secs

     total energy              =     -31.93541640 Ry
     Harris-Foulkes estimate   =     -31.93800860 Ry
     estimated scf accuracy    <       0.10647029 Ry

     iteration # 11     ecut=    30.00 Ry     beta=0.70
     Davidson diagonalization with overlap
     ethr =  4.94E-05,  avg # of iterations =  1.0

     negative rho (up, down):  1.427E-06 0.000E+00

     total cpu time spent up to now is        4.7 secs

     total energy              =     -31.93671475 Ry
     Harris-Foulkes estimate   =     -31.93670791 Ry
     estimated scf accuracy    <       0.00003543 Ry

     iteration # 12     ecut=    30.00 Ry     beta=0.70
     Davidson diagonalization with overlap
     c_bands:  1 eigenvalues not converged
     ethr =  4.43E-07,  avg # of iterations = 20.0

     negative rho (up, down):  1.479E-07 0.000E+00

     total cpu time spent up to now is        4.7 secs

     total energy              =     -31.93674450 Ry
     Harris-Foulkes estimate   =     -31.93675147 Ry
     estimated scf accuracy    <       0.00348144 Ry

     iteration # 13     ecut=    30.00 Ry     beta=0.70
     Davidson diagonalization with overlap
     ethr =  4.43E-07,  avg # of iterations =  1.0

     total cpu time spent up to now is        4.7 secs

     total energy              =     -31.93669776 Ry
     Harris-Foulkes estimate   =     -31.93674485 Ry
     estimated scf accuracy    <       0.00296874 Ry

     iteration # 14     ecut=    30.00 Ry     beta=0.70
     Davidson diagonalization with overlap
     ethr =  4.43E-07,  avg # of iterations =  1.0

     total cpu time spent up to now is        4.8 secs

     total energy              =     -31.93670159 Ry
     Harris-Foulkes estimate   =     -31.93671221 Ry
     estimated scf accuracy    <       0.00043307 Ry

     iteration # 15     ecut=    30.00 Ry     beta=0.70
     Davidson diagonalization with overlap
     ethr =  4.43E-07,  avg # of iterations =  1.0

     total cpu time spent up to now is        4.8 secs

     End of self-consistent calculation

          k = 0.0000 0.0000 0.0000 ( 22119 PWs)   bands (ev):

   -25.1120 -10.7836  -7.0642  -7.0630  -6.9210  -0.5787   0.4152   0.8262

     the Fermi energy is    -6.8922 ev

!    total energy              =     -31.93670714 Ry
     Harris-Foulkes estimate   =     -31.93670718 Ry
     estimated scf accuracy    <          2.5E-09 Ry

     convergence has been achieved in  15 iterations

     Forces acting on atoms (Ry/au):

     atom    1 type  1   force =     0.04536413    0.08976191   -0.11495328
     atom    2 type  1   force =     0.00041214   -0.00019289    0.00038887
     atom    3 type  2   force =    -0.04577627   -0.08956901    0.11456441

     Total force =     0.215807     Total SCF correction =     0.000121

     Entering Dynamics:    iteration =     4
                           time      =   0.0194 pico-seconds


     Andersen thermostat:    3 collisions

ATOMIC_POSITIONS (bohr)
H       11.079448242  16.992501425   6.279838788
H        4.472295633   8.591086383   4.525308399
O       10.460280653  15.321069850   9.156201813


     kinetic energy (Ekin) =     0.03990349 Ry
     temperature           =  2100.08518859 K 
     Ekin + Etot (const)   =   -31.89680364 Ry
     Message from routine dynamics:
     Total linear momentum <> 0

     Linear momentum :   -0.0582935815    0.1304120960    0.0810431495

     Writing output data file pwscf.save

     second order wave-functions extrapolation
     Check: negative starting charge=   -0.348655
     second order charge density extrapolation
     Check: negative starting charge=   -0.344152

     negative rho (up, down):  8.083E-02 0.000E+00

     total cpu time spent up to now is        5.2 secs

     per-process dynamical memory:    20.4 Mb

     Self-consistent Calculation

     iteration #  1     ecut=    30.00 Ry     beta=0.70
     Davidson diagonalization with overlap
     c_bands:  1 eigenvalues not converged
     ethr =  1.00E-06,  avg # of iterations = 20.0

     negative rho (up, down):  1.809E-02 0.000E+00

     total cpu time spent up to now is        5.2 secs

     total energy              =     -31.09066211 Ry
     Harris-Foulkes estimate   =     -31.70728625 Ry
     estimated scf accuracy    <       0.75335326 Ry

     iteration #  2     ecut=    30.00 Ry     beta=0.70
     Davidson diagonalization with overlap
     ethr =  9.42E-03,  avg # of iterations =  2.0

     negative rho (up, down):  1.440E-02 0.000E+00

     total cpu time spent up to now is        5.3 secs

     total energy              =     -31.85212788 Ry
     Harris-Foulkes estimate   =     -33.39942650 Ry
     estimated scf accuracy    <       4.94751821 Ry

     iteration #  3     ecut=    30.00 Ry     beta=0.70
     Davidson diagonalization with overlap
     ethr =  9.42E-03,  avg # of iterations =  2.0

     negative rho (up, down):  1.255E-02 0.000E+00

     total cpu time spent up to now is        5.3 secs

     total energy              =     -31.86700669 Ry
     Harris-Foulkes estimate   =     -32.05052779 Ry
     estimated scf accuracy    <       1.47172462 Ry

     iteration #  4     ecut=    30.00 Ry     beta=0.70
     Davidson diagonalization with overlap
     ethr =  9.42E-03,  avg # of iterations =  1.0

     negative rho (up, down):  1.004E-02 0.000E+00

     total cpu time spent up to now is        5.3 secs

     total energy              =     -31.62401642 Ry
     Harris-Foulkes estimate   =     -31.86804696 Ry
     estimated scf accuracy    <       1.25486142 Ry

     iteration #  5     ecut=    30.00 Ry     beta=0.70
     Davidson diagonalization with overlap
     ethr =  9.42E-03,  avg # of iterations =  1.0

     negative rho (up, down):  5.100E-03 0.000E+00

     total cpu time spent up to now is        5.4 secs

     total energy              =     -31.62921718 Ry
     Harris-Foulkes estimate   =     -31.78332718 Ry
     estimated scf accuracy    <       1.25575500 Ry

     iteration #  6     ecut=    30.00 Ry     beta=0.70
     Davidson diagonalization with overlap
     ethr =  9.42E-03,  avg # of iterations =  1.0

     negative rho (up, down):  8.690E-04 0.000E+00

     total cpu time spent up to now is        5.4 secs

     total energy              =     -31.68616798 Ry
     Harris-Foulkes estimate   =     -31.77459758 Ry
     estimated scf accuracy    <       0.98426933 Ry

     iteration #  7     ecut=    30.00 Ry     beta=0.70
     Davidson diagonalization with overlap
     ethr =  9.42E-03,  avg # of iterations =  1.0

     negative rho (up, down):  3.418E-04 0.000E+00

     total cpu time spent up to now is        5.4 secs

     total energy              =     -31.69208200 Ry
     Harris-Foulkes estimate   =     -31.73277665 Ry
     estimated scf accuracy    <       0.76235554 Ry

     iteration #  8     ecut=    30.00 Ry     beta=0.70
     Davidson diagonalization with overlap
     ethr =  9.42E-03,  avg # of iterations =  1.0

     negative rho (up, down):  1.023E-05 0.000E+00

     total cpu time spent up to now is        5.5 secs

     total energy              =     -31.71343972 Ry
     Harris-Foulkes estimate   =     -31.73297462 Ry
     estimated scf accuracy    <       0.55397632 Ry

     iteration #  9     ecut=    30.00 Ry     beta=0.70
     Davidson diagonalization with overlap
     ethr =  6.92E-03,  avg # of iterations =  1.0

     negative rho (up, down):  1.209E-06 0.000E+00

     total cpu time spent up to now is        5.5 secs

     total energy              =     -31.72206075 Ry
     Harris-Foulkes estimate   =     -31.72280042 Ry
     estimated scf accuracy    <       0.00522100 Ry

     iteration # 10     ecut=    30.00 Ry     beta=0.70
     Davidson diagonalization with overlap
     ethr =  6.53E-05,  avg # of iterations =  4.0

     total cpu time spent up to now is        5.5 secs

     total energy              =     -31.72077828 Ry
     Harris-Foulkes estimate   =     -31.72422886 Ry
     estimated scf accuracy    <       0.10588390 Ry

     iteration # 11     ecut=    30.00 Ry     beta=0.70
     Davidson diagonalization with overlap
     ethr =  6.53E-05,  avg # of iterations =  1.0

     total cpu time spent up to now is        5.6 secs

     total energy              =     -31.72281797 Ry
     Harris-Foulkes estimate   =     -31.72279718 Ry
     estimated scf accuracy    <       0.00481926 Ry

     iteration # 12     ecut=    30.00 Ry     beta=0.70
     Davidson diagonalization with overlap
     ethr =  6.02E-05,  avg # of iterations =  1.0

     total cpu time spent up to now is        5.6 secs

     total energy              =     -31.72286439 Ry
     Harris-Foulkes estimate   =     -31.72282012 Ry
     estimated scf accuracy    <       0.00664149 Ry

     iteration # 13     ecut=    30.00 Ry     beta=0.70
     Davidson diagonalization with overlap
     ethr =  6.02E-05,  avg # of iterations =  1.0

     total cpu time spent up to now is        5.6 secs

     total energy              =     -31.72273365 Ry
     Harris-Foulkes estimate   =     -31.72287016 Ry
     estimated scf accuracy    <       0.01061064 Ry

     iteration # 14     ecut=    30.00 Ry     beta=0.70
     Davidson diagonalization with overlap
     ethr =  6.02E-05,  avg # of iterations =  1.0

     total cpu time spent up to now is        5.7 secs

     total energy              =     -31.72270972 Ry
     Harris-Foulkes estimate   =     -31.72276763 Ry
     estimated scf accuracy    <       0.00258193 Ry

     iteration # 15     ecut=    30.00 Ry     beta=0.70
     Davidson diagonalization with overlap
     ethr =  3.23E-05,  avg # of iterations =  1.0

     total cpu time spent up to now is        5.7 secs

     total energy              =     -31.72273397 Ry
     Harris-Foulkes estimate   =     -31.72273456 Ry
     estimated scf accuracy    <       0.00004063 Ry

     iteration # 16     ecut=    30.00 Ry     beta=0.70
     Davidson diagonalization with overlap
     ethr =  5.08E-07,  avg # of iterations = 16.0

     total cpu time spent up to now is        5.8 secs

     total energy              =     -31.72273438 Ry
     Harris-Foulkes estimate   =     -31.72273420 Ry
     estimated scf accuracy    <       0.00000483 Ry

     iteration # 17     ecut=    30.00 Ry     beta=0.70
     Davidson diagonalization with overlap
     ethr =  6.04E-08,  avg # of iterations =  1.0

     total cpu time spent up to now is        5.8 secs

     total energy              =     -31.72273468 Ry
     Harris-Foulkes estimate   =     -31.72273440 Ry
     estimated scf accuracy    <       0.00000146 Ry

     iteration # 18     ecut=    30.00 Ry     beta=0.70
     Davidson diagonalization with overlap
     ethr =  1.83E-08,  avg # of iterations =  1.0

     total cpu time spent up to now is        5.8 secs

     total energy              =     -31.72273479 Ry
     Harris-Foulkes estimate   =     -31.72273468 Ry
     estimated scf accuracy    <       0.00000036 Ry

     iteration # 19     ecut=    30.00 Ry     beta=0.70
     Davidson diagonalization with overlap
     ethr =  4.53E-09,  avg # of iterations =  1.0

     total cpu time spent up to now is        5.8 secs

     End of self-consistent calculation

          k = 0.0000 0.0000 0.0000 ( 22119 PWs)   bands (ev):

   -23.5925  -8.6869  -6.8983  -6.8965  -6.7598  -4.4779  -0.0960   0.7603

     the Fermi energy is    -6.7276 ev

!    total energy              =     -31.72273476 Ry
     Harris-Foulkes estimate   =     -31.72273480 Ry
     estimated scf accuracy    <          3.3E-09 Ry

     convergence has been achieved in  19 iterations

     Forces acting on atoms (Ry/au):

     atom    1 type  1   force =    -0.02973738   -0.08276166    0.14203158
     atom    2 type  1   force =     0.00071355   -0.00026873    0.00022482
     atom    3 type  2   force =     0.02902383    0.08303039   -0.14225640

     Total force =     0.236391     Total SCF correction =     0.000008

     Entering Dynamics:    iteration =     5
                           time      =   0.0242 pico-seconds


     Andersen thermostat:    3 collisions

ATOMIC_POSITIONS (bohr)
H       11.406600140  15.557808213   8.006811873
H        4.164460440   8.450050692   4.532959082
O       10.459061286  15.420537737   9.046703687


     kinetic energy (Ekin) =     0.10997567 Ry
     temperature           =  5787.92146559 K 
     Ekin + Etot (const)   =   -31.61275909 Ry
     Message from routine dynamics:
     Total linear momentum <> 0

     Linear momentum :    0.1089457045    0.0091353254   -0.1605785418

     Writing output data file pwscf.save

     second order wave-functions extrapolation
     Check: negative starting charge=   -0.344152
     second order charge density extrapolation
     Check: negative starting charge=   -0.352195

     negative rho (up, down):  1.838E-01 0.000E+00

     total cpu time spent up to now is        6.2 secs

     per-process dynamical memory:    20.4 Mb

     Self-consistent Calculation

     iteration #  1     ecut=    30.00 Ry     beta=0.70
     Davidson diagonalization with overlap
     c_bands:  2 eigenvalues not converged
     ethr =  1.00E-06,  avg # of iterations = 20.0

     negative rho (up, down):  4.349E-02 0.000E+00

     total cpu time spent up to now is        6.3 secs

     total energy              =     -30.86789417 Ry
     Harris-Foulkes estimate   =     -31.68989974 Ry
     estimated scf accuracy    <       1.02129345 Ry

     iteration #  2     ecut=    30.00 Ry     beta=0.70
     Davidson diagonalization with overlap
     ethr =  1.00E-02,  avg # of iterations =  3.0

     negative rho (up, down):  4.509E-03 0.000E+00

     total cpu time spent up to now is        6.3 secs

     total energy              =     -31.09043661 Ry
     Harris-Foulkes estimate   =     -33.88815437 Ry
     estimated scf accuracy    <      10.15642392 Ry

     iteration #  3     ecut=    30.00 Ry     beta=0.70
     Davidson diagonalization with overlap
     ethr =  1.00E-02,  avg # of iterations =  3.0

     negative rho (up, down):  6.616E-03 0.000E+00

     total cpu time spent up to now is        6.3 secs

     total energy              =     -31.77373722 Ry
     Harris-Foulkes estimate   =     -31.92560112 Ry
     estimated scf accuracy    <       1.89785172 Ry

     iteration #  4     ecut=    30.00 Ry     beta=0.70
     Davidson diagonalization with overlap
     ethr =  1.00E-02,  avg # of iterations =  1.0

     negative rho (up, down):  1.437E-01 0.000E+00

     total cpu time spent up to now is        6.4 secs

     total energy              =     -31.29986002 Ry
     Harris-Foulkes estimate   =     -31.78380022 Ry
     estimated scf accuracy    <       1.60013730 Ry

     iteration #  5     ecut=    30.00 Ry     beta=0.70
     Davidson diagonalization with overlap
     ethr =  1.00E-02,  avg # of iterations =  5.0

     negative rho (up, down):  5.762E-02 0.000E+00

     total cpu time spent up to now is        6.4 secs

     total energy              =     -31.81554684 Ry
     Harris-Foulkes estimate   =     -31.88901165 Ry
     estimated scf accuracy    <       1.23292694 Ry

     iteration #  6     ecut=    30.00 Ry     beta=0.70
     Davidson diagonalization with overlap
     ethr =  1.00E-02,  avg # of iterations =  1.0

     total cpu time spent up to now is        6.4 secs

     total energy              =     -31.56776205 Ry
     Harris-Foulkes estimate   =     -31.81611834 Ry
     estimated scf accuracy    <       1.08179056 Ry

     iteration #  7     ecut=    30.00 Ry     beta=0.70
     Davidson diagonalization with overlap
     ethr =  1.00E-02,  avg # of iterations =  1.0

     negative rho (up, down):  2.452E-08 0.000E+00

     total cpu time spent up to now is        6.5 secs

     total energy              =     -31.75444597 Ry
     Harris-Foulkes estimate   =     -31.79918725 Ry
     estimated scf accuracy    <       1.55858260 Ry

     iteration #  8     ecut=    30.00 Ry     beta=0.70
     Davidson diagonalization with overlap
     ethr =  1.00E-02,  avg # of iterations =  1.0

     total cpu time spent up to now is        6.5 secs

     total energy              =     -31.71640111 Ry
     Harris-Foulkes estimate   =     -31.75464123 Ry
     estimated scf accuracy    <       1.57470942 Ry

     iteration #  9     ecut=    30.00 Ry     beta=0.70
     Davidson diagonalization with overlap
     ethr =  1.00E-02,  avg # of iterations =  1.0

     total cpu time spent up to now is        6.5 secs

     total energy              =     -31.61786413 Ry
     Harris-Foulkes estimate   =     -31.71411346 Ry
     estimated scf accuracy    <       1.66543601 Ry

     iteration # 10     ecut=    30.00 Ry     beta=0.70
     Davidson diagonalization with overlap
     ethr =  1.00E-02,  avg # of iterations =  1.0

     total cpu time spent up to now is        6.7 secs

     total energy              =     -31.69020877 Ry
     Harris-Foulkes estimate   =     -31.70264223 Ry
     estimated scf accuracy    <       0.70676159 Ry

     iteration # 11     ecut=    30.00 Ry     beta=0.70
     Davidson diagonalization with overlap
     ethr =  8.83E-03,  avg # of iterations =  1.0

     negative rho (up, down):  2.790E-04 0.000E+00

     total cpu time spent up to now is        6.7 secs

     total energy              =     -31.79493386 Ry
     Harris-Foulkes estimate   =     -31.68995468 Ry
     estimated scf accuracy    <       0.76051027 Ry

     iteration # 12     ecut=    30.00 Ry     beta=0.70
     Davidson diagonalization with overlap
     ethr =  8.83E-03,  avg # of iterations =  1.0

     negative rho (up, down):  6.893E-04 0.000E+00

     total cpu time spent up to now is        6.7 secs

     total energy              =     -31.80524587 Ry
     Harris-Foulkes estimate   =     -31.80340308 Ry
     estimated scf accuracy    <       1.05593761 Ry

     iteration # 13     ecut=    30.00 Ry     beta=0.70
     Davidson diagonalization with overlap
     ethr =  8.83E-03,  avg # of iterations =  1.0

     negative rho (up, down):  1.501E-04 0.000E+00

     total cpu time spent up to now is        6.8 secs

     total energy              =     -31.78777296 Ry
     Harris-Foulkes estimate   =     -31.80612361 Ry
     estimated scf accuracy    <       1.05165974 Ry

     iteration # 14     ecut=    30.00 Ry     beta=0.70
     Davidson diagonalization with overlap
     ethr =  8.83E-03,  avg # of iterations =  1.0

     negative rho (up, down):  1.014E-04 0.000E+00

     total cpu time spent up to now is        6.8 secs

     total energy              =     -31.77096502 Ry
     Harris-Foulkes estimate   =     -31.79012858 Ry
     estimated scf accuracy    <       1.02902444 Ry

     iteration # 15     ecut=    30.00 Ry     beta=0.70
     Davidson diagonalization with overlap
     ethr =  8.83E-03,  avg # of iterations =  1.0

     negative rho (up, down):  7.992E-05 0.000E+00

     total cpu time spent up to now is        6.8 secs

     total energy              =     -31.73746202 Ry
     Harris-Foulkes estimate   =     -31.77094025 Ry
     estimated scf accuracy    <       1.00498656 Ry

     iteration # 16     ecut=    30.00 Ry     beta=0.70
     Davidson diagonalization with overlap
     ethr =  8.83E-03,  avg # of iterations =  1.0

     negative rho (up, down):  1.031E-05 0.000E+00

     total cpu time spent up to now is        6.9 secs

     total energy              =     -31.67865600 Ry
     Harris-Foulkes estimate   =     -31.73747450 Ry
     estimated scf accuracy    <       0.95765558 Ry

     iteration # 17     ecut=    30.00 Ry     beta=0.70
     Davidson diagonalization with overlap
     ethr =  8.83E-03,  avg # of iterations =  1.0

     negative rho (up, down):  1.872E-05 0.000E+00

     total cpu time spent up to now is        6.9 secs

     total energy              =     -31.67826718 Ry
     Harris-Foulkes estimate   =     -31.68156433 Ry
     estimated scf accuracy    <       0.44193029 Ry

     iteration # 18     ecut=    30.00 Ry     beta=0.70
     Davidson diagonalization with overlap
     ethr =  5.52E-03,  avg # of iterations =  1.0

     negative rho (up, down):  1.016E-05 0.000E+00

     total cpu time spent up to now is        6.9 secs

     total energy              =     -31.64665673 Ry
     Harris-Foulkes estimate   =     -31.67842761 Ry
     estimated scf accuracy    <       0.37690696 Ry

     iteration # 19     ecut=    30.00 Ry     beta=0.70
     Davidson diagonalization with overlap
     ethr =  4.71E-03,  avg # of iterations =  1.0

     negative rho (up, down):  2.021E-07 0.000E+00

     total cpu time spent up to now is        7.0 secs

     total energy              =     -31.63590713 Ry
     Harris-Foulkes estimate   =     -31.69036889 Ry
     estimated scf accuracy    <       1.02460117 Ry

     iteration # 20     ecut=    30.00 Ry     beta=0.70
     Davidson diagonalization with overlap
     ethr =  4.71E-03,  avg # of iterations =  1.0

     negative rho (up, down):  5.937E-07 0.000E+00

     total cpu time spent up to now is        7.0 secs

     total energy              =     -31.67144741 Ry
     Harris-Foulkes estimate   =     -31.67484233 Ry
     estimated scf accuracy    <       0.23422560 Ry

     iteration # 21     ecut=    30.00 Ry     beta=0.70
     Davidson diagonalization with overlap
     ethr =  2.93E-03,  avg # of iterations =  1.0

     negative rho (up, down):  5.682E-07 0.000E+00

     total cpu time spent up to now is        7.0 secs

     total energy              =     -31.66982261 Ry
     Harris-Foulkes estimate   =     -31.67201734 Ry
     estimated scf accuracy    <       0.11283830 Ry

     iteration # 22     ecut=    30.00 Ry     beta=0.70
     Davidson diagonalization with overlap
     ethr =  1.41E-03,  avg # of iterations =  1.0

     negative rho (up, down):  3.980E-08 0.000E+00

     total cpu time spent up to now is        7.1 secs

     total energy              =     -31.67039417 Ry
     Harris-Foulkes estimate   =     -31.67048854 Ry
     estimated scf accuracy    <       0.01448070 Ry

     iteration # 23     ecut=    30.00 Ry     beta=0.70
     Davidson diagonalization with overlap
     ethr =  1.81E-04,  avg # of iterations =  1.0

     total cpu time spent up to now is        7.1 secs

     total energy              =     -31.67103033 Ry
     Harris-Foulkes estimate   =     -31.67062721 Ry
     estimated scf accuracy    <       0.01829437 Ry

     iteration # 24     ecut=    30.00 Ry     beta=0.70
     Davidson diagonalization with overlap
     ethr =  1.81E-04,  avg # of iterations =  1.0

     negative rho (up, down):  3.472E-06 0.000E+00

     total cpu time spent up to now is        7.1 secs

     total energy              =     -31.66889312 Ry
     Harris-Foulkes estimate   =     -31.67117989 Ry
     estimated scf accuracy    <       0.05607918 Ry

     iteration # 25     ecut=    30.00 Ry     beta=0.70
     Davidson diagonalization with overlap
     ethr =  1.81E-04,  avg # of iterations =  1.0

     negative rho (up, down):  4.929E-06 0.000E+00

     total cpu time spent up to now is        7.2 secs

     total energy              =     -31.67007843 Ry
     Harris-Foulkes estimate   =     -31.67040139 Ry
     estimated scf accuracy    <       0.01014844 Ry

     iteration # 26     ecut=    30.00 Ry     beta=0.70
     Davidson diagonalization with overlap
     ethr =  1.27E-04,  avg # of iterations =  1.0

     negative rho (up, down):  3.898E-06 0.000E+00

     total cpu time spent up to now is        7.2 secs

     total energy              =     -31.67040284 Ry
     Harris-Foulkes estimate   =     -31.67027310 Ry
     estimated scf accuracy    <       0.00044268 Ry

     iteration # 27     ecut=    30.00 Ry     beta=0.70
     Davidson diagonalization with overlap
     ethr =  5.53E-06,  avg # of iterations = 12.0

     negative rho (up, down):  1.239E-07 0.000E+00

     total cpu time spent up to now is        7.2 secs

     total energy              =     -31.67016527 Ry
     Harris-Foulkes estimate   =     -31.67087500 Ry
     estimated scf accuracy    <       0.04022650 Ry

     iteration # 28     ecut=    30.00 Ry     beta=0.70
     Davidson diagonalization with overlap
     ethr =  5.53E-06,  avg # of iterations =  1.0

     negative rho (up, down):  7.441E-08 0.000E+00

     total cpu time spent up to now is        7.3 secs

     total energy              =     -31.67021956 Ry
     Harris-Foulkes estimate   =     -31.67036557 Ry
     estimated scf accuracy    <       0.00735412 Ry

     iteration # 29     ecut=    30.00 Ry     beta=0.70
     Davidson diagonalization with overlap
     ethr =  5.53E-06,  avg # of iterations =  1.0

     total cpu time spent up to now is        7.3 secs

     total energy              =     -31.67025610 Ry
     Harris-Foulkes estimate   =     -31.67027352 Ry
     estimated scf accuracy    <       0.00049484 Ry

     iteration # 30     ecut=    30.00 Ry     beta=0.70
     Davidson diagonalization with overlap
     ethr =  5.53E-06,  avg # of iterations =  1.0

     total cpu time spent up to now is        7.3 secs

     total energy              =     -31.67026752 Ry
     Harris-Foulkes estimate   =     -31.67026981 Ry
     estimated scf accuracy    <       0.00009643 Ry

     iteration # 31     ecut=    30.00 Ry     beta=0.70
     Davidson diagonalization with overlap
     ethr =  1.21E-06,  avg # of iterations =  1.0

     total cpu time spent up to now is        7.4 secs

     total energy              =     -31.67026780 Ry
     Harris-Foulkes estimate   =     -31.67026811 Ry
     estimated scf accuracy    <       0.00001068 Ry

     iteration # 32     ecut=    30.00 Ry     beta=0.70
     Davidson diagonalization with overlap
     ethr =  1.34E-07,  avg # of iterations =  1.0

     total cpu time spent up to now is        7.4 secs

     total energy              =     -31.67026754 Ry
     Harris-Foulkes estimate   =     -31.67026784 Ry
     estimated scf accuracy    <       0.00000250 Ry

     iteration # 33     ecut=    30.00 Ry     beta=0.70
     Davidson diagonalization with overlap
     ethr =  3.12E-08,  avg # of iterations =  1.0

     total cpu time spent up to now is        7.4 secs

     total energy              =     -31.67026759 Ry
     Harris-Foulkes estimate   =     -31.67026759 Ry
     estimated scf accuracy    <       0.00000004 Ry

     iteration # 34     ecut=    30.00 Ry     beta=0.70
     Davidson diagonalization with overlap
     ethr =  4.82E-10,  avg # of iterations =  1.0

     total cpu time spent up to now is        7.5 secs

     End of self-consistent calculation

          k = 0.0000 0.0000 0.0000 ( 22119 PWs)   bands (ev):

   -27.1974 -11.2561  -7.2163  -7.2151  -7.0674  -0.3931   0.5516   0.8176

     the Fermi energy is    -7.0423 ev

!    total energy              =     -31.67026761 Ry
     Harris-Foulkes estimate   =     -31.67026759 Ry
     estimated scf accuracy    <          4.6E-10 Ry

     convergence has been achieved in  34 iterations

     Forces acting on atoms (Ry/au):

     atom    1 type  1   force =     0.83737279    0.12188991   -0.91872908
     atom    2 type  1   force =     0.00038192    0.00014627    0.00018880
     atom    3 type  2   force =    -0.83775471   -0.12203618    0.91854027

     Total force =     1.766509     Total SCF correction =     0.000079

     Entering Dynamics:    iteration =     6
                           time      =   0.0290 pico-seconds


     Andersen thermostat:    3 collisions

ATOMIC_POSITIONS (bohr)
H       20.131379226  16.820335770  -1.648139555
H        4.270371766   8.408084650   4.030262931
O        9.901623954  15.343489791   9.687905191


     kinetic energy (Ekin) =     1.96644172 Ry
     temperature           = ************** K 
     Ekin + Etot (const)   =   -29.70382589 Ry
     Message from routine dynamics:
     Total linear momentum <> 0

     Linear momentum :   -0.1466260678   -0.2908410157   -0.0098839828

     Writing output data file pwscf.save

     second order wave-functions extrapolation
     Check: negative starting charge=   -0.352195
     second order charge density extrapolation
     Check: negative starting charge=   -0.351579

     negative rho (up, down):  2.750E+00 0.000E+00

     total cpu time spent up to now is        7.8 secs

     per-process dynamical memory:    20.4 Mb

     Self-consistent Calculation

     iteration #  1     ecut=    30.00 Ry     beta=0.70
     Davidson diagonalization with overlap
     ethr =  1.00E-06,  avg # of iterations = 17.0

     negative rho (up, down):  5.102E-01 0.000E+00

     total cpu time spent up to now is        7.9 secs

     total energy              =     104.68250724 Ry
     Harris-Foulkes estimate   =   -4645.95790414 Ry
     estimated scf accuracy    <      31.87896992 Ry

     iteration #  2     ecut=    30.00 Ry     beta=0.70
     Davidson diagonalization with overlap
     ethr =  1.00E-02,  avg # of iterations = 13.0

     negative rho (up, down):  2.342E-01 0.000E+00

     total cpu time spent up to now is        8.0 secs

     total energy              =      26.50764634 Ry
     Harris-Foulkes estimate   =    -125.75641535 Ry
     estimated scf accuracy    <      17.81568460 Ry

     iteration #  3     ecut=    30.00 Ry     beta=0.70
     Davidson diagonalization with overlap
     ethr =  1.00E-02,  avg # of iterations =  9.0

     negative rho (up, down):  1.701E-01 0.000E+00

     total cpu time spent up to now is        8.0 secs

     total energy              =      28.35688639 Ry
     Harris-Foulkes estimate   =    -100.49358252 Ry
     estimated scf accuracy    <      19.13810165 Ry

     iteration #  4     ecut=    30.00 Ry     beta=0.70
     Davidson diagonalization with overlap
     ethr =  1.00E-02,  avg # of iterations =  9.0

     negative rho (up, down):  1.441E-01 0.000E+00

     total cpu time spent up to now is        8.1 secs

     total energy              =     -12.23160543 Ry
     Harris-Foulkes estimate   =     -49.75393936 Ry
     estimated scf accuracy    <      15.27120702 Ry

     iteration #  5     ecut=    30.00 Ry     beta=0.70
     Davidson diagonalization with overlap
     ethr =  1.00E-02,  avg # of iterations = 13.0

     negative rho (up, down):  2.792E-01 0.000E+00

     total cpu time spent up to now is        8.1 secs

     total energy              =    -623.39088881 Ry
     Harris-Foulkes estimate   =    -419.05617903 Ry
     estimated scf accuracy    <      31.87684841 Ry

     iteration #  6     ecut=    30.00 Ry     beta=0.70
     Davidson diagonalization with overlap
     ethr =  1.00E-02,  avg # of iterations =  8.0

     negative rho (up, down):  4.561E-01 0.000E+00

     total cpu time spent up to now is        8.2 secs

     total energy              =     -94.20797428 Ry
     Harris-Foulkes estimate   =    -976.34432559 Ry
     estimated scf accuracy    <      11.83352237 Ry

     iteration #  7     ecut=    30.00 Ry     beta=0.70
     Davidson diagonalization with overlap
     ethr =  1.00E-02,  avg # of iterations =  8.0

     negative rho (up, down):  4.638E-01 0.000E+00

     total cpu time spent up to now is        8.2 secs

     total energy              =   -1652.64166048 Ry
     Harris-Foulkes estimate   =    -233.97303632 Ry
     estimated scf accuracy    <      15.74840094 Ry

[...]
     Harris-Foulkes estimate   =    -585.23185069 Ry
     estimated scf accuracy    <      27.52886666 Ry

     iteration # 59     ecut=    30.00 Ry     beta=0.70
     Davidson diagonalization with overlap
     ethr =  1.00E-02,  avg # of iterations =  6.0

     negative rho (up, down):  2.497E-01 0.000E+00

     total cpu time spent up to now is       11.3 secs

     total energy              =    6253.67026171 Ry
     Harris-Foulkes estimate   =   -1173.21161867 Ry
     estimated scf accuracy    <      20.58983912 Ry

     iteration # 60     ecut=    30.00 Ry     beta=0.70
     Davidson diagonalization with overlap
     ethr =  1.00E-02,  avg # of iterations =  6.0

     negative rho (up, down):  1.191E-01 0.000E+00

     total cpu time spent up to now is       11.3 secs

     total energy              =     -21.30639350 Ry
     Harris-Foulkes estimate   =    -145.97538610 Ry
     estimated scf accuracy    <      10.36548816 Ry

     iteration # 61     ecut=    30.00 Ry     beta=0.70
     Davidson diagonalization with overlap
     ethr =  1.00E-02,  avg # of iterations =  7.0

     negative rho (up, down):  1.585E-01 0.000E+00

     total cpu time spent up to now is       11.4 secs

     total energy              =     107.22511010 Ry
     Harris-Foulkes estimate   =   -1142.06902805 Ry
     estimated scf accuracy    <      48.69153621 Ry

     iteration # 62     ecut=    30.00 Ry     beta=0.70
     Davidson diagonalization with overlap
     ethr =  1.00E-02,  avg # of iterations = 10.0

     negative rho (up, down):  1.833E-01 0.000E+00

     total cpu time spent up to now is       11.4 secs

     total energy              =     -12.13261138 Ry
     Harris-Foulkes estimate   =     -84.33142135 Ry
     estimated scf accuracy    <      12.83362068 Ry

     iteration # 63     ecut=    30.00 Ry     beta=0.70
     Davidson diagonalization with overlap
     ethr =  1.00E-02,  avg # of iterations =  9.0

     negative rho (up, down):  3.296E-01 0.000E+00

     total cpu time spent up to now is       11.5 secs

     total energy              =    -832.07799859 Ry
     Harris-Foulkes estimate   =    -688.27542494 Ry
     estimated scf accuracy    <      33.08615969 Ry

     iteration # 64     ecut=    30.00 Ry     beta=0.70
     Davidson diagonalization with overlap
     ethr =  1.00E-02,  avg # of iterations =  6.0

     negative rho (up, down):  4.944E-01 0.000E+00

     total cpu time spent up to now is       11.5 secs

     total energy              =   -1729.99738450 Ry
     Harris-Foulkes estimate   =   -5614.91478477 Ry
     estimated scf accuracy    <      43.20517735 Ry

     iteration # 65     ecut=    30.00 Ry     beta=0.70
     Davidson diagonalization with overlap
     ethr =  1.00E-02,  avg # of iterations =  6.0

     negative rho (up, down):  7.126E-01 0.000E+00

     total cpu time spent up to now is       11.6 secs

     total energy              =    -147.54527353 Ry
     Harris-Foulkes estimate   =   -2486.97809262 Ry
     estimated scf accuracy    <      40.98931591 Ry

     iteration # 66     ecut=    30.00 Ry     beta=0.70
     Davidson diagonalization with overlap
     ethr =  1.00E-02,  avg # of iterations = 11.0

     negative rho (up, down):  5.125E-01 0.000E+00

     total cpu time spent up to now is       11.7 secs

     total energy              =    -486.48995481 Ry
     Harris-Foulkes estimate   =    -942.91516295 Ry
     estimated scf accuracy    <      43.51650989 Ry

     iteration # 67     ecut=    30.00 Ry     beta=0.70
     Davidson diagonalization with overlap
     ethr =  1.00E-02,  avg # of iterations =  7.0

     negative rho (up, down):  5.836E-01 0.000E+00

     total cpu time spent up to now is       11.7 secs

     total energy              =    3810.70414675 Ry
     Harris-Foulkes estimate   =   -3179.99813084 Ry
     estimated scf accuracy    <      47.62341370 Ry

     iteration # 68     ecut=    30.00 Ry     beta=0.70
     Davidson diagonalization with overlap
     ethr =  1.00E-02,  avg # of iterations =  7.0

     negative rho (up, down):  7.169E-01 0.000E+00

     total cpu time spent up to now is       11.8 secs

     total energy              =      63.34049448 Ry
     Harris-Foulkes estimate   =   -1464.32346508 Ry
     estimated scf accuracy    <      43.81483412 Ry

     iteration # 69     ecut=    30.00 Ry     beta=0.70
     Davidson diagonalization with overlap
     ethr =  1.00E-02,  avg # of iterations =  9.0

     negative rho (up, down):  1.128E+00 0.000E+00

     total cpu time spent up to now is       11.8 secs

     total energy              =     113.58551777 Ry
     Harris-Foulkes estimate   =   -1023.45505042 Ry
     estimated scf accuracy    <      36.99755605 Ry

     iteration # 70     ecut=    30.00 Ry     beta=0.70
     Davidson diagonalization with overlap
     ethr =  1.00E-02,  avg # of iterations =  9.0

     negative rho (up, down):  4.157E-01 0.000E+00

     total cpu time spent up to now is       11.9 secs

     total energy              =      37.52967399 Ry
     Harris-Foulkes estimate   =   -3006.51966312 Ry
     estimated scf accuracy    <      31.96877754 Ry

     iteration # 71     ecut=    30.00 Ry     beta=0.70
     Davidson diagonalization with overlap
     ethr =  1.00E-02,  avg # of iterations =  7.0

     negative rho (up, down):  1.756E-01 0.000E+00

     total cpu time spent up to now is       11.9 secs

     total energy              =     103.01014644 Ry
     Harris-Foulkes estimate   =   -3655.73382256 Ry
     estimated scf accuracy    <      32.17148470 Ry

     iteration # 72     ecut=    30.00 Ry     beta=0.70
     Davidson diagonalization with overlap
     ethr =  1.00E-02,  avg # of iterations = 12.0

     negative rho (up, down):  3.953E-01 0.000E+00

     total cpu time spent up to now is       12.0 secs

     total energy              =      76.04427749 Ry
     Harris-Foulkes estimate   =   -1312.88876752 Ry
     estimated scf accuracy    <      19.50564116 Ry

     iteration # 73     ecut=    30.00 Ry     beta=0.70
     Davidson diagonalization with overlap
     ethr =  1.00E-02,  avg # of iterations =  6.0

     negative rho (up, down):  4.542E-01 0.000E+00

     total cpu time spent up to now is       12.1 secs

     total energy              =     112.56442505 Ry
     Harris-Foulkes estimate   =    -482.78257153 Ry
     estimated scf accuracy    <      32.54545024 Ry

     iteration # 74     ecut=    30.00 Ry     beta=0.70
     Davidson diagonalization with overlap
     ethr =  1.00E-02,  avg # of iterations = 10.0

     negative rho (up, down):  4.466E-01 0.000E+00

     total cpu time spent up to now is       12.1 secs

     total energy              =     238.13934443 Ry
     Harris-Foulkes estimate   =    -527.80437005 Ry
     estimated scf accuracy    <      25.71695550 Ry

     iteration # 75     ecut=    30.00 Ry     beta=0.70
     Davidson diagonalization with overlap
     ethr =  1.00E-02,  avg # of iterations = 10.0

     negative rho (up, down):  1.575E-01 0.000E+00

     total cpu time spent up to now is       12.2 secs

     total energy              =     -16.00757243 Ry
     Harris-Foulkes estimate   =    -200.60134886 Ry
     estimated scf accuracy    <      39.53413152 Ry

     iteration # 76     ecut=    30.00 Ry     beta=0.70
     Davidson diagonalization with overlap
     ethr =  1.00E-02,  avg # of iterations =  5.0

     negative rho (up, down):  5.853E-03 0.000E+00

     total cpu time spent up to now is       12.2 secs

     total energy              =      -4.12351314 Ry
     Harris-Foulkes estimate   =   -1495.66642950 Ry
     estimated scf accuracy    <      23.69304808 Ry

     iteration # 77     ecut=    30.00 Ry     beta=0.70
     Davidson diagonalization with overlap
     ethr =  1.00E-02,  avg # of iterations =  4.0

     negative rho (up, down):  6.632E-04 0.000E+00

     total cpu time spent up to now is       12.3 secs

     total energy              =     -50.08497136 Ry
     Harris-Foulkes estimate   =     -56.97114589 Ry
     estimated scf accuracy    <      36.64032583 Ry

     iteration # 78     ecut=    30.00 Ry     beta=0.70
     Davidson diagonalization with overlap
     ethr =  1.00E-02,  avg # of iterations =  1.0

     negative rho (up, down):  2.844E-01 0.000E+00

     total cpu time spent up to now is       12.3 secs

     total energy              =     -41.41970790 Ry
     Harris-Foulkes estimate   =     -50.14989714 Ry
     estimated scf accuracy    <      27.67704805 Ry

     iteration # 79     ecut=    30.00 Ry     beta=0.70
     Davidson diagonalization with overlap
     ethr =  1.00E-02,  avg # of iterations =  8.0

     negative rho (up, down):  4.135E-01 0.000E+00

     total cpu time spent up to now is       12.4 secs

     total energy              =      17.41991209 Ry
     Harris-Foulkes estimate   =   -1540.95677114 Ry
     estimated scf accuracy    <      43.80479250 Ry

     iteration # 80     ecut=    30.00 Ry     beta=0.70
     Davidson diagonalization with overlap
     ethr =  1.00E-02,  avg # of iterations =  7.0

     negative rho (up, down):  2.937E-01 0.000E+00

     total cpu time spent up to now is       12.5 secs

     total energy              =     103.28317654 Ry
     Harris-Foulkes estimate   =   -1931.06544614 Ry
     estimated scf accuracy    <      47.34994109 Ry

     iteration # 81     ecut=    30.00 Ry     beta=0.70
     Davidson diagonalization with overlap
     ethr =  1.00E-02,  avg # of iterations =  9.0

     negative rho (up, down):  1.556E-01 0.000E+00

     total cpu time spent up to now is       12.5 secs

     total energy              =      28.77549336 Ry
     Harris-Foulkes estimate   =    -237.91292230 Ry
     estimated scf accuracy    <      25.39160253 Ry

     iteration # 82     ecut=    30.00 Ry     beta=0.70
     Davidson diagonalization with overlap
     ethr =  1.00E-02,  avg # of iterations = 12.0

     negative rho (up, down):  1.557E-01 0.000E+00

     total cpu time spent up to now is       12.6 secs

     total energy              =   -2148.93015141 Ry
     Harris-Foulkes estimate   =    -118.72925764 Ry
     estimated scf accuracy    <      17.21246440 Ry

     iteration # 83     ecut=    30.00 Ry     beta=0.70
     Davidson diagonalization with overlap
     ethr =  1.00E-02,  avg # of iterations =  4.0

     negative rho (up, down):  2.209E-01 0.000E+00

     total cpu time spent up to now is       12.6 secs

     total energy              =   -6056.59324505 Ry
     Harris-Foulkes estimate   =   -3678.66534873 Ry
     estimated scf accuracy    <      30.70937152 Ry

     iteration # 84     ecut=    30.00 Ry     beta=0.70
     Davidson diagonalization with overlap
     ethr =  1.00E-02,  avg # of iterations =  7.0

     negative rho (up, down):  5.009E-02 0.000E+00

     total cpu time spent up to now is       12.7 secs

     total energy              =      30.66469300 Ry
     Harris-Foulkes estimate   =   -9123.31499235 Ry
     estimated scf accuracy    <      60.10322574 Ry

     iteration # 85     ecut=    30.00 Ry     beta=0.70
     Davidson diagonalization with overlap
     ethr =  1.00E-02,  avg # of iterations = 11.0

     negative rho (up, down):  2.143E-01 0.000E+00

     total cpu time spent up to now is       12.7 secs

     total energy              =     -80.46898179 Ry
     Harris-Foulkes estimate   =    -366.86236889 Ry
     estimated scf accuracy    <       9.10632131 Ry

     iteration # 86     ecut=    30.00 Ry     beta=0.70
     Davidson diagonalization with overlap
     ethr =  1.00E-02,  avg # of iterations = 11.0

     negative rho (up, down):  2.741E-01 0.000E+00

     total cpu time spent up to now is       12.8 secs

     total energy              =    -108.68069493 Ry
     Harris-Foulkes estimate   =    -383.03776744 Ry
     estimated scf accuracy    <      47.18431588 Ry

     iteration # 87     ecut=    30.00 Ry     beta=0.70
     Davidson diagonalization with overlap
     ethr =  1.00E-02,  avg # of iterations =  7.0

     negative rho (up, down):  4.004E-01 0.000E+00

     total cpu time spent up to now is       12.8 secs

     total energy              =    -593.80155389 Ry
     Harris-Foulkes estimate   =    -720.81538090 Ry
     estimated scf accuracy    <      49.35438479 Ry

     iteration # 88     ecut=    30.00 Ry     beta=0.70
     Davidson diagonalization with overlap
     ethr =  1.00E-02,  avg # of iterations =  7.0

     negative rho (up, down):  3.542E-01 0.000E+00

     total cpu time spent up to now is       12.9 secs

     total energy              =   -1320.40555948 Ry
     Harris-Foulkes estimate   =   -2213.68485868 Ry
     estimated scf accuracy    <      52.90919602 Ry

     iteration # 89     ecut=    30.00 Ry     beta=0.70
     Davidson diagonalization with overlap
     ethr =  1.00E-02,  avg # of iterations = 17.0

     negative rho (up, down):  5.167E-01 0.000E+00

     total cpu time spent up to now is       13.0 secs

     total energy              =    -101.52371637 Ry
     Harris-Foulkes estimate   =   -5544.72091699 Ry
     estimated scf accuracy    <      24.55046165 Ry

     iteration # 90     ecut=    30.00 Ry     beta=0.70
     Davidson diagonalization with overlap
     ethr =  1.00E-02,  avg # of iterations =  8.0

     negative rho (up, down):  8.143E-01 0.000E+00

     total cpu time spent up to now is       13.0 secs

     total energy              =    -426.52293083 Ry
     Harris-Foulkes estimate   =   -2876.79830968 Ry
     estimated scf accuracy    <      42.51422217 Ry

     iteration # 91     ecut=    30.00 Ry     beta=0.70
     Davidson diagonalization with overlap
     ethr =  1.00E-02,  avg # of iterations = 10.0

     negative rho (up, down):  1.058E+00 0.000E+00

     total cpu time spent up to now is       13.1 secs

     total energy              =    -118.59093824 Ry
     Harris-Foulkes estimate   =   -6575.63868693 Ry
     estimated scf accuracy    <      43.30212456 Ry

     iteration # 92     ecut=    30.00 Ry     beta=0.70
     Davidson diagonalization with overlap
     ethr =  1.00E-02,  avg # of iterations =  9.0

     negative rho (up, down):  1.037E+00 0.000E+00

     total cpu time spent up to now is       13.2 secs

     total energy              =     106.07915051 Ry
     Harris-Foulkes estimate   =   -1906.22054705 Ry
     estimated scf accuracy    <      38.03129017 Ry

     iteration # 93     ecut=    30.00 Ry     beta=0.70
     Davidson diagonalization with overlap
     ethr =  1.00E-02,  avg # of iterations =  8.0

     negative rho (up, down):  9.959E-01 0.000E+00

     total cpu time spent up to now is       13.2 secs

     total energy              =     -11.86916436 Ry
     Harris-Foulkes estimate   =   -1041.38708579 Ry
     estimated scf accuracy    <      55.57061424 Ry

     iteration # 94     ecut=    30.00 Ry     beta=0.70
     Davidson diagonalization with overlap
     ethr =  1.00E-02,  avg # of iterations =  7.0

     negative rho (up, down):  1.552E+00 0.000E+00

     total cpu time spent up to now is       13.3 secs

     total energy              =      99.45483649 Ry
     Harris-Foulkes estimate   =   -4763.15653190 Ry
     estimated scf accuracy    <      41.97045808 Ry

     iteration # 95     ecut=    30.00 Ry     beta=0.70
     Davidson diagonalization with overlap
     ethr =  1.00E-02,  avg # of iterations =  8.0

     negative rho (up, down):  1.616E+00 0.000E+00

     total cpu time spent up to now is       13.3 secs

     total energy              =      15.80520112 Ry
     Harris-Foulkes estimate   =   -1075.57904894 Ry
     estimated scf accuracy    <      26.40748230 Ry

     iteration # 96     ecut=    30.00 Ry     beta=0.70
     Davidson diagonalization with overlap
     ethr =  1.00E-02,  avg # of iterations =  8.0

     negative rho (up, down):  1.408E+00 0.000E+00

     total cpu time spent up to now is       13.4 secs

     total energy              =    -177.23935273 Ry
     Harris-Foulkes estimate   =    -832.62278693 Ry
     estimated scf accuracy    <      31.83171509 Ry

     iteration # 97     ecut=    30.00 Ry     beta=0.70
     Davidson diagonalization with overlap
     ethr =  1.00E-02,  avg # of iterations =  7.0

     negative rho (up, down):  1.545E+00 0.000E+00

     total cpu time spent up to now is       13.5 secs

     total energy              =   -2133.89258976 Ry
     Harris-Foulkes estimate   =   -2439.41147720 Ry
     estimated scf accuracy    <      29.05618077 Ry

     iteration # 98     ecut=    30.00 Ry     beta=0.70
     Davidson diagonalization with overlap
     ethr =  1.00E-02,  avg # of iterations =  8.0

     negative rho (up, down):  8.302E-01 0.000E+00

     total cpu time spent up to now is       13.5 secs

     total energy              =      74.28456797 Ry
     Harris-Foulkes estimate   =  -16161.20075591 Ry
     estimated scf accuracy    <      31.10906149 Ry

     iteration # 99     ecut=    30.00 Ry     beta=0.70
     Davidson diagonalization with overlap
     ethr =  1.00E-02,  avg # of iterations =  7.0

     negative rho (up, down):  3.289E-01 0.000E+00

     total cpu time spent up to now is       13.6 secs

     total energy              =     132.85800285 Ry
     Harris-Foulkes estimate   =   -6987.31802436 Ry
     estimated scf accuracy    <      29.11150169 Ry

     iteration #100     ecut=    30.00 Ry     beta=0.70
     Davidson diagonalization with overlap
     ethr =  1.00E-02,  avg # of iterations = 16.0

     negative rho (up, down):  4.918E-02 0.000E+00

     total cpu time spent up to now is       13.6 secs

     total energy              =     139.17252495 Ry
     Harris-Foulkes estimate   =    -893.74381485 Ry
     estimated scf accuracy    <      16.69145417 Ry

     End of self-consistent calculation

     convergence NOT achieved after 100 iterations: stopping

     Writing output data file pwscf.save
 
     init_run     :      0.10s CPU      0.11s WALL (       1 calls)
     electrons    :      9.62s CPU     11.97s WALL (       7 calls)
     update_pot   :      0.74s CPU      1.00s WALL (       6 calls)
     forces       :      0.15s CPU      0.16s WALL (       6 calls)

     Called by init_run:
     wfcinit      :      0.02s CPU      0.02s WALL (       1 calls)
     potinit      :      0.02s CPU      0.03s WALL (       1 calls)

     Called by electrons:
     c_bands      :      4.80s CPU      5.12s WALL (     256 calls)
     sum_band     :      0.74s CPU      0.82s WALL (     256 calls)
     v_of_rho     :      1.96s CPU      2.08s WALL (     263 calls)
     mix_rho      :      1.85s CPU      3.10s WALL (     256 calls)

     Called by c_bands:
     init_us_2    :      0.02s CPU      0.03s WALL (     513 calls)
     cegterg      :      4.74s CPU      4.97s WALL (     256 calls)

     Called by sum_band:

     Called by *egterg:
     h_psi        :      3.95s CPU      4.14s WALL (    1429 calls)
     g_psi        :      0.04s CPU      0.04s WALL (    1172 calls)
     cdiaghg      :      0.29s CPU      0.30s WALL (    1422 calls)

     Called by h_psi:
     h_psi:pot    :      3.93s CPU      4.12s WALL (    1429 calls)
     h_psi:calbec :      0.21s CPU      0.24s WALL (    1429 calls)
     vloc_psi     :      3.70s CPU      3.86s WALL (    1429 calls)
     add_vuspsi   :      0.01s CPU      0.01s WALL (    1429 calls)

     General routines
     calbec       :      0.26s CPU      0.31s WALL (    1458 calls)
     fft          :      1.30s CPU      1.39s WALL (    2905 calls)
     fftw         :      3.82s CPU      4.03s WALL (   16954 calls)
     davcio       :      0.25s CPU      1.04s WALL (    4510 calls)
 
     Parallel routines
     fft_scatter  :      2.10s CPU      2.31s WALL (   19859 calls)
 
     PWSCF        :    10.85s CPU        13.73s WALL

 
   This run was terminated on:   1:32:50  11Feb2018            

=------------------------------------------------------------------------------=
   JOB DONE.
=------------------------------------------------------------------------------=
