
     Program PWSCF v.6.0 (svn rev. 13079) starts on 11Feb2018 at  1:37:48 

     This program is part of the open-source Quantum ESPRESSO suite
     for quantum simulation of materials; please cite
         "P. Giannozzi et al., J. Phys.:Condens. Matter 21 395502 (2009);
          URL http://www.quantum-espresso.org", 
     in publications or presentations arising from this work. More details at
     http://www.quantum-espresso.org/quote

     Parallel version (MPI), running on    28 processors
     R & G space division:  proc/nbgrp/npool/nimage =      28
     Reading input from inputs/water-1-md/382.in

     Current dimensions of program PWSCF are:
     Max number of different atomic species (ntypx) = 10
     Max number of k-points (npk) =  40000
     Max angular momentum in pseudopotentials (lmaxx) =  3

     Subspace diagonalization in iterative solution of the eigenvalue problem:
     a serial algorithm will be used

 
     Parallelization info
     --------------------
     sticks:   dense  smooth     PW     G-vecs:    dense   smooth      PW
     Min         136     136     33                 6338     6338     787
     Max         137     137     34                 6341     6341     792
     Sum        3809    3809    949               177509   177509   22119
 


     bravais-lattice index     =            1
     lattice parameter (alat)  =      20.0000  a.u.
     unit-cell volume          =    8000.0000 (a.u.)^3
     number of atoms/cell      =            3
     number of atomic types    =            2
     number of electrons       =         8.00
     number of Kohn-Sham states=            8
     kinetic-energy cutoff     =      30.0000  Ry
     charge density cutoff     =     120.0000  Ry
     convergence threshold     =      1.0E-08
     mixing beta               =       0.7000
     number of iterations used =            8  plain     mixing
     Exchange-correlation      = BLYP ( 1  3  1  3 0 0)
     nstep                     =         5000


     celldm(1)=  20.000000  celldm(2)=   0.000000  celldm(3)=   0.000000
     celldm(4)=   0.000000  celldm(5)=   0.000000  celldm(6)=   0.000000

     crystal axes: (cart. coord. in units of alat)
               a(1) = (   1.000000   0.000000   0.000000 )  
               a(2) = (   0.000000   1.000000   0.000000 )  
               a(3) = (   0.000000   0.000000   1.000000 )  

     reciprocal axes: (cart. coord. in units 2 pi/alat)
               b(1) = (  1.000000  0.000000  0.000000 )  
               b(2) = (  0.000000  1.000000  0.000000 )  
               b(3) = (  0.000000  0.000000  1.000000 )  


     PseudoPot. # 1 for  H read from file:
     ./H.blyp-hgh.UPF
     MD5 check sum: c576e69559cde411e611be972c763230
     Pseudo is Norm-conserving, Zval =  1.0
     Generated in analytical, separable form
     Using radial grid of  929 points,  0 beta functions with: 

     PseudoPot. # 2 for  O read from file:
     ./O.blyp-hgh.UPF
     MD5 check sum: d0b7156309aa9befef28faac7bc56342
     Pseudo is Norm-conserving, Zval =  6.0
     Generated in analytical, separable form
     Using radial grid of 1095 points,  1 beta functions with: 
                l(1) =   0

     atomic species   valence    mass     pseudopotential
        H              1.00     1.01000      H( 1.00)
        O              6.00    16.00000      O( 1.00)

     No symmetry found



   Cartesian axes

     site n.     atom                  positions (alat units)
         1           H   tau(   1) = (   0.5057827   0.8581793   0.1427816  )
         2           H   tau(   2) = (   0.2199315   0.1089214   0.0536940  )
         3           O   tau(   3) = (   0.2863476   0.9108752   0.8650267  )

     number of k points=     1  Marzari-Vanderbilt smearing, width (Ry)=  0.0250
                       cart. coord. in units 2pi/alat
        k(    1) = (   0.0000000   0.0000000   0.0000000), wk =   2.0000000

     Dense  grid:   177509 G-vectors     FFT dimensions: (  72,  72,  72)

     Estimated max dynamical RAM per process >       6.09Mb

     Estimated total allocated dynamical RAM >     170.64Mb

     Initial potential from superposition of free atoms
     Check: negative starting charge=   -0.338856

     starting charge    7.99998, renormalised to    8.00000

     negative rho (up, down):  3.389E-01 0.000E+00
     Starting wfc are    6 randomized atomic wfcs +    2 random wfc

     total cpu time spent up to now is        0.2 secs

     per-process dynamical memory:    18.8 Mb

     Self-consistent Calculation

     iteration #  1     ecut=    30.00 Ry     beta=0.70
     Davidson diagonalization with overlap
     ethr =  1.00E-02,  avg # of iterations =  8.0

     negative rho (up, down):  8.380E-02 0.000E+00

     total cpu time spent up to now is        0.3 secs

     total energy              =     -28.72009477 Ry
     Harris-Foulkes estimate   =     -32.06082575 Ry
     estimated scf accuracy    <       3.86007133 Ry

     iteration #  2     ecut=    30.00 Ry     beta=0.70
     Davidson diagonalization with overlap
     ethr =  1.00E-02,  avg # of iterations =  4.0

     negative rho (up, down):  6.177E-02 0.000E+00

     total cpu time spent up to now is        0.3 secs

     total energy              =     -32.31489958 Ry
     Harris-Foulkes estimate   =     -36.85087798 Ry
     estimated scf accuracy    <      11.30012965 Ry

     iteration #  3     ecut=    30.00 Ry     beta=0.70
     Davidson diagonalization with overlap
     ethr =  1.00E-02,  avg # of iterations =  3.0

     negative rho (up, down):  6.511E-02 0.000E+00

     total cpu time spent up to now is        0.4 secs

     total energy              =     -32.93991877 Ry
     Harris-Foulkes estimate   =     -32.64069515 Ry
     estimated scf accuracy    <       4.21557008 Ry

     iteration #  4     ecut=    30.00 Ry     beta=0.70
     Davidson diagonalization with overlap
     ethr =  1.00E-02,  avg # of iterations =  1.0

     negative rho (up, down):  2.583E-02 0.000E+00

     total cpu time spent up to now is        0.4 secs

     total energy              =     -30.36038326 Ry
     Harris-Foulkes estimate   =     -32.94183362 Ry
     estimated scf accuracy    <       4.69208822 Ry

     iteration #  5     ecut=    30.00 Ry     beta=0.70
     Davidson diagonalization with overlap
     ethr =  1.00E-02,  avg # of iterations =  2.0

     negative rho (up, down):  8.093E-03 0.000E+00

     total cpu time spent up to now is        0.4 secs

     total energy              =     -32.67043406 Ry
     Harris-Foulkes estimate   =     -33.01124097 Ry
     estimated scf accuracy    <       9.84297220 Ry

     iteration #  6     ecut=    30.00 Ry     beta=0.70
     Davidson diagonalization with overlap
     ethr =  1.00E-02,  avg # of iterations =  1.0

     negative rho (up, down):  6.546E-03 0.000E+00

     total cpu time spent up to now is        0.5 secs

     total energy              =     -32.77347462 Ry
     Harris-Foulkes estimate   =     -32.76766192 Ry
     estimated scf accuracy    <       5.54422554 Ry

     iteration #  7     ecut=    30.00 Ry     beta=0.70
     Davidson diagonalization with overlap
     ethr =  1.00E-02,  avg # of iterations =  1.0

     negative rho (up, down):  5.267E-03 0.000E+00

     total cpu time spent up to now is        0.5 secs

     total energy              =     -32.20168632 Ry
     Harris-Foulkes estimate   =     -32.77577951 Ry
     estimated scf accuracy    <       5.55102076 Ry

     iteration #  8     ecut=    30.00 Ry     beta=0.70
     Davidson diagonalization with overlap
     ethr =  1.00E-02,  avg # of iterations =  1.0

     negative rho (up, down):  2.384E-02 0.000E+00

     total cpu time spent up to now is        0.5 secs

     total energy              =     -31.61665580 Ry
     Harris-Foulkes estimate   =     -32.21192459 Ry
     estimated scf accuracy    <       4.51964257 Ry

     iteration #  9     ecut=    30.00 Ry     beta=0.70
     Davidson diagonalization with overlap
     ethr =  1.00E-02,  avg # of iterations =  1.0

     negative rho (up, down):  1.753E-02 0.000E+00

     total cpu time spent up to now is        0.6 secs

     total energy              =     -31.64888352 Ry
     Harris-Foulkes estimate   =     -31.64207454 Ry
     estimated scf accuracy    <       2.89214519 Ry

     iteration # 10     ecut=    30.00 Ry     beta=0.70
     Davidson diagonalization with overlap
     ethr =  1.00E-02,  avg # of iterations =  1.0

     negative rho (up, down):  1.176E-02 0.000E+00

     total cpu time spent up to now is        0.6 secs

     total energy              =     -31.57858457 Ry
     Harris-Foulkes estimate   =     -31.64972446 Ry
     estimated scf accuracy    <       3.03698296 Ry

     iteration # 11     ecut=    30.00 Ry     beta=0.70
     Davidson diagonalization with overlap
     ethr =  1.00E-02,  avg # of iterations =  1.0

     negative rho (up, down):  5.264E-03 0.000E+00

     total cpu time spent up to now is        0.6 secs

     total energy              =     -31.41838486 Ry
     Harris-Foulkes estimate   =     -31.57748183 Ry
     estimated scf accuracy    <       2.71792836 Ry

     iteration # 12     ecut=    30.00 Ry     beta=0.70
     Davidson diagonalization with overlap
     ethr =  1.00E-02,  avg # of iterations =  1.0

     negative rho (up, down):  8.523E-03 0.000E+00

     total cpu time spent up to now is        0.7 secs

     total energy              =     -31.89342859 Ry
     Harris-Foulkes estimate   =     -31.57092059 Ry
     estimated scf accuracy    <       0.72740888 Ry

     iteration # 13     ecut=    30.00 Ry     beta=0.70
     Davidson diagonalization with overlap
     ethr =  9.09E-03,  avg # of iterations =  1.0

     negative rho (up, down):  1.488E-02 0.000E+00

     total cpu time spent up to now is        0.7 secs

     total energy              =     -31.80688823 Ry
     Harris-Foulkes estimate   =     -32.18532660 Ry
     estimated scf accuracy    <       3.41310572 Ry

     iteration # 14     ecut=    30.00 Ry     beta=0.70
     Davidson diagonalization with overlap
     ethr =  9.09E-03,  avg # of iterations =  1.0

     negative rho (up, down):  2.178E-03 0.000E+00

     total cpu time spent up to now is        0.7 secs

     total energy              =     -31.88668129 Ry
     Harris-Foulkes estimate   =     -31.81490103 Ry
     estimated scf accuracy    <       2.66521370 Ry

     iteration # 15     ecut=    30.00 Ry     beta=0.70
     Davidson diagonalization with overlap
     ethr =  9.09E-03,  avg # of iterations =  1.0

     negative rho (up, down):  5.170E-04 0.000E+00

     total cpu time spent up to now is        0.8 secs

     total energy              =     -31.87209378 Ry
     Harris-Foulkes estimate   =     -31.88728846 Ry
     estimated scf accuracy    <       2.82334406 Ry

     iteration # 16     ecut=    30.00 Ry     beta=0.70
     Davidson diagonalization with overlap
     ethr =  9.09E-03,  avg # of iterations =  1.0

     negative rho (up, down):  6.249E-04 0.000E+00

     total cpu time spent up to now is        0.8 secs

     total energy              =     -31.97995790 Ry
     Harris-Foulkes estimate   =     -31.87214154 Ry
     estimated scf accuracy    <       2.79337580 Ry

     iteration # 17     ecut=    30.00 Ry     beta=0.70
     Davidson diagonalization with overlap
     ethr =  9.09E-03,  avg # of iterations =  1.0

     negative rho (up, down):  2.696E-04 0.000E+00

     total cpu time spent up to now is        0.8 secs

     total energy              =     -31.51012125 Ry
     Harris-Foulkes estimate   =     -31.98110336 Ry
     estimated scf accuracy    <       3.04316574 Ry

     iteration # 18     ecut=    30.00 Ry     beta=0.70
     Davidson diagonalization with overlap
     ethr =  9.09E-03,  avg # of iterations =  1.0

     negative rho (up, down):  3.257E-04 0.000E+00

     total cpu time spent up to now is        0.9 secs

     total energy              =     -31.62178814 Ry
     Harris-Foulkes estimate   =     -31.55795620 Ry
     estimated scf accuracy    <       0.70237631 Ry

     iteration # 19     ecut=    30.00 Ry     beta=0.70
     Davidson diagonalization with overlap
     ethr =  8.78E-03,  avg # of iterations =  1.0

     total cpu time spent up to now is        0.9 secs

     total energy              =     -31.64655077 Ry
     Harris-Foulkes estimate   =     -31.66384910 Ry
     estimated scf accuracy    <       2.09388432 Ry

     iteration # 20     ecut=    30.00 Ry     beta=0.70
     Davidson diagonalization with overlap
     ethr =  8.78E-03,  avg # of iterations =  1.0

     negative rho (up, down):  4.638E-01 0.000E+00

     total cpu time spent up to now is        0.9 secs

     total energy              =     -30.23669060 Ry
     Harris-Foulkes estimate   =     -31.64675300 Ry
     estimated scf accuracy    <       1.99711618 Ry

     iteration # 21     ecut=    30.00 Ry     beta=0.70
     Davidson diagonalization with overlap
     ethr =  8.78E-03,  avg # of iterations =  5.0

     negative rho (up, down):  5.558E-03 0.000E+00

     total cpu time spent up to now is        1.0 secs

     total energy              =     -34.18118411 Ry
     Harris-Foulkes estimate   =     -38.38652626 Ry
     estimated scf accuracy    <      21.36379370 Ry

     iteration # 22     ecut=    30.00 Ry     beta=0.70
     Davidson diagonalization with overlap
     ethr =  8.78E-03,  avg # of iterations =  2.0

     total cpu time spent up to now is        1.0 secs

     total energy              =     -32.61538104 Ry
     Harris-Foulkes estimate   =     -34.31731355 Ry
     estimated scf accuracy    <      15.67461547 Ry

     iteration # 23     ecut=    30.00 Ry     beta=0.70
     Davidson diagonalization with overlap
     ethr =  8.78E-03,  avg # of iterations =  1.0

     negative rho (up, down):  9.003E-04 0.000E+00

     total cpu time spent up to now is        1.0 secs

     total energy              =     -32.55223930 Ry
     Harris-Foulkes estimate   =     -32.62861105 Ry
     estimated scf accuracy    <      13.14111519 Ry

     iteration # 24     ecut=    30.00 Ry     beta=0.70
     Davidson diagonalization with overlap
     ethr =  8.78E-03,  avg # of iterations =  1.0

     negative rho (up, down):  4.260E-08 0.000E+00

     total cpu time spent up to now is        1.1 secs

     total energy              =     -32.17386945 Ry
     Harris-Foulkes estimate   =     -32.58170306 Ry
     estimated scf accuracy    <      12.90290913 Ry

     iteration # 25     ecut=    30.00 Ry     beta=0.70
     Davidson diagonalization with overlap
     ethr =  8.78E-03,  avg # of iterations =  5.0

     negative rho (up, down):  1.368E-03 0.000E+00

     total cpu time spent up to now is        1.1 secs

     total energy              =     -32.33222559 Ry
     Harris-Foulkes estimate   =     -32.56925827 Ry
     estimated scf accuracy    <       5.46031962 Ry

     iteration # 26     ecut=    30.00 Ry     beta=0.70
     Davidson diagonalization with overlap
     ethr =  8.78E-03,  avg # of iterations =  1.0

     negative rho (up, down):  1.802E-02 0.000E+00

     total cpu time spent up to now is        1.1 secs

     total energy              =     -31.43749965 Ry
     Harris-Foulkes estimate   =     -32.33532082 Ry
     estimated scf accuracy    <       4.99199673 Ry

     iteration # 27     ecut=    30.00 Ry     beta=0.70
     Davidson diagonalization with overlap
     ethr =  8.78E-03,  avg # of iterations =  1.0

     negative rho (up, down):  4.972E-02 0.000E+00

     total cpu time spent up to now is        1.2 secs

     total energy              =     -31.74263424 Ry
     Harris-Foulkes estimate   =     -31.46268279 Ry
     estimated scf accuracy    <       3.49787092 Ry

     iteration # 28     ecut=    30.00 Ry     beta=0.70
     Davidson diagonalization with overlap
     ethr =  8.78E-03,  avg # of iterations =  5.0

     negative rho (up, down):  3.277E-02 0.000E+00

     total cpu time spent up to now is        1.2 secs

     total energy              =     -31.69849421 Ry
     Harris-Foulkes estimate   =     -31.80586370 Ry
     estimated scf accuracy    <       3.66636327 Ry

     iteration # 29     ecut=    30.00 Ry     beta=0.70
     Davidson diagonalization with overlap
     ethr =  8.78E-03,  avg # of iterations =  1.0

     negative rho (up, down):  9.430E-01 0.000E+00

     total cpu time spent up to now is        1.3 secs

     total energy              =     -30.28879729 Ry
     Harris-Foulkes estimate   =     -31.70662211 Ry
     estimated scf accuracy    <       3.46357545 Ry

     iteration # 30     ecut=    30.00 Ry     beta=0.70
     Davidson diagonalization with overlap
     ethr =  8.78E-03,  avg # of iterations =  6.0

     negative rho (up, down):  3.117E-01 0.000E+00

     total cpu time spent up to now is        1.3 secs

     total energy              =     -32.24087998 Ry
     Harris-Foulkes estimate   =     -33.20844796 Ry
     estimated scf accuracy    <       5.09137038 Ry

     iteration # 31     ecut=    30.00 Ry     beta=0.70
     Davidson diagonalization with overlap
     ethr =  8.78E-03,  avg # of iterations =  2.0

     negative rho (up, down):  1.542E-05 0.000E+00

     total cpu time spent up to now is        1.3 secs

     total energy              =     -31.45872780 Ry
     Harris-Foulkes estimate   =     -32.24550425 Ry
     estimated scf accuracy    <       3.53228014 Ry

     iteration # 32     ecut=    30.00 Ry     beta=0.70
     Davidson diagonalization with overlap
     ethr =  8.78E-03,  avg # of iterations =  1.0

     total cpu time spent up to now is        1.4 secs

     total energy              =     -31.51629666 Ry
     Harris-Foulkes estimate   =     -31.53565264 Ry
     estimated scf accuracy    <       0.17683016 Ry

     iteration # 33     ecut=    30.00 Ry     beta=0.70
     Davidson diagonalization with overlap
     ethr =  2.21E-03,  avg # of iterations =  1.0

     negative rho (up, down):  3.954E-03 0.000E+00

     total cpu time spent up to now is        1.4 secs

     total energy              =     -31.45939543 Ry
     Harris-Foulkes estimate   =     -31.59193715 Ry
     estimated scf accuracy    <       2.64541327 Ry

     iteration # 34     ecut=    30.00 Ry     beta=0.70
     Davidson diagonalization with overlap
     ethr =  2.21E-03,  avg # of iterations =  1.0

     negative rho (up, down):  6.906E-06 0.000E+00

     total cpu time spent up to now is        1.4 secs

     total energy              =     -31.41555839 Ry
     Harris-Foulkes estimate   =     -31.54822019 Ry
     estimated scf accuracy    <       0.57253329 Ry

     iteration # 35     ecut=    30.00 Ry     beta=0.70
     Davidson diagonalization with overlap
     ethr =  2.21E-03,  avg # of iterations =  1.0

     negative rho (up, down):  9.271E-04 0.000E+00

     total cpu time spent up to now is        1.5 secs

     total energy              =     -31.57582636 Ry
     Harris-Foulkes estimate   =     -31.81640333 Ry
     estimated scf accuracy    <       3.49914210 Ry

     iteration # 36     ecut=    30.00 Ry     beta=0.70
     Davidson diagonalization with overlap
     ethr =  2.21E-03,  avg # of iterations =  1.0

     negative rho (up, down):  3.324E-03 0.000E+00

     total cpu time spent up to now is        1.5 secs

     total energy              =     -31.61198827 Ry
     Harris-Foulkes estimate   =     -31.59107092 Ry
     estimated scf accuracy    <       1.96581332 Ry

     iteration # 37     ecut=    30.00 Ry     beta=0.70
     Davidson diagonalization with overlap
     ethr =  2.21E-03,  avg # of iterations =  1.0

     negative rho (up, down):  6.150E-03 0.000E+00

     total cpu time spent up to now is        1.5 secs

     total energy              =     -31.46565687 Ry
     Harris-Foulkes estimate   =     -31.61770459 Ry
     estimated scf accuracy    <       2.63777886 Ry

     iteration # 38     ecut=    30.00 Ry     beta=0.70
     Davidson diagonalization with overlap
     ethr =  2.21E-03,  avg # of iterations =  1.0

     negative rho (up, down):  7.394E-04 0.000E+00

     total cpu time spent up to now is        1.6 secs

     total energy              =     -31.45148298 Ry
     Harris-Foulkes estimate   =     -31.54197825 Ry
     estimated scf accuracy    <       0.52728208 Ry

     iteration # 39     ecut=    30.00 Ry     beta=0.70
     Davidson diagonalization with overlap
     ethr =  2.21E-03,  avg # of iterations =  1.0

     negative rho (up, down):  8.920E-07 0.000E+00

     total cpu time spent up to now is        1.6 secs

     total energy              =     -31.72895280 Ry
     Harris-Foulkes estimate   =     -31.68333823 Ry
     estimated scf accuracy    <       2.83067357 Ry

     iteration # 40     ecut=    30.00 Ry     beta=0.70
     Davidson diagonalization with overlap
     ethr =  2.21E-03,  avg # of iterations =  1.0

     negative rho (up, down):  6.249E-08 0.000E+00

     total cpu time spent up to now is        1.6 secs

     total energy              =     -31.84669619 Ry
     Harris-Foulkes estimate   =     -31.72964359 Ry
     estimated scf accuracy    <       2.98250965 Ry

     iteration # 41     ecut=    30.00 Ry     beta=0.70
     Davidson diagonalization with overlap
     ethr =  2.21E-03,  avg # of iterations =  1.0

     negative rho (up, down):  8.577E-04 0.000E+00

     total cpu time spent up to now is        1.7 secs

     total energy              =     -31.83111461 Ry
     Harris-Foulkes estimate   =     -31.85078416 Ry
     estimated scf accuracy    <       3.52499654 Ry

     iteration # 42     ecut=    30.00 Ry     beta=0.70
     Davidson diagonalization with overlap
     ethr =  2.21E-03,  avg # of iterations =  1.0

     negative rho (up, down):  1.542E-03 0.000E+00

     total cpu time spent up to now is        1.7 secs

     total energy              =     -31.76981834 Ry
     Harris-Foulkes estimate   =     -31.83169386 Ry
     estimated scf accuracy    <       3.39730524 Ry

     iteration # 43     ecut=    30.00 Ry     beta=0.70
     Davidson diagonalization with overlap
     ethr =  2.21E-03,  avg # of iterations =  1.0

     negative rho (up, down):  1.245E-03 0.000E+00

     total cpu time spent up to now is        1.7 secs

     total energy              =     -31.68898673 Ry
     Harris-Foulkes estimate   =     -31.77200139 Ry
     estimated scf accuracy    <       2.95992388 Ry

     iteration # 44     ecut=    30.00 Ry     beta=0.70
     Davidson diagonalization with overlap
     ethr =  2.21E-03,  avg # of iterations =  1.0

     negative rho (up, down):  1.041E-06 0.000E+00

     total cpu time spent up to now is        1.8 secs

     total energy              =     -31.65474596 Ry
     Harris-Foulkes estimate   =     -31.69019044 Ry
     estimated scf accuracy    <       2.62634795 Ry

     iteration # 45     ecut=    30.00 Ry     beta=0.70
     Davidson diagonalization with overlap
     ethr =  2.21E-03,  avg # of iterations =  1.0

     negative rho (up, down):  3.920E-05 0.000E+00

     total cpu time spent up to now is        1.8 secs

     total energy              =     -31.69161972 Ry
     Harris-Foulkes estimate   =     -31.65510848 Ry
     estimated scf accuracy    <       2.43169442 Ry

     iteration # 46     ecut=    30.00 Ry     beta=0.70
     Davidson diagonalization with overlap
     ethr =  2.21E-03,  avg # of iterations =  1.0

     total cpu time spent up to now is        1.8 secs

     total energy              =     -31.64957606 Ry
     Harris-Foulkes estimate   =     -31.69184527 Ry
     estimated scf accuracy    <       2.57995778 Ry

     iteration # 47     ecut=    30.00 Ry     beta=0.70
     Davidson diagonalization with overlap
     ethr =  2.21E-03,  avg # of iterations =  1.0

     negative rho (up, down):  9.328E-02 0.000E+00

     total cpu time spent up to now is        1.9 secs

     total energy              =     -30.86464993 Ry
     Harris-Foulkes estimate   =     -31.64982174 Ry
     estimated scf accuracy    <       2.45253721 Ry

     iteration # 48     ecut=    30.00 Ry     beta=0.70
     Davidson diagonalization with overlap
     ethr =  2.21E-03,  avg # of iterations =  4.0

     negative rho (up, down):  4.152E-03 0.000E+00

     total cpu time spent up to now is        1.9 secs

     total energy              =     -32.04914253 Ry
     Harris-Foulkes estimate   =     -32.68609762 Ry
     estimated scf accuracy    <       2.63685443 Ry

     iteration # 49     ecut=    30.00 Ry     beta=0.70
     Davidson diagonalization with overlap
     ethr =  2.21E-03,  avg # of iterations =  2.0

     negative rho (up, down):  2.174E-04 0.000E+00

     total cpu time spent up to now is        2.0 secs

     total energy              =     -31.86123767 Ry
     Harris-Foulkes estimate   =     -32.11378910 Ry
     estimated scf accuracy    <       3.02938222 Ry

     iteration # 50     ecut=    30.00 Ry     beta=0.70
     Davidson diagonalization with overlap
     ethr =  2.21E-03,  avg # of iterations =  1.0

     negative rho (up, down):  1.277E-07 0.000E+00

     total cpu time spent up to now is        2.0 secs

     total energy              =     -31.63471188 Ry
     Harris-Foulkes estimate   =     -31.87969030 Ry
     estimated scf accuracy    <       1.49899810 Ry

     iteration # 51     ecut=    30.00 Ry     beta=0.70
     Davidson diagonalization with overlap
     ethr =  2.21E-03,  avg # of iterations =  1.0

     negative rho (up, down):  2.101E-06 0.000E+00

     total cpu time spent up to now is        2.0 secs

     total energy              =     -31.57421022 Ry
     Harris-Foulkes estimate   =     -31.63888764 Ry
     estimated scf accuracy    <       1.31129707 Ry

     iteration # 52     ecut=    30.00 Ry     beta=0.70
     Davidson diagonalization with overlap
     ethr =  2.21E-03,  avg # of iterations =  1.0

     negative rho (up, down):  1.350E-06 0.000E+00

     total cpu time spent up to now is        2.1 secs

     total energy              =     -31.56771255 Ry
     Harris-Foulkes estimate   =     -31.57531753 Ry
     estimated scf accuracy    <       1.02391870 Ry

     iteration # 53     ecut=    30.00 Ry     beta=0.70
     Davidson diagonalization with overlap
     ethr =  2.21E-03,  avg # of iterations =  1.0

     negative rho (up, down):  3.960E-08 0.000E+00

     total cpu time spent up to now is        2.1 secs

     total energy              =     -31.55264260 Ry
     Harris-Foulkes estimate   =     -31.56796511 Ry
     estimated scf accuracy    <       0.91432961 Ry

     iteration # 54     ecut=    30.00 Ry     beta=0.70
     Davidson diagonalization with overlap
     ethr =  2.21E-03,  avg # of iterations =  1.0

     total cpu time spent up to now is        2.1 secs

     total energy              =     -31.55125874 Ry
     Harris-Foulkes estimate   =     -31.55286873 Ry
     estimated scf accuracy    <       0.82068994 Ry

     iteration # 55     ecut=    30.00 Ry     beta=0.70
     Davidson diagonalization with overlap
     ethr =  2.21E-03,  avg # of iterations =  1.0

     total cpu time spent up to now is        2.2 secs

     total energy              =     -31.52397006 Ry
     Harris-Foulkes estimate   =     -31.55127796 Ry
     estimated scf accuracy    <       0.82070497 Ry

     iteration # 56     ecut=    30.00 Ry     beta=0.70
     Davidson diagonalization with overlap
     ethr =  2.21E-03,  avg # of iterations =  1.0

     negative rho (up, down):  1.908E-07 0.000E+00

     total cpu time spent up to now is        2.2 secs

     total energy              =     -31.47542439 Ry
     Harris-Foulkes estimate   =     -31.52997500 Ry
     estimated scf accuracy    <       0.13747652 Ry

     iteration # 57     ecut=    30.00 Ry     beta=0.70
     Davidson diagonalization with overlap
     ethr =  1.72E-03,  avg # of iterations =  2.0

     total cpu time spent up to now is        2.2 secs

     total energy              =     -31.64371321 Ry
     Harris-Foulkes estimate   =     -31.80234139 Ry
     estimated scf accuracy    <       2.13481377 Ry

     iteration # 58     ecut=    30.00 Ry     beta=0.70
     Davidson diagonalization with overlap
     ethr =  1.72E-03,  avg # of iterations =  1.0

     total cpu time spent up to now is        2.3 secs

     total energy              =     -31.62722134 Ry
     Harris-Foulkes estimate   =     -31.64883786 Ry
     estimated scf accuracy    <       1.36151382 Ry

     iteration # 59     ecut=    30.00 Ry     beta=0.70
     Davidson diagonalization with overlap
     ethr =  1.72E-03,  avg # of iterations =  1.0

     total cpu time spent up to now is        2.3 secs

     total energy              =     -31.60412229 Ry
     Harris-Foulkes estimate   =     -31.62741340 Ry
     estimated scf accuracy    <       1.27079559 Ry

     iteration # 60     ecut=    30.00 Ry     beta=0.70
     Davidson diagonalization with overlap
     ethr =  1.72E-03,  avg # of iterations =  1.0

     total cpu time spent up to now is        2.4 secs

     total energy              =     -31.56645238 Ry
     Harris-Foulkes estimate   =     -31.60425754 Ry
     estimated scf accuracy    <       1.21793014 Ry

     iteration # 61     ecut=    30.00 Ry     beta=0.70
     Davidson diagonalization with overlap
     ethr =  1.72E-03,  avg # of iterations =  1.0

     negative rho (up, down):  5.477E-07 0.000E+00

     total cpu time spent up to now is        2.4 secs

     total energy              =     -31.48833174 Ry
     Harris-Foulkes estimate   =     -31.56573923 Ry
     estimated scf accuracy    <       1.31511011 Ry

     iteration # 62     ecut=    30.00 Ry     beta=0.70
     Davidson diagonalization with overlap
     ethr =  1.72E-03,  avg # of iterations =  1.0

     negative rho (up, down):  3.284E-07 0.000E+00

     total cpu time spent up to now is        2.4 secs

     total energy              =     -31.53031054 Ry
     Harris-Foulkes estimate   =     -31.53371013 Ry
     estimated scf accuracy    <       0.28153497 Ry

     iteration # 63     ecut=    30.00 Ry     beta=0.70
     Davidson diagonalization with overlap
     ethr =  1.72E-03,  avg # of iterations =  1.0

     negative rho (up, down):  1.778E-07 0.000E+00

     total cpu time spent up to now is        2.5 secs

     total energy              =     -31.52768668 Ry
     Harris-Foulkes estimate   =     -31.53076216 Ry
     estimated scf accuracy    <       0.14576476 Ry

     iteration # 64     ecut=    30.00 Ry     beta=0.70
     Davidson diagonalization with overlap
     ethr =  1.72E-03,  avg # of iterations =  1.0

     total cpu time spent up to now is        2.5 secs

     total energy              =     -31.51938081 Ry
     Harris-Foulkes estimate   =     -31.52855955 Ry
     estimated scf accuracy    <       0.02320704 Ry

     iteration # 65     ecut=    30.00 Ry     beta=0.70
     Davidson diagonalization with overlap
     ethr =  2.90E-04,  avg # of iterations =  2.0

     total cpu time spent up to now is        2.5 secs

     total energy              =     -31.57577406 Ry
     Harris-Foulkes estimate   =     -31.58662554 Ry
     estimated scf accuracy    <       1.21989134 Ry

     iteration # 66     ecut=    30.00 Ry     beta=0.70
     Davidson diagonalization with overlap
     ethr =  2.90E-04,  avg # of iterations =  1.0

     total cpu time spent up to now is        2.6 secs

     total energy              =     -31.55079339 Ry
     Harris-Foulkes estimate   =     -31.57565986 Ry
     estimated scf accuracy    <       1.26535325 Ry

     iteration # 67     ecut=    30.00 Ry     beta=0.70
     Davidson diagonalization with overlap
     ethr =  2.90E-04,  avg # of iterations =  1.0

     total cpu time spent up to now is        2.6 secs

     total energy              =     -31.55098437 Ry
     Harris-Foulkes estimate   =     -31.55035587 Ry
     estimated scf accuracy    <       1.17616130 Ry

     iteration # 68     ecut=    30.00 Ry     beta=0.70
     Davidson diagonalization with overlap
     ethr =  2.90E-04,  avg # of iterations =  1.0

     total cpu time spent up to now is        2.6 secs

     total energy              =     -31.55312257 Ry
     Harris-Foulkes estimate   =     -31.55098836 Ry
     estimated scf accuracy    <       1.19162942 Ry

     iteration # 69     ecut=    30.00 Ry     beta=0.70
     Davidson diagonalization with overlap
     ethr =  2.90E-04,  avg # of iterations =  1.0

     total cpu time spent up to now is        2.7 secs

     total energy              =     -31.54568408 Ry
     Harris-Foulkes estimate   =     -31.55314276 Ry
     estimated scf accuracy    <       1.23829142 Ry

     iteration # 70     ecut=    30.00 Ry     beta=0.70
     Davidson diagonalization with overlap
     ethr =  2.90E-04,  avg # of iterations =  1.0

     total cpu time spent up to now is        2.7 secs

     total energy              =     -31.55363978 Ry
     Harris-Foulkes estimate   =     -31.54595671 Ry
     estimated scf accuracy    <       1.03449464 Ry

     iteration # 71     ecut=    30.00 Ry     beta=0.70
     Davidson diagonalization with overlap
     ethr =  2.90E-04,  avg # of iterations =  1.0

     negative rho (up, down):  1.004E-08 0.000E+00

     total cpu time spent up to now is        2.7 secs

     total energy              =     -31.52699720 Ry
     Harris-Foulkes estimate   =     -31.55405732 Ry
     estimated scf accuracy    <       1.25471010 Ry

     iteration # 72     ecut=    30.00 Ry     beta=0.70
     Davidson diagonalization with overlap
     ethr =  2.90E-04,  avg # of iterations =  1.0

     negative rho (up, down):  6.815E-08 0.000E+00

     total cpu time spent up to now is        2.8 secs

     total energy              =     -31.55854755 Ry
     Harris-Foulkes estimate   =     -31.53239069 Ry
     estimated scf accuracy    <       0.30327277 Ry

     iteration # 73     ecut=    30.00 Ry     beta=0.70
     Davidson diagonalization with overlap
     ethr =  2.90E-04,  avg # of iterations =  1.0

     total cpu time spent up to now is        2.8 secs

     total energy              =     -31.57768445 Ry
     Harris-Foulkes estimate   =     -31.57849555 Ry
     estimated scf accuracy    <       1.21934571 Ry

     iteration # 74     ecut=    30.00 Ry     beta=0.70
     Davidson diagonalization with overlap
     ethr =  2.90E-04,  avg # of iterations =  1.0

     negative rho (up, down):  1.873E-06 0.000E+00

     total cpu time spent up to now is        2.8 secs

     total energy              =     -31.55794340 Ry
     Harris-Foulkes estimate   =     -31.57772052 Ry
     estimated scf accuracy    <       1.24763559 Ry

     iteration # 75     ecut=    30.00 Ry     beta=0.70
     Davidson diagonalization with overlap
     ethr =  2.90E-04,  avg # of iterations =  1.0

     total cpu time spent up to now is        2.9 secs

     total energy              =     -31.56465748 Ry
     Harris-Foulkes estimate   =     -31.55742055 Ry
     estimated scf accuracy    <       1.30138600 Ry

     iteration # 76     ecut=    30.00 Ry     beta=0.70
     Davidson diagonalization with overlap
     ethr =  2.90E-04,  avg # of iterations =  1.0

     total cpu time spent up to now is        2.9 secs

     total energy              =     -31.56417573 Ry
     Harris-Foulkes estimate   =     -31.56469802 Ry
     estimated scf accuracy    <       1.31886032 Ry

     iteration # 77     ecut=    30.00 Ry     beta=0.70
     Davidson diagonalization with overlap
     ethr =  2.90E-04,  avg # of iterations =  1.0

     total cpu time spent up to now is        2.9 secs

     total energy              =     -31.58934277 Ry
     Harris-Foulkes estimate   =     -31.56418459 Ry
     estimated scf accuracy    <       1.31599765 Ry

     iteration # 78     ecut=    30.00 Ry     beta=0.70
     Davidson diagonalization with overlap
     ethr =  2.90E-04,  avg # of iterations =  1.0

     total cpu time spent up to now is        3.0 secs

     total energy              =     -31.62458448 Ry
     Harris-Foulkes estimate   =     -31.58856493 Ry
     estimated scf accuracy    <       1.20146675 Ry

     iteration # 79     ecut=    30.00 Ry     beta=0.70
     Davidson diagonalization with overlap
     ethr =  2.90E-04,  avg # of iterations =  1.0

     total cpu time spent up to now is        3.0 secs

     total energy              =     -31.60466568 Ry
     Harris-Foulkes estimate   =     -31.62445893 Ry
     estimated scf accuracy    <       1.25043168 Ry

     iteration # 80     ecut=    30.00 Ry     beta=0.70
     Davidson diagonalization with overlap
     ethr =  2.90E-04,  avg # of iterations =  1.0

     negative rho (up, down):  5.179E-06 0.000E+00

     total cpu time spent up to now is        3.0 secs

     total energy              =     -31.31071456 Ry
     Harris-Foulkes estimate   =     -31.60473720 Ry
     estimated scf accuracy    <       1.20577571 Ry

     iteration # 81     ecut=    30.00 Ry     beta=0.70
     Davidson diagonalization with overlap
     ethr =  2.90E-04,  avg # of iterations =  3.0

     negative rho (up, down):  4.130E-03 0.000E+00

     total cpu time spent up to now is        3.1 secs

     total energy              =     -31.35515440 Ry
     Harris-Foulkes estimate   =     -31.71194528 Ry
     estimated scf accuracy    <       1.12594373 Ry

     iteration # 82     ecut=    30.00 Ry     beta=0.70
     Davidson diagonalization with overlap
     ethr =  2.90E-04,  avg # of iterations =  4.0

     negative rho (up, down):  3.608E-07 0.000E+00

     total cpu time spent up to now is        3.1 secs

     total energy              =     -31.57510994 Ry
     Harris-Foulkes estimate   =     -31.72155120 Ry
     estimated scf accuracy    <       1.47925373 Ry

     iteration # 83     ecut=    30.00 Ry     beta=0.70
     Davidson diagonalization with overlap
     ethr =  2.90E-04,  avg # of iterations =  2.0

     negative rho (up, down):  1.204E-07 0.000E+00

     total cpu time spent up to now is        3.1 secs

     total energy              =     -31.32460339 Ry
     Harris-Foulkes estimate   =     -31.57784060 Ry
     estimated scf accuracy    <       1.23500871 Ry

     iteration # 84     ecut=    30.00 Ry     beta=0.70
     Davidson diagonalization with overlap
     ethr =  2.90E-04,  avg # of iterations =  4.0

     total cpu time spent up to now is        3.2 secs

     total energy              =     -31.55471853 Ry
     Harris-Foulkes estimate   =     -31.68856743 Ry
     estimated scf accuracy    <       0.84976310 Ry

     iteration # 85     ecut=    30.00 Ry     beta=0.70
     Davidson diagonalization with overlap
     ethr =  2.90E-04,  avg # of iterations =  1.0

     total cpu time spent up to now is        3.2 secs

     total energy              =     -31.55964058 Ry
     Harris-Foulkes estimate   =     -31.55841697 Ry
     estimated scf accuracy    <       0.73244981 Ry

     iteration # 86     ecut=    30.00 Ry     beta=0.70
     Davidson diagonalization with overlap
     ethr =  2.90E-04,  avg # of iterations =  1.0

     total cpu time spent up to now is        3.2 secs

     total energy              =     -31.57284209 Ry
     Harris-Foulkes estimate   =     -31.55967669 Ry
     estimated scf accuracy    <       0.73717172 Ry

     iteration # 87     ecut=    30.00 Ry     beta=0.70
     Davidson diagonalization with overlap
     ethr =  2.90E-04,  avg # of iterations =  1.0

     total cpu time spent up to now is        3.3 secs

     total energy              =     -31.54249615 Ry
     Harris-Foulkes estimate   =     -31.57304206 Ry
     estimated scf accuracy    <       0.78672113 Ry

     iteration # 88     ecut=    30.00 Ry     beta=0.70
     Davidson diagonalization with overlap
     ethr =  2.90E-04,  avg # of iterations =  1.0

     total cpu time spent up to now is        3.3 secs

     total energy              =     -31.52458034 Ry
     Harris-Foulkes estimate   =     -31.54349860 Ry
     estimated scf accuracy    <       0.58609686 Ry

     iteration # 89     ecut=    30.00 Ry     beta=0.70
     Davidson diagonalization with overlap
     ethr =  2.90E-04,  avg # of iterations =  1.0

     total cpu time spent up to now is        3.3 secs

     total energy              =     -31.52934165 Ry
     Harris-Foulkes estimate   =     -31.52924766 Ry
     estimated scf accuracy    <       0.08439719 Ry

     iteration # 90     ecut=    30.00 Ry     beta=0.70
     Davidson diagonalization with overlap
     ethr =  2.90E-04,  avg # of iterations =  1.0

     total cpu time spent up to now is        3.4 secs

     total energy              =     -31.52883000 Ry
     Harris-Foulkes estimate   =     -31.52934509 Ry
     estimated scf accuracy    <       0.08985498 Ry

     iteration # 91     ecut=    30.00 Ry     beta=0.70
     Davidson diagonalization with overlap
     ethr =  2.90E-04,  avg # of iterations =  1.0

     total cpu time spent up to now is        3.4 secs

     total energy              =     -31.52854628 Ry
     Harris-Foulkes estimate   =     -31.52887209 Ry
     estimated scf accuracy    <       0.06205558 Ry

     iteration # 92     ecut=    30.00 Ry     beta=0.70
     Davidson diagonalization with overlap
     ethr =  2.90E-04,  avg # of iterations =  1.0

     total cpu time spent up to now is        3.5 secs

     total energy              =     -31.52713251 Ry
     Harris-Foulkes estimate   =     -31.52857156 Ry
     estimated scf accuracy    <       0.04365133 Ry

     iteration # 93     ecut=    30.00 Ry     beta=0.70
     Davidson diagonalization with overlap
     ethr =  2.90E-04,  avg # of iterations =  1.0

     total cpu time spent up to now is        3.5 secs

     total energy              =     -31.52787391 Ry
     Harris-Foulkes estimate   =     -31.52790133 Ry
     estimated scf accuracy    <       0.00044703 Ry

     iteration # 94     ecut=    30.00 Ry     beta=0.70
     Davidson diagonalization with overlap
     ethr =  5.59E-06,  avg # of iterations =  3.0

     total cpu time spent up to now is        3.5 secs

     total energy              =     -31.52789120 Ry
     Harris-Foulkes estimate   =     -31.52790231 Ry
     estimated scf accuracy    <       0.00062112 Ry

     iteration # 95     ecut=    30.00 Ry     beta=0.70
     Davidson diagonalization with overlap
     ethr =  5.59E-06,  avg # of iterations =  1.0

     total cpu time spent up to now is        3.6 secs

     total energy              =     -31.52789011 Ry
     Harris-Foulkes estimate   =     -31.52789508 Ry
     estimated scf accuracy    <       0.00007037 Ry

     iteration # 96     ecut=    30.00 Ry     beta=0.70
     Davidson diagonalization with overlap
     ethr =  8.80E-07,  avg # of iterations =  1.0

     total cpu time spent up to now is        3.6 secs

     total energy              =     -31.52788965 Ry
     Harris-Foulkes estimate   =     -31.52789120 Ry
     estimated scf accuracy    <       0.00000142 Ry

     iteration # 97     ecut=    30.00 Ry     beta=0.70
     Davidson diagonalization with overlap
     ethr =  1.77E-08,  avg # of iterations =  1.0

     total cpu time spent up to now is        3.6 secs

     total energy              =     -31.52788855 Ry
     Harris-Foulkes estimate   =     -31.52789119 Ry
     estimated scf accuracy    <       0.00008481 Ry

     iteration # 98     ecut=    30.00 Ry     beta=0.70
     Davidson diagonalization with overlap
     ethr =  1.77E-08,  avg # of iterations =  1.0

     total cpu time spent up to now is        3.7 secs

     total energy              =     -31.52789002 Ry
     Harris-Foulkes estimate   =     -31.52788999 Ry
     estimated scf accuracy    <       0.00000070 Ry

     iteration # 99     ecut=    30.00 Ry     beta=0.70
     Davidson diagonalization with overlap
     ethr =  8.69E-09,  avg # of iterations =  1.0

     total cpu time spent up to now is        3.7 secs

     total energy              =     -31.52789004 Ry
     Harris-Foulkes estimate   =     -31.52789002 Ry
     estimated scf accuracy    <       0.00000031 Ry

     iteration #100     ecut=    30.00 Ry     beta=0.70
     Davidson diagonalization with overlap
     ethr =  3.85E-09,  avg # of iterations =  1.0

     total cpu time spent up to now is        3.7 secs

     End of self-consistent calculation

          k = 0.0000 0.0000 0.0000 ( 22119 PWs)   bands (ev):

   -23.6460  -7.3741  -7.0981  -7.0361  -6.8581  -6.6183  -0.1395   0.6856

     the Fermi energy is    -6.8960 ev

!    total energy              =     -31.52789009 Ry
     Harris-Foulkes estimate   =     -31.52789004 Ry
     estimated scf accuracy    <          7.7E-10 Ry

     convergence has been achieved in 100 iterations

     Forces acting on atoms (Ry/au):

     atom    1 type  1   force =    -0.00368883    0.00131948   -0.00515554
     atom    2 type  1   force =     0.01034095   -0.02851841   -0.02732346
     atom    3 type  2   force =    -0.00665212    0.02719892    0.03247900

     Total force =     0.059562     Total SCF correction =     0.000022

     Molecular Dynamics Calculation

     Starting temperature  =  1000.00 K

     temperature is controlled by Andersen thermostat
     Collision frequency = 1.0000/timestep
     mass H                =     1.01
     mass O                =    16.00
     Time step             =   100.00 a.u.,  4.8378 femto-seconds

     Entering Dynamics:    iteration =     1
                           time      =   0.0048 pico-seconds


     Andersen thermostat:    3 collisions

ATOMIC_POSITIONS (bohr)
H       10.327176278  17.447292911   2.629501881
H        4.461328097   2.252544738   0.736576930
O        5.709641839  18.194916382  17.336100720


     kinetic energy (Ekin) =     0.01319564 Ry
     temperature           =   694.47456190 K 
     Ekin + Etot (const)   =   -31.51469446 Ry

     Linear momentum :   -0.0000000000   -0.0000000000    0.0000000000

     Writing output data file pwscf.save
     Check: negative starting charge=   -0.338856
     NEW-OLD atomic charge density approx. for the potential
     Check: negative starting charge=   -0.339309

     negative rho (up, down):  8.744E-02 0.000E+00

     total cpu time spent up to now is        4.0 secs

     per-process dynamical memory:    20.4 Mb

     Self-consistent Calculation

     iteration #  1     ecut=    30.00 Ry     beta=0.70
     Davidson diagonalization with overlap
     c_bands:  1 eigenvalues not converged
     ethr =  1.00E-06,  avg # of iterations = 20.0

     negative rho (up, down):  2.168E-02 0.000E+00

     total cpu time spent up to now is        4.1 secs

     total energy              =     -31.47362856 Ry
     Harris-Foulkes estimate   =     -31.47027474 Ry
     estimated scf accuracy    <       0.05613921 Ry

     iteration #  2     ecut=    30.00 Ry     beta=0.70
     Davidson diagonalization with overlap
     ethr =  7.02E-04,  avg # of iterations =  2.0

     negative rho (up, down):  1.976E-02 0.000E+00

     total cpu time spent up to now is        4.1 secs

     total energy              =     -31.48350464 Ry
     Harris-Foulkes estimate   =     -31.97400781 Ry
     estimated scf accuracy    <       4.01590208 Ry

     iteration #  3     ecut=    30.00 Ry     beta=0.70
     Davidson diagonalization with overlap
     ethr =  7.02E-04,  avg # of iterations =  2.0

     negative rho (up, down):  1.952E-02 0.000E+00

     total cpu time spent up to now is        4.2 secs

     total energy              =     -31.52476571 Ry
     Harris-Foulkes estimate   =     -31.52922713 Ry
     estimated scf accuracy    <       0.85562521 Ry

     iteration #  4     ecut=    30.00 Ry     beta=0.70
     Davidson diagonalization with overlap
     ethr =  7.02E-04,  avg # of iterations =  1.0

     negative rho (up, down):  1.248E-02 0.000E+00

     total cpu time spent up to now is        4.2 secs

     total energy              =     -31.50006152 Ry
     Harris-Foulkes estimate   =     -31.52542657 Ry
     estimated scf accuracy    <       0.55399182 Ry

     iteration #  5     ecut=    30.00 Ry     beta=0.70
     Davidson diagonalization with overlap
     ethr =  7.02E-04,  avg # of iterations =  1.0

     negative rho (up, down):  3.316E-03 0.000E+00

     total cpu time spent up to now is        4.2 secs

     total energy              =     -31.52531692 Ry
     Harris-Foulkes estimate   =     -31.53609217 Ry
     estimated scf accuracy    <       0.63236506 Ry

     iteration #  6     ecut=    30.00 Ry     beta=0.70
     Davidson diagonalization with overlap
     ethr =  7.02E-04,  avg # of iterations =  1.0

     negative rho (up, down):  7.161E-04 0.000E+00

     total cpu time spent up to now is        4.3 secs

     total energy              =     -31.53657002 Ry
     Harris-Foulkes estimate   =     -31.53450421 Ry
     estimated scf accuracy    <       0.00066827 Ry

     iteration #  7     ecut=    30.00 Ry     beta=0.70
     Davidson diagonalization with overlap
     ethr =  8.35E-06,  avg # of iterations = 12.0

     negative rho (up, down):  3.181E-04 0.000E+00

     total cpu time spent up to now is        4.3 secs

     total energy              =     -31.53657092 Ry
     Harris-Foulkes estimate   =     -31.53678675 Ry
     estimated scf accuracy    <       0.01313628 Ry

     iteration #  8     ecut=    30.00 Ry     beta=0.70
     Davidson diagonalization with overlap
     ethr =  8.35E-06,  avg # of iterations =  1.0

     negative rho (up, down):  2.874E-05 0.000E+00

     total cpu time spent up to now is        4.4 secs

     total energy              =     -31.53662317 Ry
     Harris-Foulkes estimate   =     -31.53665746 Ry
     estimated scf accuracy    <       0.00114887 Ry

     iteration #  9     ecut=    30.00 Ry     beta=0.70
     Davidson diagonalization with overlap
     ethr =  8.35E-06,  avg # of iterations =  1.0

     total cpu time spent up to now is        4.4 secs

     total energy              =     -31.53666556 Ry
     Harris-Foulkes estimate   =     -31.53665619 Ry
     estimated scf accuracy    <       0.00025556 Ry

     iteration # 10     ecut=    30.00 Ry     beta=0.70
     Davidson diagonalization with overlap
     ethr =  3.19E-06,  avg # of iterations =  8.0

     total cpu time spent up to now is        4.4 secs

     total energy              =     -31.53666283 Ry
     Harris-Foulkes estimate   =     -31.53666598 Ry
     estimated scf accuracy    <       0.00019711 Ry

     iteration # 11     ecut=    30.00 Ry     beta=0.70
     Davidson diagonalization with overlap
     ethr =  2.46E-06,  avg # of iterations =  1.0

     total cpu time spent up to now is        4.5 secs

     total energy              =     -31.53666348 Ry
     Harris-Foulkes estimate   =     -31.53666399 Ry
     estimated scf accuracy    <       0.00002062 Ry

     iteration # 12     ecut=    30.00 Ry     beta=0.70
     Davidson diagonalization with overlap
     ethr =  2.58E-07,  avg # of iterations =  1.0

     total cpu time spent up to now is        4.5 secs

     total energy              =     -31.53666353 Ry
     Harris-Foulkes estimate   =     -31.53666368 Ry
     estimated scf accuracy    <       0.00000052 Ry

     iteration # 13     ecut=    30.00 Ry     beta=0.70
     Davidson diagonalization with overlap
     ethr =  6.54E-09,  avg # of iterations =  1.0

     total cpu time spent up to now is        4.5 secs

     total energy              =     -31.53666348 Ry
     Harris-Foulkes estimate   =     -31.53666353 Ry
     estimated scf accuracy    <       0.00000005 Ry

     iteration # 14     ecut=    30.00 Ry     beta=0.70
     Davidson diagonalization with overlap
     ethr =  6.09E-10,  avg # of iterations =  1.0

     total cpu time spent up to now is        4.6 secs

     End of self-consistent calculation

          k = 0.0000 0.0000 0.0000 ( 22119 PWs)   bands (ev):

   -23.6409  -7.4415  -7.0894  -7.0186  -6.8302  -6.5699  -0.1347   0.6919

     the Fermi energy is    -6.8739 ev

!    total energy              =     -31.53666347 Ry
     Harris-Foulkes estimate   =     -31.53666348 Ry
     estimated scf accuracy    <          2.8E-10 Ry

     convergence has been achieved in  14 iterations

     Forces acting on atoms (Ry/au):

     atom    1 type  1   force =    -0.00519836    0.00083414   -0.00536386
     atom    2 type  1   force =     0.01031073   -0.03236360   -0.02751383
     atom    3 type  2   force =    -0.00511238    0.03152945    0.03287769

     Total force =     0.063784     Total SCF correction =     0.000304

     Entering Dynamics:    iteration =     2
                           time      =   0.0097 pico-seconds


     Andersen thermostat:    3 collisions

ATOMIC_POSITIONS (bohr)
H       10.323120354  17.632504019   2.716365147
H        4.636589722   1.747129354   0.613936229
O        5.698834479  18.215129277  17.338359171


     kinetic energy (Ekin) =     0.01092727 Ry
     temperature           =   575.09237440 K 
     Ekin + Etot (const)   =   -31.52573620 Ry
     Message from routine dynamics:
     Total linear momentum <> 0

     Linear momentum :   -0.0482643422    0.4839037204    0.0463385468

     Writing output data file pwscf.save

     first order wave-functions extrapolation
     Check: negative starting charge=   -0.339309
     first order charge density extrapolation
     Check: negative starting charge=   -0.340118

     negative rho (up, down):  1.141E-01 0.000E+00

     total cpu time spent up to now is        4.9 secs

     per-process dynamical memory:    20.4 Mb

     Self-consistent Calculation

     iteration #  1     ecut=    30.00 Ry     beta=0.70
     Davidson diagonalization with overlap
     ethr =  1.00E-06,  avg # of iterations = 15.0

     negative rho (up, down):  2.370E-02 0.000E+00

     total cpu time spent up to now is        5.0 secs

     total energy              =      -3.55284799 Ry
     Harris-Foulkes estimate   =     -96.22372065 Ry
     estimated scf accuracy    <       5.37640027 Ry

     iteration #  2     ecut=    30.00 Ry     beta=0.70
     Davidson diagonalization with overlap
     ethr =  1.00E-02,  avg # of iterations =  3.0

     negative rho (up, down):  1.576E-02 0.000E+00

     total cpu time spent up to now is        5.0 secs

     total energy              =     -31.51914664 Ry
     Harris-Foulkes estimate   =     -34.97102899 Ry
     estimated scf accuracy    <       7.26611330 Ry

     iteration #  3     ecut=    30.00 Ry     beta=0.70
     Davidson diagonalization with overlap
     ethr =  1.00E-02,  avg # of iterations =  2.0

     negative rho (up, down):  9.956E-03 0.000E+00

     total cpu time spent up to now is        5.0 secs

     total energy              =     -32.13819962 Ry
     Harris-Foulkes estimate   =     -33.29828592 Ry
     estimated scf accuracy    <       4.07032248 Ry

     iteration #  4     ecut=    30.00 Ry     beta=0.70
     Davidson diagonalization with overlap
     ethr =  1.00E-02,  avg # of iterations =  2.0

     negative rho (up, down):  9.993E-03 0.000E+00

     total cpu time spent up to now is        5.1 secs

     total energy              =     -32.24828978 Ry
     Harris-Foulkes estimate   =     -32.27505567 Ry
     estimated scf accuracy    <       2.03604756 Ry

     iteration #  5     ecut=    30.00 Ry     beta=0.70
     Davidson diagonalization with overlap
     ethr =  1.00E-02,  avg # of iterations =  1.0

     negative rho (up, down):  1.745E-02 0.000E+00

     total cpu time spent up to now is        5.1 secs

     total energy              =     -31.53300421 Ry
     Harris-Foulkes estimate   =     -32.24894778 Ry
     estimated scf accuracy    <       1.99227510 Ry

     iteration #  6     ecut=    30.00 Ry     beta=0.70
     Davidson diagonalization with overlap
     ethr =  1.00E-02,  avg # of iterations =  3.0

     negative rho (up, down):  1.516E-02 0.000E+00

     total cpu time spent up to now is        5.1 secs

     total energy              =     -31.77235841 Ry
     Harris-Foulkes estimate   =     -32.02649316 Ry
     estimated scf accuracy    <       2.60006600 Ry

     iteration #  7     ecut=    30.00 Ry     beta=0.70
     Davidson diagonalization with overlap
     ethr =  1.00E-02,  avg # of iterations =  2.0

     negative rho (up, down):  9.141E-03 0.000E+00

     total cpu time spent up to now is        5.2 secs

     total energy              =     -31.47827988 Ry
     Harris-Foulkes estimate   =     -32.00605063 Ry
     estimated scf accuracy    <       1.66919475 Ry

     iteration #  8     ecut=    30.00 Ry     beta=0.70
     Davidson diagonalization with overlap
     ethr =  1.00E-02,  avg # of iterations =  1.0

     negative rho (up, down):  6.160E-03 0.000E+00

     total cpu time spent up to now is        5.2 secs

     total energy              =     -31.66550227 Ry
     Harris-Foulkes estimate   =     -31.80506107 Ry
     estimated scf accuracy    <       2.23107681 Ry

     iteration #  9     ecut=    30.00 Ry     beta=0.70
     Davidson diagonalization with overlap
     ethr =  1.00E-02,  avg # of iterations =  1.0

     negative rho (up, down):  4.986E-03 0.000E+00

     total cpu time spent up to now is        5.2 secs

     total energy              =     -31.61375284 Ry
     Harris-Foulkes estimate   =     -31.67020663 Ry
     estimated scf accuracy    <       1.52490085 Ry

     iteration # 10     ecut=    30.00 Ry     beta=0.70
     Davidson diagonalization with overlap
     ethr =  1.00E-02,  avg # of iterations =  1.0

     negative rho (up, down):  5.412E-02 0.000E+00

     total cpu time spent up to now is        5.3 secs

     total energy              =     -32.16510014 Ry
     Harris-Foulkes estimate   =     -31.71447897 Ry
     estimated scf accuracy    <       1.20584704 Ry

     iteration # 11     ecut=    30.00 Ry     beta=0.70
     Davidson diagonalization with overlap
     ethr =  1.00E-02,  avg # of iterations =  2.0

     negative rho (up, down):  2.617E-02 0.000E+00

     total cpu time spent up to now is        5.3 secs

     total energy              =     -32.30146175 Ry
     Harris-Foulkes estimate   =     -32.81287751 Ry
     estimated scf accuracy    <       5.57832835 Ry

     iteration # 12     ecut=    30.00 Ry     beta=0.70
     Davidson diagonalization with overlap
     ethr =  1.00E-02,  avg # of iterations =  1.0

     negative rho (up, down):  3.656E-05 0.000E+00

     total cpu time spent up to now is        5.3 secs

     total energy              =     -31.55133977 Ry
     Harris-Foulkes estimate   =     -32.33328000 Ry
     estimated scf accuracy    <       4.18636401 Ry

     iteration # 13     ecut=    30.00 Ry     beta=0.70
     Davidson diagonalization with overlap
     ethr =  1.00E-02,  avg # of iterations =  1.0

     negative rho (up, down):  2.967E-04 0.000E+00

     total cpu time spent up to now is        5.4 secs

     total energy              =     -31.44580020 Ry
     Harris-Foulkes estimate   =     -31.60248980 Ry
     estimated scf accuracy    <       2.11113948 Ry

     iteration # 14     ecut=    30.00 Ry     beta=0.70
     Davidson diagonalization with overlap
     ethr =  1.00E-02,  avg # of iterations =  1.0

     total cpu time spent up to now is        5.4 secs

     total energy              =     -31.46705442 Ry
     Harris-Foulkes estimate   =     -31.64420406 Ry
     estimated scf accuracy    <       0.77344935 Ry

     iteration # 15     ecut=    30.00 Ry     beta=0.70
     Davidson diagonalization with overlap
     ethr =  9.67E-03,  avg # of iterations =  1.0

     negative rho (up, down):  8.949E-07 0.000E+00

     total cpu time spent up to now is        5.4 secs

     total energy              =     -31.66531466 Ry
     Harris-Foulkes estimate   =     -31.67976241 Ry
     estimated scf accuracy    <       2.05087664 Ry

     iteration # 16     ecut=    30.00 Ry     beta=0.70
     Davidson diagonalization with overlap
     ethr =  9.67E-03,  avg # of iterations =  1.0

     negative rho (up, down):  9.071E-05 0.000E+00

     total cpu time spent up to now is        5.5 secs

     total energy              =     -31.53406910 Ry
     Harris-Foulkes estimate   =     -31.67187143 Ry
     estimated scf accuracy    <       1.48823906 Ry

     iteration # 17     ecut=    30.00 Ry     beta=0.70
     Davidson diagonalization with overlap
     ethr =  9.67E-03,  avg # of iterations =  1.0

     negative rho (up, down):  3.311E-06 0.000E+00

     total cpu time spent up to now is        5.5 secs

     total energy              =     -31.55090251 Ry
     Harris-Foulkes estimate   =     -31.56381985 Ry
     estimated scf accuracy    <       0.10018963 Ry

     iteration # 18     ecut=    30.00 Ry     beta=0.70
     Davidson diagonalization with overlap
     ethr =  1.25E-03,  avg # of iterations =  1.0

     negative rho (up, down):  1.049E-06 0.000E+00

     total cpu time spent up to now is        5.5 secs

     total energy              =     -31.56398124 Ry
     Harris-Foulkes estimate   =     -31.58061388 Ry
     estimated scf accuracy    <       1.24954388 Ry

     iteration # 19     ecut=    30.00 Ry     beta=0.70
     Davidson diagonalization with overlap
     ethr =  1.25E-03,  avg # of iterations =  1.0

     total cpu time spent up to now is        5.6 secs

     total energy              =     -31.58550624 Ry
     Harris-Foulkes estimate   =     -31.56718457 Ry
     estimated scf accuracy    <       0.43149539 Ry

     iteration # 20     ecut=    30.00 Ry     beta=0.70
     Davidson diagonalization with overlap
     ethr =  1.25E-03,  avg # of iterations =  1.0

     total cpu time spent up to now is        5.6 secs

     total energy              =     -31.55510739 Ry
     Harris-Foulkes estimate   =     -31.59898695 Ry
     estimated scf accuracy    <       1.48831998 Ry

     iteration # 21     ecut=    30.00 Ry     beta=0.70
     Davidson diagonalization with overlap
     ethr =  1.25E-03,  avg # of iterations =  1.0

     total cpu time spent up to now is        5.6 secs

     total energy              =     -31.55910831 Ry
     Harris-Foulkes estimate   =     -31.56381683 Ry
     estimated scf accuracy    <       0.20440174 Ry

     iteration # 22     ecut=    30.00 Ry     beta=0.70
     Davidson diagonalization with overlap
     ethr =  1.25E-03,  avg # of iterations =  1.0

     total cpu time spent up to now is        5.7 secs

     total energy              =     -31.56129932 Ry
     Harris-Foulkes estimate   =     -31.56109738 Ry
     estimated scf accuracy    <       0.00517910 Ry

     iteration # 23     ecut=    30.00 Ry     beta=0.70
     Davidson diagonalization with overlap
     ethr =  6.47E-05,  avg # of iterations = 11.0

     total cpu time spent up to now is        5.7 secs

     total energy              =     -31.56045724 Ry
     Harris-Foulkes estimate   =     -31.56148764 Ry
     estimated scf accuracy    <       0.03278057 Ry

     iteration # 24     ecut=    30.00 Ry     beta=0.70
     Davidson diagonalization with overlap
     ethr =  6.47E-05,  avg # of iterations =  1.0

     total cpu time spent up to now is        5.7 secs

     total energy              =     -31.56101689 Ry
     Harris-Foulkes estimate   =     -31.56103679 Ry
     estimated scf accuracy    <       0.00050890 Ry

     iteration # 25     ecut=    30.00 Ry     beta=0.70
     Davidson diagonalization with overlap
     ethr =  6.36E-06,  avg # of iterations =  4.0

     total cpu time spent up to now is        5.8 secs

     total energy              =     -31.56102593 Ry
     Harris-Foulkes estimate   =     -31.56102829 Ry
     estimated scf accuracy    <       0.00002507 Ry

     iteration # 26     ecut=    30.00 Ry     beta=0.70
     Davidson diagonalization with overlap
     ethr =  3.13E-07,  avg # of iterations =  7.0

     total cpu time spent up to now is        5.8 secs

     total energy              =     -31.56102778 Ry
     Harris-Foulkes estimate   =     -31.56102923 Ry
     estimated scf accuracy    <       0.00010316 Ry

     iteration # 27     ecut=    30.00 Ry     beta=0.70
     Davidson diagonalization with overlap
     ethr =  3.13E-07,  avg # of iterations =  1.0

     total cpu time spent up to now is        5.8 secs

     total energy              =     -31.56102744 Ry
     Harris-Foulkes estimate   =     -31.56102808 Ry
     estimated scf accuracy    <       0.00003164 Ry

     iteration # 28     ecut=    30.00 Ry     beta=0.70
     Davidson diagonalization with overlap
     ethr =  3.13E-07,  avg # of iterations =  1.0

     total cpu time spent up to now is        5.9 secs

     total energy              =     -31.56102754 Ry
     Harris-Foulkes estimate   =     -31.56102760 Ry
     estimated scf accuracy    <       0.00000531 Ry

     iteration # 29     ecut=    30.00 Ry     beta=0.70
     Davidson diagonalization with overlap
     ethr =  6.63E-08,  avg # of iterations =  1.0

     total cpu time spent up to now is        5.9 secs

     total energy              =     -31.56102746 Ry
     Harris-Foulkes estimate   =     -31.56102755 Ry
     estimated scf accuracy    <       0.00000184 Ry

     iteration # 30     ecut=    30.00 Ry     beta=0.70
     Davidson diagonalization with overlap
     ethr =  2.30E-08,  avg # of iterations =  1.0

     total cpu time spent up to now is        5.9 secs

     End of self-consistent calculation

          k = 0.0000 0.0000 0.0000 ( 22119 PWs)   bands (ev):

   -23.6291  -7.6910  -7.0274  -6.9631  -6.7719  -6.4417  -0.1273   0.7036

     the Fermi energy is    -6.8011 ev

!    total energy              =     -31.56102749 Ry
     Harris-Foulkes estimate   =     -31.56102749 Ry
     estimated scf accuracy    <          1.3E-10 Ry

     convergence has been achieved in  30 iterations

     Forces acting on atoms (Ry/au):

     atom    1 type  1   force =    -0.00455453    0.00071090   -0.00479801
     atom    2 type  1   force =     0.01331842   -0.04292199   -0.04002067
     atom    3 type  2   force =    -0.00876389    0.04221110    0.04481868

     Total force =     0.086792     Total SCF correction =     0.000007

     Entering Dynamics:    iteration =     3
                           time      =   0.0145 pico-seconds


     Andersen thermostat:    3 collisions

ATOMIC_POSITIONS (bohr)
H       10.495257127  17.357507324   2.752692188
H        4.924624456   1.353426151   0.518143145
O        5.669786153  18.257340958  17.342112965


     kinetic energy (Ekin) =     0.01355652 Ry
     temperature           =   713.46745593 K 
     Ekin + Etot (const)   =   -31.54747097 Ry
     Message from routine dynamics:
     Total linear momentum <> 0

     Linear momentum :    0.3047675616   -0.3500624036   -0.1369358232

     Writing output data file pwscf.save

     second order wave-functions extrapolation
     Check: negative starting charge=   -0.340118
     second order charge density extrapolation
     Check: negative starting charge=   -0.340147

     negative rho (up, down):  7.691E-02 0.000E+00

     total cpu time spent up to now is        6.3 secs

     per-process dynamical memory:    20.4 Mb

     Self-consistent Calculation

     iteration #  1     ecut=    30.00 Ry     beta=0.70
     Davidson diagonalization with overlap
     c_bands:  1 eigenvalues not converged
     ethr =  1.00E-06,  avg # of iterations = 20.0

     negative rho (up, down):  2.017E-02 0.000E+00

     total cpu time spent up to now is        6.5 secs

     total energy              =     -25.70292326 Ry
     Harris-Foulkes estimate   =     -34.16926837 Ry
     estimated scf accuracy    <       3.13094519 Ry

     iteration #  2     ecut=    30.00 Ry     beta=0.70
     Davidson diagonalization with overlap
     ethr =  1.00E-02,  avg # of iterations =  3.0

     negative rho (up, down):  1.322E-02 0.000E+00

     total cpu time spent up to now is        6.5 secs

     total energy              =     -31.97121003 Ry
     Harris-Foulkes estimate   =     -33.79673581 Ry
     estimated scf accuracy    <       4.41646279 Ry

     iteration #  3     ecut=    30.00 Ry     beta=0.70
     Davidson diagonalization with overlap
     ethr =  1.00E-02,  avg # of iterations =  1.0

     negative rho (up, down):  1.218E-02 0.000E+00

     total cpu time spent up to now is        6.5 secs

     total energy              =     -31.91079764 Ry
     Harris-Foulkes estimate   =     -32.51757213 Ry
     estimated scf accuracy    <       3.73789216 Ry

     iteration #  4     ecut=    30.00 Ry     beta=0.70
     Davidson diagonalization with overlap
     ethr =  1.00E-02,  avg # of iterations =  1.0

     negative rho (up, down):  1.045E-02 0.000E+00

     total cpu time spent up to now is        6.6 secs

     total energy              =     -31.82410620 Ry
     Harris-Foulkes estimate   =     -32.05578822 Ry
     estimated scf accuracy    <       1.71337572 Ry

     iteration #  5     ecut=    30.00 Ry     beta=0.70
     Davidson diagonalization with overlap
     ethr =  1.00E-02,  avg # of iterations =  1.0

     negative rho (up, down):  6.898E-03 0.000E+00

     total cpu time spent up to now is        6.6 secs

     total energy              =     -31.53840551 Ry
     Harris-Foulkes estimate   =     -31.85413121 Ry
     estimated scf accuracy    <       1.21846411 Ry

     iteration #  6     ecut=    30.00 Ry     beta=0.70
     Davidson diagonalization with overlap
     ethr =  1.00E-02,  avg # of iterations =  3.0

     negative rho (up, down):  5.812E-03 0.000E+00

     total cpu time spent up to now is        6.6 secs

     total energy              =     -31.66340218 Ry
     Harris-Foulkes estimate   =     -31.71788601 Ry
     estimated scf accuracy    <       1.28931744 Ry

     iteration #  7     ecut=    30.00 Ry     beta=0.70
     Davidson diagonalization with overlap
     ethr =  1.00E-02,  avg # of iterations =  1.0

     negative rho (up, down):  4.251E-03 0.000E+00

     total cpu time spent up to now is        6.7 secs

     total energy              =     -31.59659479 Ry
     Harris-Foulkes estimate   =     -31.68326420 Ry
     estimated scf accuracy    <       1.18219057 Ry

     iteration #  8     ecut=    30.00 Ry     beta=0.70
     Davidson diagonalization with overlap
     ethr =  1.00E-02,  avg # of iterations =  1.0

     negative rho (up, down):  3.864E-03 0.000E+00

     total cpu time spent up to now is        6.7 secs

     total energy              =     -31.58166951 Ry
     Harris-Foulkes estimate   =     -31.61686673 Ry
     estimated scf accuracy    <       0.87386396 Ry

     iteration #  9     ecut=    30.00 Ry     beta=0.70
     Davidson diagonalization with overlap
     ethr =  1.00E-02,  avg # of iterations =  1.0

     negative rho (up, down):  2.408E-03 0.000E+00

     total cpu time spent up to now is        6.7 secs

     total energy              =     -31.59006463 Ry
     Harris-Foulkes estimate   =     -31.62038702 Ry
     estimated scf accuracy    <       0.57514676 Ry

     iteration # 10     ecut=    30.00 Ry     beta=0.70
     Davidson diagonalization with overlap
     ethr =  7.19E-03,  avg # of iterations =  1.0

     negative rho (up, down):  2.728E-07 0.000E+00

     total cpu time spent up to now is        6.8 secs

     total energy              =     -31.58703805 Ry
     Harris-Foulkes estimate   =     -31.59697793 Ry
     estimated scf accuracy    <       0.13519151 Ry

     iteration # 11     ecut=    30.00 Ry     beta=0.70
     Davidson diagonalization with overlap
     ethr =  1.69E-03,  avg # of iterations =  2.0

     negative rho (up, down):  1.644E-05 0.000E+00

     total cpu time spent up to now is        6.8 secs

     total energy              =     -31.60068096 Ry
     Harris-Foulkes estimate   =     -31.69071460 Ry
     estimated scf accuracy    <       1.02607802 Ry

     iteration # 12     ecut=    30.00 Ry     beta=0.70
     Davidson diagonalization with overlap
     ethr =  1.69E-03,  avg # of iterations =  1.0

     negative rho (up, down):  1.089E-04 0.000E+00

     total cpu time spent up to now is        6.8 secs

     total energy              =     -31.56973033 Ry
     Harris-Foulkes estimate   =     -31.62143689 Ry
     estimated scf accuracy    <       0.32121296 Ry

     iteration # 13     ecut=    30.00 Ry     beta=0.70
     Davidson diagonalization with overlap
     ethr =  1.69E-03,  avg # of iterations =  1.0

     negative rho (up, down):  3.058E-06 0.000E+00

     total cpu time spent up to now is        6.9 secs

     total energy              =     -31.55434295 Ry
     Harris-Foulkes estimate   =     -31.65870844 Ry
     estimated scf accuracy    <       1.74114342 Ry

     iteration # 14     ecut=    30.00 Ry     beta=0.70
     Davidson diagonalization with overlap
     ethr =  1.69E-03,  avg # of iterations =  1.0

     negative rho (up, down):  6.650E-06 0.000E+00

     total cpu time spent up to now is        6.9 secs

     total energy              =     -31.58956206 Ry
     Harris-Foulkes estimate   =     -31.60836910 Ry
     estimated scf accuracy    <       0.39468229 Ry

     iteration # 15     ecut=    30.00 Ry     beta=0.70
     Davidson diagonalization with overlap
     ethr =  1.69E-03,  avg # of iterations =  1.0

     negative rho (up, down):  8.561E-07 0.000E+00

     total cpu time spent up to now is        6.9 secs

     total energy              =     -31.58226458 Ry
     Harris-Foulkes estimate   =     -31.60264219 Ry
     estimated scf accuracy    <       0.20916209 Ry

     iteration # 16     ecut=    30.00 Ry     beta=0.70
     Davidson diagonalization with overlap
     ethr =  1.69E-03,  avg # of iterations =  1.0

     negative rho (up, down):  4.827E-07 0.000E+00

     total cpu time spent up to now is        7.0 secs

     total energy              =     -31.59265813 Ry
     Harris-Foulkes estimate   =     -31.59590319 Ry
     estimated scf accuracy    <       0.14124031 Ry

     iteration # 17     ecut=    30.00 Ry     beta=0.70
     Davidson diagonalization with overlap
     ethr =  1.69E-03,  avg # of iterations =  1.0

     negative rho (up, down):  4.507E-07 0.000E+00

     total cpu time spent up to now is        7.0 secs

     total energy              =     -31.59396244 Ry
     Harris-Foulkes estimate   =     -31.59381830 Ry
     estimated scf accuracy    <       0.01995471 Ry

     iteration # 18     ecut=    30.00 Ry     beta=0.70
     Davidson diagonalization with overlap
     ethr =  2.49E-04,  avg # of iterations =  1.0

     negative rho (up, down):  1.245E-05 0.000E+00

     total cpu time spent up to now is        7.0 secs

     total energy              =     -31.59118375 Ry
     Harris-Foulkes estimate   =     -31.59398022 Ry
     estimated scf accuracy    <       0.02257977 Ry

     iteration # 19     ecut=    30.00 Ry     beta=0.70
     Davidson diagonalization with overlap
     ethr =  2.49E-04,  avg # of iterations =  1.0

     negative rho (up, down):  6.727E-07 0.000E+00

     total cpu time spent up to now is        7.1 secs

     total energy              =     -31.59361790 Ry
     Harris-Foulkes estimate   =     -31.59296332 Ry
     estimated scf accuracy    <       0.00411592 Ry

     iteration # 20     ecut=    30.00 Ry     beta=0.70
     Davidson diagonalization with overlap
     ethr =  5.14E-05,  avg # of iterations =  8.0

     negative rho (up, down):  1.597E-07 0.000E+00

     total cpu time spent up to now is        7.1 secs

     total energy              =     -31.59154587 Ry
     Harris-Foulkes estimate   =     -31.59488888 Ry
     estimated scf accuracy    <       0.06887924 Ry

     iteration # 21     ecut=    30.00 Ry     beta=0.70
     Davidson diagonalization with overlap
     ethr =  5.14E-05,  avg # of iterations =  1.0

     total cpu time spent up to now is        7.1 secs

     total energy              =     -31.59265509 Ry
     Harris-Foulkes estimate   =     -31.59290365 Ry
     estimated scf accuracy    <       0.00144111 Ry

     iteration # 22     ecut=    30.00 Ry     beta=0.70
     Davidson diagonalization with overlap
     ethr =  1.80E-05,  avg # of iterations =  1.0

     total cpu time spent up to now is        7.2 secs

     total energy              =     -31.59267788 Ry
     Harris-Foulkes estimate   =     -31.59271323 Ry
     estimated scf accuracy    <       0.00082422 Ry

     iteration # 23     ecut=    30.00 Ry     beta=0.70
     Davidson diagonalization with overlap
     ethr =  1.03E-05,  avg # of iterations =  1.0

     total cpu time spent up to now is        7.2 secs

     total energy              =     -31.59269592 Ry
     Harris-Foulkes estimate   =     -31.59269677 Ry
     estimated scf accuracy    <       0.00004334 Ry

     iteration # 24     ecut=    30.00 Ry     beta=0.70
     Davidson diagonalization with overlap
     ethr =  5.42E-07,  avg # of iterations = 11.0

     total cpu time spent up to now is        7.2 secs

     total energy              =     -31.59269677 Ry
     Harris-Foulkes estimate   =     -31.59269671 Ry
     estimated scf accuracy    <       0.00000053 Ry

     iteration # 25     ecut=    30.00 Ry     beta=0.70
     Davidson diagonalization with overlap
     ethr =  6.60E-09,  avg # of iterations =  1.0

     total cpu time spent up to now is        7.3 secs

     total energy              =     -31.59269692 Ry
     Harris-Foulkes estimate   =     -31.59269683 Ry
     estimated scf accuracy    <       0.00000002 Ry

     iteration # 26     ecut=    30.00 Ry     beta=0.70
     Davidson diagonalization with overlap
     ethr =  2.22E-10,  avg # of iterations =  2.0

     total cpu time spent up to now is        7.3 secs

     End of self-consistent calculation

          k = 0.0000 0.0000 0.0000 ( 22119 PWs)   bands (ev):

   -23.6118  -7.9221  -6.9826  -6.9316  -6.7474  -6.1534  -0.1185   0.7269

     the Fermi energy is    -6.7626 ev

!    total energy              =     -31.59269695 Ry
     Harris-Foulkes estimate   =     -31.59269692 Ry
     estimated scf accuracy    <          1.3E-09 Ry

     convergence has been achieved in  26 iterations

     Forces acting on atoms (Ry/au):

     atom    1 type  1   force =    -0.00340872    0.00061114   -0.00303503
     atom    2 type  1   force =     0.01435292   -0.06032495   -0.06204722
     atom    3 type  2   force =    -0.01094420    0.05971381    0.06508225

     Total force =     0.125050     Total SCF correction =     0.000041

     Entering Dynamics:    iteration =     4
                           time      =   0.0194 pico-seconds


     Andersen thermostat:    3 collisions

ATOMIC_POSITIONS (bohr)
H       10.446645608  17.228010269   2.628777934
H        4.883702543   0.363298625  -0.351374436
O        5.675437950  18.328017260  17.404823349


     kinetic energy (Ekin) =     0.04724070 Ry
     temperature           =  2486.23589249 K 
     Ekin + Etot (const)   =   -31.54545625 Ry
     Message from routine dynamics:
     Total linear momentum <> 0

     Linear momentum :    0.6585480540    0.4524520681   -0.2987964083

     Writing output data file pwscf.save

     second order wave-functions extrapolation
     Check: negative starting charge=   -0.340147
     second order charge density extrapolation
     Check: negative starting charge=   -0.340877

     negative rho (up, down):  2.313E-01 0.000E+00

     total cpu time spent up to now is        7.6 secs

     per-process dynamical memory:    20.4 Mb

     Self-consistent Calculation

     iteration #  1     ecut=    30.00 Ry     beta=0.70
     Davidson diagonalization with overlap
     ethr =  1.00E-06,  avg # of iterations = 14.0

     negative rho (up, down):  3.474E-02 0.000E+00

     total cpu time spent up to now is        7.7 secs

     total energy              =      21.30532536 Ry
     Harris-Foulkes estimate   =    -260.26339710 Ry
     estimated scf accuracy    <      18.20285084 Ry

     iteration #  2     ecut=    30.00 Ry     beta=0.70
     Davidson diagonalization with overlap
     ethr =  1.00E-02,  avg # of iterations =  5.0

     negative rho (up, down):  2.220E-02 0.000E+00

     total cpu time spent up to now is        7.8 secs

     total energy              =     -33.57020965 Ry
[...]

     total cpu time spent up to now is       14.5 secs

     total energy              =      -7.15186760 Ry
     Harris-Foulkes estimate   =  -21795.09994066 Ry
     estimated scf accuracy    <      22.56778166 Ry

     iteration # 59     ecut=    30.00 Ry     beta=0.70
     Davidson diagonalization with overlap
     ethr =  1.00E-02,  avg # of iterations =  6.0

     negative rho (up, down):  1.017E-01 0.000E+00

     total cpu time spent up to now is       14.5 secs

     total energy              =      99.94803827 Ry
     Harris-Foulkes estimate   =   -1617.11907943 Ry
     estimated scf accuracy    <      19.86958788 Ry

     iteration # 60     ecut=    30.00 Ry     beta=0.70
     Davidson diagonalization with overlap
     ethr =  1.00E-02,  avg # of iterations =  7.0

     negative rho (up, down):  2.117E-01 0.000E+00

     total cpu time spent up to now is       14.6 secs

     total energy              =       7.18192490 Ry
     Harris-Foulkes estimate   =   -1113.75690278 Ry
     estimated scf accuracy    <      21.98589270 Ry

     iteration # 61     ecut=    30.00 Ry     beta=0.70
     Davidson diagonalization with overlap
     ethr =  1.00E-02,  avg # of iterations =  7.0

     negative rho (up, down):  3.366E-01 0.000E+00

     total cpu time spent up to now is       14.6 secs

     total energy              =    -480.15437897 Ry
     Harris-Foulkes estimate   =    -659.41694461 Ry
     estimated scf accuracy    <      29.91273365 Ry

     iteration # 62     ecut=    30.00 Ry     beta=0.70
     Davidson diagonalization with overlap
     ethr =  1.00E-02,  avg # of iterations =  4.0

     negative rho (up, down):  5.316E-01 0.000E+00

     total cpu time spent up to now is       14.7 secs

     total energy              =      77.44973166 Ry
     Harris-Foulkes estimate   =   -5842.72746079 Ry
     estimated scf accuracy    <      31.21718594 Ry

     iteration # 63     ecut=    30.00 Ry     beta=0.70
     Davidson diagonalization with overlap
     ethr =  1.00E-02,  avg # of iterations =  9.0

     negative rho (up, down):  4.551E-01 0.000E+00

     total cpu time spent up to now is       14.7 secs

     total energy              =     -64.39363440 Ry
     Harris-Foulkes estimate   =   -1427.29510438 Ry
     estimated scf accuracy    <      19.31576791 Ry

     iteration # 64     ecut=    30.00 Ry     beta=0.70
     Davidson diagonalization with overlap
     ethr =  1.00E-02,  avg # of iterations =  5.0

     negative rho (up, down):  9.735E-03 0.000E+00

     total cpu time spent up to now is       14.8 secs

     total energy              =     116.17739228 Ry
     Harris-Foulkes estimate   =   -4337.65874884 Ry
     estimated scf accuracy    <      16.51317695 Ry

     iteration # 65     ecut=    30.00 Ry     beta=0.70
     Davidson diagonalization with overlap
     ethr =  1.00E-02,  avg # of iterations = 11.0

     total cpu time spent up to now is       14.8 secs

     total energy              =      12.50491239 Ry
     Harris-Foulkes estimate   =    -138.58831479 Ry
     estimated scf accuracy    <      28.46230931 Ry

     iteration # 66     ecut=    30.00 Ry     beta=0.70
     Davidson diagonalization with overlap
     ethr =  1.00E-02,  avg # of iterations =  5.0

     total cpu time spent up to now is       14.9 secs

     total energy              =     -48.47238002 Ry
     Harris-Foulkes estimate   =     -49.65218725 Ry
     estimated scf accuracy    <      32.09193592 Ry

     iteration # 67     ecut=    30.00 Ry     beta=0.70
     Davidson diagonalization with overlap
     ethr =  1.00E-02,  avg # of iterations =  1.0

     negative rho (up, down):  3.616E-03 0.000E+00

     total cpu time spent up to now is       14.9 secs

     total energy              =     -42.83559852 Ry
     Harris-Foulkes estimate   =     -48.47857192 Ry
     estimated scf accuracy    <      30.17305771 Ry

     iteration # 68     ecut=    30.00 Ry     beta=0.70
     Davidson diagonalization with overlap
     ethr =  1.00E-02,  avg # of iterations =  2.0

     negative rho (up, down):  1.180E+00 0.000E+00

     total cpu time spent up to now is       15.0 secs

     total energy              =     -37.57374104 Ry
     Harris-Foulkes estimate   =     -42.99744642 Ry
     estimated scf accuracy    <      20.71855085 Ry

     iteration # 69     ecut=    30.00 Ry     beta=0.70
     Davidson diagonalization with overlap
     ethr =  1.00E-02,  avg # of iterations =  9.0

     negative rho (up, down):  1.076E+00 0.000E+00

     total cpu time spent up to now is       15.0 secs

     total energy              =    -486.03042057 Ry
     Harris-Foulkes estimate   =   -2970.44252035 Ry
     estimated scf accuracy    <      31.24993688 Ry

     iteration # 70     ecut=    30.00 Ry     beta=0.70
     Davidson diagonalization with overlap
     ethr =  1.00E-02,  avg # of iterations =  8.0

     negative rho (up, down):  6.389E-01 0.000E+00

     total cpu time spent up to now is       15.1 secs

     total energy              =      96.46184214 Ry
     Harris-Foulkes estimate   =   -1535.23753137 Ry
     estimated scf accuracy    <      40.20622159 Ry

     iteration # 71     ecut=    30.00 Ry     beta=0.70
     Davidson diagonalization with overlap
     ethr =  1.00E-02,  avg # of iterations =  6.0

     negative rho (up, down):  5.286E-01 0.000E+00

     total cpu time spent up to now is       15.1 secs

     total energy              =    -217.47452068 Ry
     Harris-Foulkes estimate   =   -1883.39192107 Ry
     estimated scf accuracy    <      37.42527153 Ry

     iteration # 72     ecut=    30.00 Ry     beta=0.70
     Davidson diagonalization with overlap
     ethr =  1.00E-02,  avg # of iterations =  7.0

     negative rho (up, down):  4.011E-01 0.000E+00

     total cpu time spent up to now is       15.2 secs

     total energy              =     -44.93763342 Ry
     Harris-Foulkes estimate   =    -956.79141223 Ry
     estimated scf accuracy    <      37.40651201 Ry

     iteration # 73     ecut=    30.00 Ry     beta=0.70
     Davidson diagonalization with overlap
     ethr =  1.00E-02,  avg # of iterations =  8.0

     negative rho (up, down):  4.219E-01 0.000E+00

     total cpu time spent up to now is       15.3 secs

     total energy              =    -224.52185317 Ry
     Harris-Foulkes estimate   =    -239.63864149 Ry
     estimated scf accuracy    <      23.34175691 Ry

     iteration # 74     ecut=    30.00 Ry     beta=0.70
     Davidson diagonalization with overlap
     ethr =  1.00E-02,  avg # of iterations =  6.0

     negative rho (up, down):  2.861E-02 0.000E+00

     total cpu time spent up to now is       15.3 secs

     total energy              =      56.74947937 Ry
     Harris-Foulkes estimate   =   -2089.26999845 Ry
     estimated scf accuracy    <      45.84524329 Ry

     iteration # 75     ecut=    30.00 Ry     beta=0.70
     Davidson diagonalization with overlap
     ethr =  1.00E-02,  avg # of iterations =  9.0

     negative rho (up, down):  5.770E-02 0.000E+00

     total cpu time spent up to now is       15.4 secs

     total energy              =     -71.58309887 Ry
     Harris-Foulkes estimate   =     -68.93498529 Ry
     estimated scf accuracy    <      17.76805092 Ry

     iteration # 76     ecut=    30.00 Ry     beta=0.70
     Davidson diagonalization with overlap
     ethr =  1.00E-02,  avg # of iterations =  5.0

     negative rho (up, down):  8.252E-02 0.000E+00

     total cpu time spent up to now is       15.4 secs

     total energy              =     -12.08219778 Ry
     Harris-Foulkes estimate   =    -480.97139875 Ry
     estimated scf accuracy    <      43.47174267 Ry

     iteration # 77     ecut=    30.00 Ry     beta=0.70
     Davidson diagonalization with overlap
     ethr =  1.00E-02,  avg # of iterations =  6.0

     negative rho (up, down):  1.339E+00 0.000E+00

     total cpu time spent up to now is       15.5 secs

     total energy              =    -236.26633524 Ry
     Harris-Foulkes estimate   =    -313.36408637 Ry
     estimated scf accuracy    <      22.56381004 Ry

     iteration # 78     ecut=    30.00 Ry     beta=0.70
     Davidson diagonalization with overlap
     ethr =  1.00E-02,  avg # of iterations =  7.0

     negative rho (up, down):  1.562E+00 0.000E+00

     total cpu time spent up to now is       15.5 secs

     total energy              =    -418.96655110 Ry
     Harris-Foulkes estimate   =  -11539.18949211 Ry
     estimated scf accuracy    <      31.93058071 Ry

     iteration # 79     ecut=    30.00 Ry     beta=0.70
     Davidson diagonalization with overlap
     ethr =  1.00E-02,  avg # of iterations =  6.0

     negative rho (up, down):  1.293E+00 0.000E+00

     total cpu time spent up to now is       15.6 secs

     total energy              =     -25.72397666 Ry
     Harris-Foulkes estimate   =   -3876.95987218 Ry
     estimated scf accuracy    <      30.20629880 Ry

     iteration # 80     ecut=    30.00 Ry     beta=0.70
     Davidson diagonalization with overlap
     ethr =  1.00E-02,  avg # of iterations =  8.0

     negative rho (up, down):  1.567E+00 0.000E+00

     total cpu time spent up to now is       15.6 secs

     total energy              =    -312.58671262 Ry
     Harris-Foulkes estimate   =    -885.43143934 Ry
     estimated scf accuracy    <      42.91048029 Ry

     iteration # 81     ecut=    30.00 Ry     beta=0.70
     Davidson diagonalization with overlap
     ethr =  1.00E-02,  avg # of iterations =  8.0

     negative rho (up, down):  1.627E+00 0.000E+00

     total cpu time spent up to now is       15.7 secs

     total energy              =     -40.91494062 Ry
     Harris-Foulkes estimate   =   -2485.28300503 Ry
     estimated scf accuracy    <      52.44490120 Ry

     iteration # 82     ecut=    30.00 Ry     beta=0.70
     Davidson diagonalization with overlap
     ethr =  1.00E-02,  avg # of iterations =  8.0

     negative rho (up, down):  1.594E+00 0.000E+00

     total cpu time spent up to now is       15.7 secs

     total energy              =    -281.66079770 Ry
     Harris-Foulkes estimate   =   -1969.27992666 Ry
     estimated scf accuracy    <      32.13981629 Ry

     iteration # 83     ecut=    30.00 Ry     beta=0.70
     Davidson diagonalization with overlap
     ethr =  1.00E-02,  avg # of iterations =  6.0

     negative rho (up, down):  1.321E+00 0.000E+00

     total cpu time spent up to now is       15.8 secs

     total energy              =    -550.18873298 Ry
     Harris-Foulkes estimate   =   -2044.25932936 Ry
     estimated scf accuracy    <      29.37041369 Ry

     iteration # 84     ecut=    30.00 Ry     beta=0.70
     Davidson diagonalization with overlap
     ethr =  1.00E-02,  avg # of iterations =  5.0

     negative rho (up, down):  1.598E+00 0.000E+00

     total cpu time spent up to now is       15.8 secs

     total energy              =      90.49016819 Ry
     Harris-Foulkes estimate   =   -2396.58532216 Ry
     estimated scf accuracy    <      28.00582085 Ry

     iteration # 85     ecut=    30.00 Ry     beta=0.70
     Davidson diagonalization with overlap
     ethr =  1.00E-02,  avg # of iterations =  9.0

     negative rho (up, down):  1.561E-01 0.000E+00

     total cpu time spent up to now is       15.9 secs

     total energy              =     -71.42597681 Ry
     Harris-Foulkes estimate   =  -10617.00002829 Ry
     estimated scf accuracy    <      22.23786543 Ry

     iteration # 86     ecut=    30.00 Ry     beta=0.70
     Davidson diagonalization with overlap
     ethr =  1.00E-02,  avg # of iterations =  5.0

     negative rho (up, down):  3.219E-01 0.000E+00

     total cpu time spent up to now is       16.0 secs

     total energy              =     -63.21337121 Ry
     Harris-Foulkes estimate   =   -4014.81383404 Ry
     estimated scf accuracy    <      21.85491251 Ry

     iteration # 87     ecut=    30.00 Ry     beta=0.70
     Davidson diagonalization with overlap
     ethr =  1.00E-02,  avg # of iterations =  6.0

     negative rho (up, down):  3.836E-01 0.000E+00

     total cpu time spent up to now is       16.0 secs

     total energy              =      43.98457919 Ry
     Harris-Foulkes estimate   =   -4895.12915731 Ry
     estimated scf accuracy    <      18.25553688 Ry

     iteration # 88     ecut=    30.00 Ry     beta=0.70
     Davidson diagonalization with overlap
     ethr =  1.00E-02,  avg # of iterations =  8.0

     negative rho (up, down):  2.205E-01 0.000E+00

     total cpu time spent up to now is       16.1 secs

     total energy              =     107.57538310 Ry
     Harris-Foulkes estimate   =   -1124.94752977 Ry
     estimated scf accuracy    <      41.21568424 Ry

     iteration # 89     ecut=    30.00 Ry     beta=0.70
     Davidson diagonalization with overlap
     ethr =  1.00E-02,  avg # of iterations =  8.0

     negative rho (up, down):  2.464E-01 0.000E+00

     total cpu time spent up to now is       16.1 secs

     total energy              =      81.36053162 Ry
     Harris-Foulkes estimate   =    -226.57992905 Ry
     estimated scf accuracy    <      37.41287106 Ry

     iteration # 90     ecut=    30.00 Ry     beta=0.70
     Davidson diagonalization with overlap
     ethr =  1.00E-02,  avg # of iterations =  8.0

     negative rho (up, down):  2.054E-02 0.000E+00

     total cpu time spent up to now is       16.2 secs

     total energy              =      45.21970053 Ry
     Harris-Foulkes estimate   =    -279.64778289 Ry
     estimated scf accuracy    <      30.57197664 Ry

     iteration # 91     ecut=    30.00 Ry     beta=0.70
     Davidson diagonalization with overlap
     ethr =  1.00E-02,  avg # of iterations =  6.0

     negative rho (up, down):  5.810E-02 0.000E+00

     total cpu time spent up to now is       16.2 secs

     total energy              =     -11.72709360 Ry
     Harris-Foulkes estimate   =    -244.59509283 Ry
     estimated scf accuracy    <      15.40381279 Ry

     iteration # 92     ecut=    30.00 Ry     beta=0.70
     Davidson diagonalization with overlap
     ethr =  1.00E-02,  avg # of iterations =  5.0

     negative rho (up, down):  4.523E-02 0.000E+00

     total cpu time spent up to now is       16.3 secs

     total energy              =      49.72445020 Ry
     Harris-Foulkes estimate   =   -1028.75345420 Ry
     estimated scf accuracy    <      18.69016890 Ry

     iteration # 93     ecut=    30.00 Ry     beta=0.70
     Davidson diagonalization with overlap
     ethr =  1.00E-02,  avg # of iterations =  4.0

     negative rho (up, down):  1.880E-01 0.000E+00

     total cpu time spent up to now is       16.3 secs

     total energy              =       0.88920884 Ry
     Harris-Foulkes estimate   =   -2441.98876990 Ry
     estimated scf accuracy    <      20.73977418 Ry

     iteration # 94     ecut=    30.00 Ry     beta=0.70
     Davidson diagonalization with overlap
     ethr =  1.00E-02,  avg # of iterations =  4.0

     negative rho (up, down):  2.632E-01 0.000E+00

     total cpu time spent up to now is       16.4 secs

     total energy              =      92.36991122 Ry
     Harris-Foulkes estimate   =    -425.74511040 Ry
     estimated scf accuracy    <      31.28628022 Ry

     iteration # 95     ecut=    30.00 Ry     beta=0.70
     Davidson diagonalization with overlap
     ethr =  1.00E-02,  avg # of iterations =  5.0

     negative rho (up, down):  2.943E-01 0.000E+00

     total cpu time spent up to now is       16.4 secs

     total energy              =   -1017.97674539 Ry
     Harris-Foulkes estimate   =    -133.24492887 Ry
     estimated scf accuracy    <      21.37068233 Ry

     iteration # 96     ecut=    30.00 Ry     beta=0.70
     Davidson diagonalization with overlap
     ethr =  1.00E-02,  avg # of iterations =  5.0

     negative rho (up, down):  4.183E-01 0.000E+00

     total cpu time spent up to now is       16.5 secs

     total energy              =       0.48030332 Ry
     Harris-Foulkes estimate   =   -4947.10014931 Ry
     estimated scf accuracy    <      26.16414786 Ry

     iteration # 97     ecut=    30.00 Ry     beta=0.70
     Davidson diagonalization with overlap
     ethr =  1.00E-02,  avg # of iterations =  8.0

     negative rho (up, down):  3.055E-04 0.000E+00

     total cpu time spent up to now is       16.5 secs

     total energy              =     116.73625756 Ry
     Harris-Foulkes estimate   =    -491.86885714 Ry
     estimated scf accuracy    <      28.52879885 Ry

     iteration # 98     ecut=    30.00 Ry     beta=0.70
     Davidson diagonalization with overlap
     ethr =  1.00E-02,  avg # of iterations = 13.0

     negative rho (up, down):  6.246E-03 0.000E+00

     total cpu time spent up to now is       16.6 secs

     total energy              =     -44.78140730 Ry
     Harris-Foulkes estimate   =     -48.66423691 Ry
     estimated scf accuracy    <      29.72180334 Ry

     iteration # 99     ecut=    30.00 Ry     beta=0.70
     Davidson diagonalization with overlap
     ethr =  1.00E-02,  avg # of iterations =  4.0

     negative rho (up, down):  5.897E-02 0.000E+00

     total cpu time spent up to now is       16.6 secs

     total energy              =     -26.05380328 Ry
     Harris-Foulkes estimate   =   -1819.67258446 Ry
     estimated scf accuracy    <      16.90557185 Ry

     iteration #100     ecut=    30.00 Ry     beta=0.70
     Davidson diagonalization with overlap
     ethr =  1.00E-02,  avg # of iterations =  7.0

     negative rho (up, down):  2.032E-01 0.000E+00

     total cpu time spent up to now is       16.7 secs

     total energy              =      37.88946620 Ry
     Harris-Foulkes estimate   =    -753.52982506 Ry
     estimated scf accuracy    <      30.84728713 Ry

     End of self-consistent calculation

     convergence NOT achieved after 100 iterations: stopping

     Writing output data file pwscf.save
 
     init_run     :      0.09s CPU      0.11s WALL (       1 calls)
     electrons    :     11.80s CPU     14.82s WALL (       7 calls)
     update_pot   :      0.70s CPU      1.06s WALL (       6 calls)
     forces       :      0.18s CPU      0.19s WALL (       6 calls)

     Called by init_run:
     wfcinit      :      0.01s CPU      0.02s WALL (       1 calls)
     potinit      :      0.02s CPU      0.03s WALL (       1 calls)

     Called by electrons:
     c_bands      :      5.60s CPU      5.91s WALL (     348 calls)
     sum_band     :      1.02s CPU      1.09s WALL (     348 calls)
     v_of_rho     :      2.53s CPU      2.71s WALL (     355 calls)
     mix_rho      :      2.28s CPU      4.13s WALL (     348 calls)

     Called by c_bands:
     init_us_2    :      0.03s CPU      0.04s WALL (     697 calls)
     cegterg      :      5.52s CPU      5.72s WALL (     348 calls)

     Called by sum_band:

     Called by *egterg:
     h_psi        :      4.65s CPU      4.80s WALL (    1600 calls)
     g_psi        :      0.05s CPU      0.05s WALL (    1251 calls)
     cdiaghg      :      0.31s CPU      0.32s WALL (    1593 calls)

     Called by h_psi:
     h_psi:pot    :      4.62s CPU      4.78s WALL (    1600 calls)
     h_psi:calbec :      0.05s CPU      0.10s WALL (    1600 calls)
     vloc_psi     :      4.55s CPU      4.65s WALL (    1600 calls)
     add_vuspsi   :      0.01s CPU      0.01s WALL (    1600 calls)

     General routines
     calbec       :      0.10s CPU      0.17s WALL (    1629 calls)
     fft          :      1.55s CPU      1.63s WALL (    3917 calls)
     fftw         :      4.75s CPU      4.89s WALL (   21196 calls)
     davcio       :      0.36s CPU      1.55s WALL (    6350 calls)
 
     Parallel routines
     fft_scatter  :      2.30s CPU      2.41s WALL (   25113 calls)
 
     PWSCF        :    13.02s CPU        16.78s WALL

 
   This run was terminated on:   1:38: 5  11Feb2018            

=------------------------------------------------------------------------------=
   JOB DONE.
=------------------------------------------------------------------------------=
