
     Program PWSCF v.6.0 (svn rev. 13079) starts on 11Feb2018 at  1:40:28 

     This program is part of the open-source Quantum ESPRESSO suite
     for quantum simulation of materials; please cite
         "P. Giannozzi et al., J. Phys.:Condens. Matter 21 395502 (2009);
          URL http://www.quantum-espresso.org", 
     in publications or presentations arising from this work. More details at
     http://www.quantum-espresso.org/quote

     Parallel version (MPI), running on    28 processors
     R & G space division:  proc/nbgrp/npool/nimage =      28
     Reading input from inputs/water-1-md/391.in

     Current dimensions of program PWSCF are:
     Max number of different atomic species (ntypx) = 10
     Max number of k-points (npk) =  40000
     Max angular momentum in pseudopotentials (lmaxx) =  3

     Subspace diagonalization in iterative solution of the eigenvalue problem:
     a serial algorithm will be used

 
     Parallelization info
     --------------------
     sticks:   dense  smooth     PW     G-vecs:    dense   smooth      PW
     Min         136     136     33                 6338     6338     787
     Max         137     137     34                 6341     6341     792
     Sum        3809    3809    949               177509   177509   22119
 


     bravais-lattice index     =            1
     lattice parameter (alat)  =      20.0000  a.u.
     unit-cell volume          =    8000.0000 (a.u.)^3
     number of atoms/cell      =            3
     number of atomic types    =            2
     number of electrons       =         8.00
     number of Kohn-Sham states=            8
     kinetic-energy cutoff     =      30.0000  Ry
     charge density cutoff     =     120.0000  Ry
     convergence threshold     =      1.0E-08
     mixing beta               =       0.7000
     number of iterations used =            8  plain     mixing
     Exchange-correlation      = BLYP ( 1  3  1  3 0 0)
     nstep                     =         5000


     celldm(1)=  20.000000  celldm(2)=   0.000000  celldm(3)=   0.000000
     celldm(4)=   0.000000  celldm(5)=   0.000000  celldm(6)=   0.000000

     crystal axes: (cart. coord. in units of alat)
               a(1) = (   1.000000   0.000000   0.000000 )  
               a(2) = (   0.000000   1.000000   0.000000 )  
               a(3) = (   0.000000   0.000000   1.000000 )  

     reciprocal axes: (cart. coord. in units 2 pi/alat)
               b(1) = (  1.000000  0.000000  0.000000 )  
               b(2) = (  0.000000  1.000000  0.000000 )  
               b(3) = (  0.000000  0.000000  1.000000 )  


     PseudoPot. # 1 for  H read from file:
     ./H.blyp-hgh.UPF
     MD5 check sum: c576e69559cde411e611be972c763230
     Pseudo is Norm-conserving, Zval =  1.0
     Generated in analytical, separable form
     Using radial grid of  929 points,  0 beta functions with: 

     PseudoPot. # 2 for  O read from file:
     ./O.blyp-hgh.UPF
     MD5 check sum: d0b7156309aa9befef28faac7bc56342
     Pseudo is Norm-conserving, Zval =  6.0
     Generated in analytical, separable form
     Using radial grid of 1095 points,  1 beta functions with: 
                l(1) =   0

     atomic species   valence    mass     pseudopotential
        H              1.00     1.01000      H( 1.00)
        O              6.00    16.00000      O( 1.00)

     No symmetry found



   Cartesian axes

     site n.     atom                  positions (alat units)
         1           H   tau(   1) = (   0.8786757   0.4452120   0.1358256  )
         2           H   tau(   2) = (   0.3598782   0.6069016   0.3695534  )
         3           O   tau(   3) = (   0.0191047   0.2860439   0.6453788  )

     number of k points=     1  Marzari-Vanderbilt smearing, width (Ry)=  0.0250
                       cart. coord. in units 2pi/alat
        k(    1) = (   0.0000000   0.0000000   0.0000000), wk =   2.0000000

     Dense  grid:   177509 G-vectors     FFT dimensions: (  72,  72,  72)

     Estimated max dynamical RAM per process >       6.09Mb

     Estimated total allocated dynamical RAM >     170.64Mb

     Initial potential from superposition of free atoms
     Check: negative starting charge=   -0.351068

     starting charge    7.99998, renormalised to    8.00000

     negative rho (up, down):  3.511E-01 0.000E+00
     Starting wfc are    6 randomized atomic wfcs +    2 random wfc

     total cpu time spent up to now is        0.2 secs

     per-process dynamical memory:    18.8 Mb

     Self-consistent Calculation

     iteration #  1     ecut=    30.00 Ry     beta=0.70
     Davidson diagonalization with overlap
     ethr =  1.00E-02,  avg # of iterations =  7.0

     negative rho (up, down):  8.388E-02 0.000E+00

     total cpu time spent up to now is        0.3 secs

     total energy              =     -28.09160272 Ry
     Harris-Foulkes estimate   =     -32.07687949 Ry
     estimated scf accuracy    <       4.57863896 Ry

     iteration #  2     ecut=    30.00 Ry     beta=0.70
     Davidson diagonalization with overlap
     ethr =  1.00E-02,  avg # of iterations =  4.0

     negative rho (up, down):  6.144E-02 0.000E+00

     total cpu time spent up to now is        0.3 secs

     total energy              =     -32.64519097 Ry
     Harris-Foulkes estimate   =     -37.92456207 Ry
     estimated scf accuracy    <      12.86835406 Ry

     iteration #  3     ecut=    30.00 Ry     beta=0.70
     Davidson diagonalization with overlap
     ethr =  1.00E-02,  avg # of iterations =  2.0

     negative rho (up, down):  6.337E-02 0.000E+00

     total cpu time spent up to now is        0.4 secs

     total energy              =     -33.18894212 Ry
     Harris-Foulkes estimate   =     -32.98406802 Ry
     estimated scf accuracy    <       4.97776610 Ry

     iteration #  4     ecut=    30.00 Ry     beta=0.70
     Davidson diagonalization with overlap
     ethr =  1.00E-02,  avg # of iterations =  1.0

     negative rho (up, down):  2.482E-02 0.000E+00

     total cpu time spent up to now is        0.4 secs

     total energy              =     -30.18909604 Ry
     Harris-Foulkes estimate   =     -33.18948980 Ry
     estimated scf accuracy    <       5.27929353 Ry

     iteration #  5     ecut=    30.00 Ry     beta=0.70
     Davidson diagonalization with overlap
     ethr =  1.00E-02,  avg # of iterations =  5.0

     negative rho (up, down):  2.309E-02 0.000E+00

     total cpu time spent up to now is        0.4 secs

     total energy              =     -33.30009348 Ry
     Harris-Foulkes estimate   =     -33.33358871 Ry
     estimated scf accuracy    <      13.77799705 Ry

     iteration #  6     ecut=    30.00 Ry     beta=0.70
     Davidson diagonalization with overlap
     ethr =  1.00E-02,  avg # of iterations =  1.0

     negative rho (up, down):  3.722E-02 0.000E+00

     total cpu time spent up to now is        0.5 secs

     total energy              =     -33.23815574 Ry
     Harris-Foulkes estimate   =     -33.30744178 Ry
     estimated scf accuracy    <      13.73080545 Ry

     iteration #  7     ecut=    30.00 Ry     beta=0.70
     Davidson diagonalization with overlap
     ethr =  1.00E-02,  avg # of iterations =  1.0

     negative rho (up, down):  8.207E-02 0.000E+00

     total cpu time spent up to now is        0.5 secs

     total energy              =     -32.55586899 Ry
     Harris-Foulkes estimate   =     -33.24288118 Ry
     estimated scf accuracy    <      13.01432967 Ry

     iteration #  8     ecut=    30.00 Ry     beta=0.70
     Davidson diagonalization with overlap
     ethr =  1.00E-02,  avg # of iterations =  1.0

     negative rho (up, down):  1.317E-02 0.000E+00

     total cpu time spent up to now is        0.5 secs

     total energy              =     -32.50648488 Ry
     Harris-Foulkes estimate   =     -32.73154787 Ry
     estimated scf accuracy    <       5.71618008 Ry

     iteration #  9     ecut=    30.00 Ry     beta=0.70
     Davidson diagonalization with overlap
     ethr =  1.00E-02,  avg # of iterations =  1.0

     negative rho (up, down):  2.531E-02 0.000E+00

     total cpu time spent up to now is        0.6 secs

     total energy              =     -31.61171017 Ry
     Harris-Foulkes estimate   =     -32.51113042 Ry
     estimated scf accuracy    <       5.30450451 Ry

     iteration # 10     ecut=    30.00 Ry     beta=0.70
     Davidson diagonalization with overlap
     ethr =  1.00E-02,  avg # of iterations =  2.0

     negative rho (up, down):  3.472E-02 0.000E+00

     total cpu time spent up to now is        0.6 secs

     total energy              =     -31.58504947 Ry
     Harris-Foulkes estimate   =     -31.63946542 Ry
     estimated scf accuracy    <       3.85537190 Ry

     iteration # 11     ecut=    30.00 Ry     beta=0.70
     Davidson diagonalization with overlap
     ethr =  1.00E-02,  avg # of iterations =  1.0

     negative rho (up, down):  2.840E-02 0.000E+00

     total cpu time spent up to now is        0.6 secs

     total energy              =     -31.51662538 Ry
     Harris-Foulkes estimate   =     -31.58468381 Ry
     estimated scf accuracy    <       4.43336828 Ry

     iteration # 12     ecut=    30.00 Ry     beta=0.70
     Davidson diagonalization with overlap
     ethr =  1.00E-02,  avg # of iterations =  1.0

     negative rho (up, down):  4.070E-02 0.000E+00

     total cpu time spent up to now is        0.7 secs

     total energy              =     -31.04192983 Ry
     Harris-Foulkes estimate   =     -31.51638966 Ry
     estimated scf accuracy    <       3.22867699 Ry

     iteration # 13     ecut=    30.00 Ry     beta=0.70
     Davidson diagonalization with overlap
     ethr =  1.00E-02,  avg # of iterations =  1.0

     negative rho (up, down):  4.121E-02 0.000E+00

     total cpu time spent up to now is        0.7 secs

     total energy              =     -31.28704131 Ry
     Harris-Foulkes estimate   =     -31.86340196 Ry
     estimated scf accuracy    <       3.21294338 Ry

     iteration # 14     ecut=    30.00 Ry     beta=0.70
     Davidson diagonalization with overlap
     ethr =  1.00E-02,  avg # of iterations =  1.0

     negative rho (up, down):  8.236E-04 0.000E+00

     total cpu time spent up to now is        0.7 secs

     total energy              =     -31.70025597 Ry
     Harris-Foulkes estimate   =     -31.65450607 Ry
     estimated scf accuracy    <       3.80559593 Ry

     iteration # 15     ecut=    30.00 Ry     beta=0.70
     Davidson diagonalization with overlap
     ethr =  1.00E-02,  avg # of iterations =  1.0

     total cpu time spent up to now is        0.8 secs

     total energy              =     -31.71505309 Ry
     Harris-Foulkes estimate   =     -31.70094543 Ry
     estimated scf accuracy    <       3.86648991 Ry

     iteration # 16     ecut=    30.00 Ry     beta=0.70
     Davidson diagonalization with overlap
     ethr =  1.00E-02,  avg # of iterations =  1.0

     negative rho (up, down):  1.447E-03 0.000E+00

     total cpu time spent up to now is        0.8 secs

     total energy              =     -31.61658496 Ry
     Harris-Foulkes estimate   =     -31.71519086 Ry
     estimated scf accuracy    <       3.90338495 Ry

     iteration # 17     ecut=    30.00 Ry     beta=0.70
     Davidson diagonalization with overlap
     ethr =  1.00E-02,  avg # of iterations =  1.0

     negative rho (up, down):  2.430E-04 0.000E+00

     total cpu time spent up to now is        0.8 secs

     total energy              =     -31.60567698 Ry
     Harris-Foulkes estimate   =     -31.61636129 Ry
     estimated scf accuracy    <       3.99739727 Ry

     iteration # 18     ecut=    30.00 Ry     beta=0.70
     Davidson diagonalization with overlap
     ethr =  1.00E-02,  avg # of iterations =  1.0

     negative rho (up, down):  2.466E-03 0.000E+00

     total cpu time spent up to now is        0.9 secs

     total energy              =     -31.30414984 Ry
     Harris-Foulkes estimate   =     -31.60561101 Ry
     estimated scf accuracy    <       4.15713679 Ry

     iteration # 19     ecut=    30.00 Ry     beta=0.70
     Davidson diagonalization with overlap
     ethr =  1.00E-02,  avg # of iterations =  1.0

     negative rho (up, down):  3.105E-05 0.000E+00

     total cpu time spent up to now is        0.9 secs

     total energy              =     -31.45513388 Ry
     Harris-Foulkes estimate   =     -31.58575370 Ry
     estimated scf accuracy    <       2.76554882 Ry

     iteration # 20     ecut=    30.00 Ry     beta=0.70
     Davidson diagonalization with overlap
     ethr =  1.00E-02,  avg # of iterations =  1.0

     negative rho (up, down):  9.680E-04 0.000E+00

     total cpu time spent up to now is        1.0 secs

     total energy              =     -31.48748807 Ry
     Harris-Foulkes estimate   =     -31.49365414 Ry
     estimated scf accuracy    <       0.16725769 Ry

     iteration # 21     ecut=    30.00 Ry     beta=0.70
     Davidson diagonalization with overlap
     ethr =  2.09E-03,  avg # of iterations =  1.0

     negative rho (up, down):  2.345E-04 0.000E+00

     total cpu time spent up to now is        1.0 secs

     total energy              =     -31.47749358 Ry
     Harris-Foulkes estimate   =     -31.49133881 Ry
     estimated scf accuracy    <       0.05528927 Ry

     iteration # 22     ecut=    30.00 Ry     beta=0.70
     Davidson diagonalization with overlap
     ethr =  6.91E-04,  avg # of iterations =  1.0

     negative rho (up, down):  2.963E-04 0.000E+00

     total cpu time spent up to now is        1.0 secs

     total energy              =     -31.34860060 Ry
     Harris-Foulkes estimate   =     -31.57257603 Ry
     estimated scf accuracy    <       4.80816584 Ry

     iteration # 23     ecut=    30.00 Ry     beta=0.70
     Davidson diagonalization with overlap
     ethr =  6.91E-04,  avg # of iterations =  1.0

     negative rho (up, down):  1.448E-04 0.000E+00

     total cpu time spent up to now is        1.1 secs

     total energy              =     -31.49512275 Ry
     Harris-Foulkes estimate   =     -31.53304837 Ry
     estimated scf accuracy    <       2.31685703 Ry

     iteration # 24     ecut=    30.00 Ry     beta=0.70
     Davidson diagonalization with overlap
     ethr =  6.91E-04,  avg # of iterations =  1.0

     negative rho (up, down):  1.784E-07 0.000E+00

     total cpu time spent up to now is        1.1 secs

     total energy              =     -31.48784875 Ry
     Harris-Foulkes estimate   =     -31.50131536 Ry
     estimated scf accuracy    <       0.84463750 Ry

     iteration # 25     ecut=    30.00 Ry     beta=0.70
     Davidson diagonalization with overlap
     ethr =  6.91E-04,  avg # of iterations =  1.0

     total cpu time spent up to now is        1.1 secs

     total energy              =     -31.49378686 Ry
     Harris-Foulkes estimate   =     -31.49235226 Ry
     estimated scf accuracy    <       0.11272449 Ry

     iteration # 26     ecut=    30.00 Ry     beta=0.70
     Davidson diagonalization with overlap
     ethr =  6.91E-04,  avg # of iterations =  1.0

     total cpu time spent up to now is        1.2 secs

     total energy              =     -31.49414018 Ry
     Harris-Foulkes estimate   =     -31.49474353 Ry
     estimated scf accuracy    <       0.33914194 Ry

     iteration # 27     ecut=    30.00 Ry     beta=0.70
     Davidson diagonalization with overlap
     ethr =  6.91E-04,  avg # of iterations =  1.0

     total cpu time spent up to now is        1.2 secs

     total energy              =     -31.49629314 Ry
     Harris-Foulkes estimate   =     -31.49417812 Ry
     estimated scf accuracy    <       0.28355676 Ry

     iteration # 28     ecut=    30.00 Ry     beta=0.70
     Davidson diagonalization with overlap
     ethr =  6.91E-04,  avg # of iterations =  1.0

     negative rho (up, down):  7.475E-07 0.000E+00

     total cpu time spent up to now is        1.2 secs

     total energy              =     -31.49356340 Ry
     Harris-Foulkes estimate   =     -31.49665873 Ry
     estimated scf accuracy    <       0.49122074 Ry

     iteration # 29     ecut=    30.00 Ry     beta=0.70
     Davidson diagonalization with overlap
     ethr =  6.91E-04,  avg # of iterations =  1.0

     negative rho (up, down):  2.723E-05 0.000E+00

     total cpu time spent up to now is        1.3 secs

     total energy              =     -31.49659118 Ry
     Harris-Foulkes estimate   =     -31.49393566 Ry
     estimated scf accuracy    <       0.30553804 Ry

     iteration # 30     ecut=    30.00 Ry     beta=0.70
     Davidson diagonalization with overlap
     ethr =  6.91E-04,  avg # of iterations =  1.0

     negative rho (up, down):  3.373E-05 0.000E+00

     total cpu time spent up to now is        1.3 secs

     total energy              =     -31.49733842 Ry
     Harris-Foulkes estimate   =     -31.49726588 Ry
     estimated scf accuracy    <       0.61039660 Ry

     iteration # 31     ecut=    30.00 Ry     beta=0.70
     Davidson diagonalization with overlap
     ethr =  6.91E-04,  avg # of iterations =  1.0

     negative rho (up, down):  1.949E-06 0.000E+00

     total cpu time spent up to now is        1.3 secs

     total energy              =     -31.49182236 Ry
     Harris-Foulkes estimate   =     -31.49743748 Ry
     estimated scf accuracy    <       0.63390503 Ry

     iteration # 32     ecut=    30.00 Ry     beta=0.70
     Davidson diagonalization with overlap
     ethr =  6.91E-04,  avg # of iterations =  1.0

     total cpu time spent up to now is        1.3 secs

     total energy              =     -31.48710985 Ry
     Harris-Foulkes estimate   =     -31.49290680 Ry
     estimated scf accuracy    <       0.22948673 Ry

     iteration # 33     ecut=    30.00 Ry     beta=0.70
     Davidson diagonalization with overlap
     ethr =  6.91E-04,  avg # of iterations =  1.0

     total cpu time spent up to now is        1.4 secs

     total energy              =     -31.49033310 Ry
     Harris-Foulkes estimate   =     -31.49085397 Ry
     estimated scf accuracy    <       0.02402446 Ry

     iteration # 34     ecut=    30.00 Ry     beta=0.70
     Davidson diagonalization with overlap
     ethr =  3.00E-04,  avg # of iterations =  1.0

     negative rho (up, down):  6.944E-08 0.000E+00

     total cpu time spent up to now is        1.4 secs

     total energy              =     -31.49060597 Ry
     Harris-Foulkes estimate   =     -31.49063872 Ry
     estimated scf accuracy    <       0.00157984 Ry

     iteration # 35     ecut=    30.00 Ry     beta=0.70
     Davidson diagonalization with overlap
     ethr =  1.97E-05,  avg # of iterations = 13.0

     negative rho (up, down):  4.264E-07 0.000E+00

     total cpu time spent up to now is        1.5 secs

     total energy              =     -31.49060638 Ry
     Harris-Foulkes estimate   =     -31.49061838 Ry
     estimated scf accuracy    <       0.00032821 Ry

     iteration # 36     ecut=    30.00 Ry     beta=0.70
     Davidson diagonalization with overlap
     ethr =  4.10E-06,  avg # of iterations =  5.0

     negative rho (up, down):  1.885E-08 0.000E+00

     total cpu time spent up to now is        1.5 secs

     total energy              =     -31.49060596 Ry
     Harris-Foulkes estimate   =     -31.49062623 Ry
     estimated scf accuracy    <       0.00056700 Ry

     iteration # 37     ecut=    30.00 Ry     beta=0.70
     Davidson diagonalization with overlap
     ethr =  4.10E-06,  avg # of iterations =  1.0

     total cpu time spent up to now is        1.5 secs

     total energy              =     -31.49061660 Ry
     Harris-Foulkes estimate   =     -31.49061674 Ry
     estimated scf accuracy    <       0.00007473 Ry

     iteration # 38     ecut=    30.00 Ry     beta=0.70
     Davidson diagonalization with overlap
     ethr =  9.34E-07,  avg # of iterations =  1.0

     total cpu time spent up to now is        1.6 secs

     total energy              =     -31.49061701 Ry
     Harris-Foulkes estimate   =     -31.49061681 Ry
     estimated scf accuracy    <       0.00002049 Ry

     iteration # 39     ecut=    30.00 Ry     beta=0.70
     Davidson diagonalization with overlap
     ethr =  2.56E-07,  avg # of iterations =  1.0

     total cpu time spent up to now is        1.6 secs

     total energy              =     -31.49061703 Ry
     Harris-Foulkes estimate   =     -31.49061707 Ry
     estimated scf accuracy    <       0.00000465 Ry

     iteration # 40     ecut=    30.00 Ry     beta=0.70
     Davidson diagonalization with overlap
     ethr =  5.82E-08,  avg # of iterations =  1.0

     total cpu time spent up to now is        1.6 secs

     total energy              =     -31.49061709 Ry
     Harris-Foulkes estimate   =     -31.49061706 Ry
     estimated scf accuracy    <       0.00000024 Ry

     iteration # 41     ecut=    30.00 Ry     beta=0.70
     Davidson diagonalization with overlap
     ethr =  3.06E-09,  avg # of iterations =  1.0

     total cpu time spent up to now is        1.6 secs

     End of self-consistent calculation

          k = 0.0000 0.0000 0.0000 ( 22119 PWs)   bands (ev):

   -23.6075  -7.0206  -7.0196  -7.0194  -6.9219  -6.9062  -0.2327   0.5551

     the Fermi energy is    -6.8849 ev

!    total energy              =     -31.49061715 Ry
     Harris-Foulkes estimate   =     -31.49061709 Ry
     estimated scf accuracy    <          3.7E-10 Ry

     convergence has been achieved in  41 iterations

     Forces acting on atoms (Ry/au):

     atom    1 type  1   force =    -0.00011384    0.00004449   -0.00009854
     atom    2 type  1   force =    -0.00022693    0.00009278    0.00003824
     atom    3 type  2   force =     0.00034077   -0.00013727    0.00006030

     Total force =     0.000474     Total SCF correction =     0.000020

     Molecular Dynamics Calculation

     Starting temperature  =  1000.00 K

     temperature is controlled by Andersen thermostat
     Collision frequency = 1.0000/timestep
     mass H                =     1.01
     mass O                =    16.00
     Time step             =   100.00 a.u.,  4.8378 femto-seconds

     Entering Dynamics:    iteration =     1
                           time      =   0.0048 pico-seconds


     Andersen thermostat:    3 collisions

ATOMIC_POSITIONS (bohr)
H       17.804453756   9.181021821   2.517848926
H        7.202862815  12.367549934   7.202379587
O        0.367181440   5.688917828  12.932027563


     kinetic energy (Ekin) =     0.01319564 Ry
     temperature           =   694.47456190 K 
     Ekin + Etot (const)   =   -31.47742151 Ry

     Linear momentum :   -0.0000000000    0.0000000000   -0.0000000000

     Writing output data file pwscf.save
     Check: negative starting charge=   -0.351068
     NEW-OLD atomic charge density approx. for the potential
     Check: negative starting charge=   -0.351173

     negative rho (up, down):  7.875E-02 0.000E+00

     total cpu time spent up to now is        1.9 secs

     per-process dynamical memory:    20.4 Mb

     Self-consistent Calculation

     iteration #  1     ecut=    30.00 Ry     beta=0.70
     Davidson diagonalization with overlap
     c_bands:  1 eigenvalues not converged
     ethr =  1.00E-06,  avg # of iterations = 20.0

     negative rho (up, down):  1.778E-02 0.000E+00

     total cpu time spent up to now is        2.0 secs

     total energy              =     -31.44721965 Ry
     Harris-Foulkes estimate   =     -31.43002439 Ry
     estimated scf accuracy    <       0.03389152 Ry

     iteration #  2     ecut=    30.00 Ry     beta=0.70
     Davidson diagonalization with overlap
     ethr =  4.24E-04,  avg # of iterations =  2.0

     negative rho (up, down):  1.652E-02 0.000E+00

     total cpu time spent up to now is        2.0 secs

     total energy              =     -31.46680218 Ry
     Harris-Foulkes estimate   =     -31.86555760 Ry
     estimated scf accuracy    <       4.19503260 Ry

     iteration #  3     ecut=    30.00 Ry     beta=0.70
     Davidson diagonalization with overlap
     ethr =  4.24E-04,  avg # of iterations =  2.0

     negative rho (up, down):  1.605E-02 0.000E+00

     total cpu time spent up to now is        2.1 secs

     total energy              =     -31.46295273 Ry
     Harris-Foulkes estimate   =     -31.50751553 Ry
     estimated scf accuracy    <       1.17634301 Ry

     iteration #  4     ecut=    30.00 Ry     beta=0.70
     Davidson diagonalization with overlap
     ethr =  4.24E-04,  avg # of iterations =  1.0

     negative rho (up, down):  5.774E-03 0.000E+00

     total cpu time spent up to now is        2.1 secs

     total energy              =     -31.43905858 Ry
     Harris-Foulkes estimate   =     -31.47900299 Ry
     estimated scf accuracy    <       0.43852322 Ry

     iteration #  5     ecut=    30.00 Ry     beta=0.70
     Davidson diagonalization with overlap
     ethr =  4.24E-04,  avg # of iterations =  1.0

     negative rho (up, down):  2.606E-03 0.000E+00

     total cpu time spent up to now is        2.1 secs

     total energy              =     -31.46010624 Ry
     Harris-Foulkes estimate   =     -31.55944727 Ry
     estimated scf accuracy    <       2.71745360 Ry

     iteration #  6     ecut=    30.00 Ry     beta=0.70
     Davidson diagonalization with overlap
     ethr =  4.24E-04,  avg # of iterations =  1.0

     negative rho (up, down):  5.389E-04 0.000E+00

     total cpu time spent up to now is        2.2 secs

     total energy              =     -31.49037063 Ry
     Harris-Foulkes estimate   =     -31.48901265 Ry
     estimated scf accuracy    <       0.02039342 Ry

     iteration #  7     ecut=    30.00 Ry     beta=0.70
     Davidson diagonalization with overlap
     ethr =  2.55E-04,  avg # of iterations =  4.0

     negative rho (up, down):  2.962E-04 0.000E+00

     total cpu time spent up to now is        2.2 secs

     total energy              =     -31.49056004 Ry
     Harris-Foulkes estimate   =     -31.49066497 Ry
     estimated scf accuracy    <       0.01500829 Ry

     iteration #  8     ecut=    30.00 Ry     beta=0.70
     Davidson diagonalization with overlap
     ethr =  1.88E-04,  avg # of iterations =  1.0

     negative rho (up, down):  8.553E-06 0.000E+00

     total cpu time spent up to now is        2.2 secs

     total energy              =     -31.49050413 Ry
     Harris-Foulkes estimate   =     -31.49059111 Ry
     estimated scf accuracy    <       0.00473201 Ry

     iteration #  9     ecut=    30.00 Ry     beta=0.70
     Davidson diagonalization with overlap
     ethr =  5.92E-05,  avg # of iterations =  1.0

     negative rho (up, down):  2.008E-08 0.000E+00

     total cpu time spent up to now is        2.3 secs

     total energy              =     -31.49056278 Ry
     Harris-Foulkes estimate   =     -31.49058587 Ry
     estimated scf accuracy    <       0.00084225 Ry

     iteration # 10     ecut=    30.00 Ry     beta=0.70
     Davidson diagonalization with overlap
     ethr =  1.05E-05,  avg # of iterations = 12.0

     total cpu time spent up to now is        2.3 secs

     total energy              =     -31.49057806 Ry
     Harris-Foulkes estimate   =     -31.49058067 Ry
     estimated scf accuracy    <       0.00005279 Ry

     iteration # 11     ecut=    30.00 Ry     beta=0.70
     Davidson diagonalization with overlap
     ethr =  6.60E-07,  avg # of iterations =  1.0

     total cpu time spent up to now is        2.3 secs

     total energy              =     -31.49057694 Ry
     Harris-Foulkes estimate   =     -31.49058125 Ry
     estimated scf accuracy    <       0.00015528 Ry

     iteration # 12     ecut=    30.00 Ry     beta=0.70
     Davidson diagonalization with overlap
     ethr =  6.60E-07,  avg # of iterations =  1.0

     total cpu time spent up to now is        2.4 secs

     total energy              =     -31.49057871 Ry
     Harris-Foulkes estimate   =     -31.49058060 Ry
     estimated scf accuracy    <       0.00008110 Ry

     iteration # 13     ecut=    30.00 Ry     beta=0.70
     Davidson diagonalization with overlap
     ethr =  6.60E-07,  avg # of iterations =  1.0

     total cpu time spent up to now is        2.4 secs

     total energy              =     -31.49057964 Ry
     Harris-Foulkes estimate   =     -31.49057958 Ry
     estimated scf accuracy    <       0.00000015 Ry

     iteration # 14     ecut=    30.00 Ry     beta=0.70
     Davidson diagonalization with overlap
     ethr =  1.87E-09,  avg # of iterations =  1.0

     total cpu time spent up to now is        2.4 secs

     total energy              =     -31.49057964 Ry
     Harris-Foulkes estimate   =     -31.49057969 Ry
     estimated scf accuracy    <       0.00000282 Ry

     iteration # 15     ecut=    30.00 Ry     beta=0.70
     Davidson diagonalization with overlap
     ethr =  1.87E-09,  avg # of iterations =  1.0

     total cpu time spent up to now is        2.5 secs

     End of self-consistent calculation

          k = 0.0000 0.0000 0.0000 ( 22119 PWs)   bands (ev):

   -23.6095  -7.0221  -7.0213  -7.0208  -6.9241  -6.9073  -0.2339   0.5579

     the Fermi energy is    -6.8865 ev

!    total energy              =     -31.49057970 Ry
     Harris-Foulkes estimate   =     -31.49057967 Ry
     estimated scf accuracy    <          4.7E-10 Ry

     convergence has been achieved in  15 iterations

     Forces acting on atoms (Ry/au):

     atom    1 type  1   force =    -0.00019652   -0.00020900    0.00010971
     atom    2 type  1   force =    -0.00030425   -0.00014876    0.00027793
     atom    3 type  2   force =     0.00050077    0.00035777   -0.00038764

     Total force =     0.000903     Total SCF correction =     0.000393
     SCF correction compared to forces is large: reduce conv_thr to get better values

     Entering Dynamics:    iteration =     2
                           time      =   0.0097 pico-seconds


     Andersen thermostat:    3 collisions

ATOMIC_POSITIONS (bohr)
H       17.854732667   9.354901301   2.664171433
H        7.262814171  12.212083251   7.381639895
O        0.360223155   5.687755520  12.911475147


     kinetic energy (Ekin) =     0.00848680 Ry
     temperature           =   446.65257512 K 
     Ekin + Etot (const)   =   -31.48209290 Ry
     Message from routine dynamics:
     Total linear momentum <> 0

     Linear momentum :   -0.0482643422    0.4839037204    0.0463385468

     Writing output data file pwscf.save

     first order wave-functions extrapolation
     Check: negative starting charge=   -0.351173
     first order charge density extrapolation
     Check: negative starting charge=   -0.350999

     negative rho (up, down):  1.090E-01 0.000E+00

     total cpu time spent up to now is        2.8 secs

     per-process dynamical memory:    20.4 Mb

     Self-consistent Calculation

     iteration #  1     ecut=    30.00 Ry     beta=0.70
     Davidson diagonalization with overlap
     c_bands:  1 eigenvalues not converged
     ethr =  1.00E-06,  avg # of iterations = 20.0

     negative rho (up, down):  2.518E-02 0.000E+00

     total cpu time spent up to now is        2.9 secs

     total energy              =     -31.40423412 Ry
     Harris-Foulkes estimate   =     -31.41578737 Ry
     estimated scf accuracy    <       0.07886014 Ry

     iteration #  2     ecut=    30.00 Ry     beta=0.70
     Davidson diagonalization with overlap
     ethr =  9.86E-04,  avg # of iterations =  2.0

     negative rho (up, down):  2.256E-02 0.000E+00

     total cpu time spent up to now is        2.9 secs

     total energy              =     -31.48828034 Ry
     Harris-Foulkes estimate   =     -32.10195697 Ry
     estimated scf accuracy    <       4.60802671 Ry

     iteration #  3     ecut=    30.00 Ry     beta=0.70
     Davidson diagonalization with overlap
     ethr =  9.86E-04,  avg # of iterations =  2.0

     negative rho (up, down):  2.154E-02 0.000E+00

     total cpu time spent up to now is        3.0 secs

     total energy              =     -31.47616143 Ry
     Harris-Foulkes estimate   =     -31.53180590 Ry
     estimated scf accuracy    <       0.99807202 Ry

     iteration #  4     ecut=    30.00 Ry     beta=0.70
     Davidson diagonalization with overlap
     ethr =  9.86E-04,  avg # of iterations =  1.0

     negative rho (up, down):  2.031E-02 0.000E+00

     total cpu time spent up to now is        3.0 secs

     total energy              =     -31.40593639 Ry
     Harris-Foulkes estimate   =     -31.49252461 Ry
     estimated scf accuracy    <       2.30882728 Ry

     iteration #  5     ecut=    30.00 Ry     beta=0.70
     Davidson diagonalization with overlap
     ethr =  9.86E-04,  avg # of iterations =  1.0

     negative rho (up, down):  7.476E-03 0.000E+00

     total cpu time spent up to now is        3.1 secs

     total energy              =     -31.48295050 Ry
     Harris-Foulkes estimate   =     -31.49029994 Ry
     estimated scf accuracy    <       1.43282180 Ry

     iteration #  6     ecut=    30.00 Ry     beta=0.70
     Davidson diagonalization with overlap
     ethr =  9.86E-04,  avg # of iterations =  1.0

     negative rho (up, down):  2.044E-03 0.000E+00

     total cpu time spent up to now is        3.1 secs

     total energy              =     -31.48389046 Ry
     Harris-Foulkes estimate   =     -31.48756605 Ry
     estimated scf accuracy    <       0.37208745 Ry

     iteration #  7     ecut=    30.00 Ry     beta=0.70
     Davidson diagonalization with overlap
     ethr =  9.86E-04,  avg # of iterations =  1.0

     negative rho (up, down):  2.115E-04 0.000E+00

     total cpu time spent up to now is        3.1 secs

     total energy              =     -31.48979684 Ry
     Harris-Foulkes estimate   =     -31.48947968 Ry
     estimated scf accuracy    <       0.02006793 Ry

     iteration #  8     ecut=    30.00 Ry     beta=0.70
     Davidson diagonalization with overlap
     ethr =  2.51E-04,  avg # of iterations =  4.0

     negative rho (up, down):  2.912E-06 0.000E+00

     total cpu time spent up to now is        3.2 secs

     total energy              =     -31.49119674 Ry
     Harris-Foulkes estimate   =     -31.49093979 Ry
     estimated scf accuracy    <       0.03847993 Ry

     iteration #  9     ecut=    30.00 Ry     beta=0.70
     Davidson diagonalization with overlap
     ethr =  2.51E-04,  avg # of iterations =  1.0

     negative rho (up, down):  2.099E-07 0.000E+00

     total cpu time spent up to now is        3.3 secs

     total energy              =     -31.49014408 Ry
     Harris-Foulkes estimate   =     -31.49135980 Ry
     estimated scf accuracy    <       0.08175499 Ry

     iteration # 10     ecut=    30.00 Ry     beta=0.70
     Davidson diagonalization with overlap
     ethr =  2.51E-04,  avg # of iterations =  1.0

     total cpu time spent up to now is        3.3 secs

     total energy              =     -31.49047349 Ry
     Harris-Foulkes estimate   =     -31.49061217 Ry
     estimated scf accuracy    <       0.00403162 Ry

     iteration # 11     ecut=    30.00 Ry     beta=0.70
     Davidson diagonalization with overlap
     ethr =  5.04E-05,  avg # of iterations =  1.0

     total cpu time spent up to now is        3.4 secs

     total energy              =     -31.49055594 Ry
     Harris-Foulkes estimate   =     -31.49060866 Ry
     estimated scf accuracy    <       0.00349212 Ry

     iteration # 12     ecut=    30.00 Ry     beta=0.70
     Davidson diagonalization with overlap
     ethr =  4.37E-05,  avg # of iterations =  1.0

     total cpu time spent up to now is        3.4 secs

     total energy              =     -31.49057410 Ry
     Harris-Foulkes estimate   =     -31.49057758 Ry
     estimated scf accuracy    <       0.00013201 Ry

     iteration # 13     ecut=    30.00 Ry     beta=0.70
     Davidson diagonalization with overlap
     ethr =  1.65E-06,  avg # of iterations = 14.0

     total cpu time spent up to now is        3.5 secs

     total energy              =     -31.49057509 Ry
     Harris-Foulkes estimate   =     -31.49057568 Ry
     estimated scf accuracy    <       0.00000021 Ry

     iteration # 14     ecut=    30.00 Ry     beta=0.70
     Davidson diagonalization with overlap
     ethr =  2.62E-09,  avg # of iterations =  1.0

     total cpu time spent up to now is        3.6 secs

     total energy              =     -31.49057508 Ry
     Harris-Foulkes estimate   =     -31.49057511 Ry
     estimated scf accuracy    <       0.00000085 Ry

     iteration # 15     ecut=    30.00 Ry     beta=0.70
     Davidson diagonalization with overlap
     ethr =  2.62E-09,  avg # of iterations =  1.0

     total cpu time spent up to now is        3.6 secs

     total energy              =     -31.49057519 Ry
     Harris-Foulkes estimate   =     -31.49057509 Ry
     estimated scf accuracy    <       0.00000002 Ry

     iteration # 16     ecut=    30.00 Ry     beta=0.70
     Davidson diagonalization with overlap
     ethr =  2.90E-10,  avg # of iterations =  1.0

     total cpu time spent up to now is        3.6 secs

     End of self-consistent calculation

          k = 0.0000 0.0000 0.0000 ( 22119 PWs)   bands (ev):

   -23.6102  -7.0229  -7.0219  -7.0215  -6.9252  -6.9076  -0.2336   0.5541

     the Fermi energy is    -6.8872 ev

!    total energy              =     -31.49057507 Ry
     Harris-Foulkes estimate   =     -31.49057519 Ry
     estimated scf accuracy    <          1.8E-09 Ry

     convergence has been achieved in  16 iterations

     Forces acting on atoms (Ry/au):

     atom    1 type  1   force =    -0.00019350   -0.00017605    0.00001737
     atom    2 type  1   force =    -0.00030140   -0.00011633    0.00015403
     atom    3 type  2   force =     0.00049490    0.00029237   -0.00017141

     Total force =     0.000746     Total SCF correction =     0.000335
     SCF correction compared to forces is large: reduce conv_thr to get better values

     Entering Dynamics:    iteration =     3
                           time      =   0.0145 pico-seconds


     Andersen thermostat:    3 collisions

ATOMIC_POSITIONS (bohr)
H       18.074243225   9.070269788   2.752807853
H        7.402897187  12.283376633   7.722263329
O        0.337523810   5.701222490  12.884378119


     kinetic energy (Ekin) =     0.01667696 Ry
     temperature           =   877.69337907 K 
     Ekin + Etot (const)   =   -31.47389811 Ry
     Message from routine dynamics:
     Total linear momentum <> 0

     Linear momentum :    0.3047675616   -0.3500624036   -0.1369358232

     Writing output data file pwscf.save

     second order wave-functions extrapolation
     Check: negative starting charge=   -0.350999
     second order charge density extrapolation
     Check: negative starting charge=   -0.349958

     negative rho (up, down):  6.658E-02 0.000E+00

     total cpu time spent up to now is        4.0 secs

     per-process dynamical memory:    20.4 Mb

     Self-consistent Calculation

     iteration #  1     ecut=    30.00 Ry     beta=0.70
     Davidson diagonalization with overlap
     c_bands:  1 eigenvalues not converged
     ethr =  1.00E-06,  avg # of iterations = 20.0

     negative rho (up, down):  1.500E-02 0.000E+00

     total cpu time spent up to now is        4.1 secs

     total energy              =     -31.43381742 Ry
     Harris-Foulkes estimate   =     -31.43453796 Ry
     estimated scf accuracy    <       0.05290401 Ry

     iteration #  2     ecut=    30.00 Ry     beta=0.70
     Davidson diagonalization with overlap
     ethr =  6.61E-04,  avg # of iterations =  2.0

     negative rho (up, down):  1.368E-02 0.000E+00

     total cpu time spent up to now is        4.1 secs

     total energy              =     -31.48947182 Ry
     Harris-Foulkes estimate   =     -32.00883919 Ry
     estimated scf accuracy    <       4.42298318 Ry

     iteration #  3     ecut=    30.00 Ry     beta=0.70
     Davidson diagonalization with overlap
     ethr =  6.61E-04,  avg # of iterations =  2.0

     negative rho (up, down):  1.348E-02 0.000E+00

     total cpu time spent up to now is        4.3 secs

     total energy              =     -31.48317356 Ry
     Harris-Foulkes estimate   =     -31.49667520 Ry
     estimated scf accuracy    <       1.69700771 Ry

     iteration #  4     ecut=    30.00 Ry     beta=0.70
     Davidson diagonalization with overlap
     ethr =  6.61E-04,  avg # of iterations =  1.0

     negative rho (up, down):  9.683E-03 0.000E+00

     total cpu time spent up to now is        4.3 secs

     total energy              =     -31.41121954 Ry
     Harris-Foulkes estimate   =     -31.48686455 Ry
     estimated scf accuracy    <       1.01816734 Ry

     iteration #  5     ecut=    30.00 Ry     beta=0.70
     Davidson diagonalization with overlap
     ethr =  6.61E-04,  avg # of iterations =  1.0

     negative rho (up, down):  2.811E-03 0.000E+00

     total cpu time spent up to now is        4.3 secs

     total energy              =     -31.45434765 Ry
     Harris-Foulkes estimate   =     -31.55185750 Ry
     estimated scf accuracy    <       2.73124908 Ry

     iteration #  6     ecut=    30.00 Ry     beta=0.70
     Davidson diagonalization with overlap
     ethr =  6.61E-04,  avg # of iterations =  1.0

     negative rho (up, down):  6.567E-04 0.000E+00

     total cpu time spent up to now is        4.4 secs

     total energy              =     -31.49003846 Ry
     Harris-Foulkes estimate   =     -31.48863046 Ry
     estimated scf accuracy    <       0.00670104 Ry

     iteration #  7     ecut=    30.00 Ry     beta=0.70
     Davidson diagonalization with overlap
     ethr =  8.38E-05,  avg # of iterations =  9.0

     negative rho (up, down):  3.828E-04 0.000E+00

     total cpu time spent up to now is        4.4 secs

     total energy              =     -31.49170933 Ry
     Harris-Foulkes estimate   =     -31.49120938 Ry
     estimated scf accuracy    <       0.06940916 Ry

     iteration #  8     ecut=    30.00 Ry     beta=0.70
     Davidson diagonalization with overlap
     ethr =  8.38E-05,  avg # of iterations =  1.0

     negative rho (up, down):  2.456E-06 0.000E+00

     total cpu time spent up to now is        4.4 secs

     total energy              =     -31.48990904 Ry
     Harris-Foulkes estimate   =     -31.49179278 Ry
     estimated scf accuracy    <       0.12469970 Ry

     iteration #  9     ecut=    30.00 Ry     beta=0.70
     Davidson diagonalization with overlap
     ethr =  8.38E-05,  avg # of iterations =  1.0

     total cpu time spent up to now is        4.5 secs

     total energy              =     -31.49026159 Ry
     Harris-Foulkes estimate   =     -31.49065717 Ry
     estimated scf accuracy    <       0.00565805 Ry

     iteration # 10     ecut=    30.00 Ry     beta=0.70
     Davidson diagonalization with overlap
     ethr =  7.07E-05,  avg # of iterations =  1.0

     total cpu time spent up to now is        4.5 secs

     total energy              =     -31.49071208 Ry
     Harris-Foulkes estimate   =     -31.49104013 Ry
     estimated scf accuracy    <       0.04747600 Ry

     iteration # 11     ecut=    30.00 Ry     beta=0.70
     Davidson diagonalization with overlap
     ethr =  7.07E-05,  avg # of iterations =  1.0

     total cpu time spent up to now is        4.6 secs

     total energy              =     -31.49037896 Ry
     Harris-Foulkes estimate   =     -31.49077325 Ry
     estimated scf accuracy    <       0.01852463 Ry

     iteration # 12     ecut=    30.00 Ry     beta=0.70
     Davidson diagonalization with overlap
     ethr =  7.07E-05,  avg # of iterations =  1.0

     total cpu time spent up to now is        4.7 secs

     total energy              =     -31.49060662 Ry
     Harris-Foulkes estimate   =     -31.49060618 Ry
     estimated scf accuracy    <       0.00043901 Ry

     iteration # 13     ecut=    30.00 Ry     beta=0.70
     Davidson diagonalization with overlap
     ethr =  5.49E-06,  avg # of iterations =  9.0

     total cpu time spent up to now is        4.7 secs

     total energy              =     -31.49059990 Ry
     Harris-Foulkes estimate   =     -31.49060666 Ry
     estimated scf accuracy    <       0.00044851 Ry

     iteration # 14     ecut=    30.00 Ry     beta=0.70
     Davidson diagonalization with overlap
     ethr =  5.49E-06,  avg # of iterations =  1.0

     total cpu time spent up to now is        4.7 secs

     total energy              =     -31.49060231 Ry
     Harris-Foulkes estimate   =     -31.49060266 Ry
     estimated scf accuracy    <       0.00001557 Ry

     iteration # 15     ecut=    30.00 Ry     beta=0.70
     Davidson diagonalization with overlap
     ethr =  1.95E-07,  avg # of iterations =  1.0

     total cpu time spent up to now is        4.8 secs

     total energy              =     -31.49060244 Ry
     Harris-Foulkes estimate   =     -31.49060241 Ry
     estimated scf accuracy    <       0.00000042 Ry

     iteration # 16     ecut=    30.00 Ry     beta=0.70
     Davidson diagonalization with overlap
     ethr =  5.25E-09,  avg # of iterations =  1.0

     total cpu time spent up to now is        4.8 secs

     total energy              =     -31.49060245 Ry
     Harris-Foulkes estimate   =     -31.49060244 Ry
     estimated scf accuracy    <       0.00000001 Ry

     iteration # 17     ecut=    30.00 Ry     beta=0.70
     Davidson diagonalization with overlap
     ethr =  1.84E-10,  avg # of iterations =  1.0

     total cpu time spent up to now is        4.8 secs

     End of self-consistent calculation

          k = 0.0000 0.0000 0.0000 ( 22119 PWs)   bands (ev):

   -23.6060  -7.0192  -7.0183  -7.0178  -6.9205  -6.9049  -0.2328   0.5688

     the Fermi energy is    -6.8835 ev

!    total energy              =     -31.49060243 Ry
     Harris-Foulkes estimate   =     -31.49060245 Ry
     estimated scf accuracy    <          1.4E-10 Ry

     convergence has been achieved in  17 iterations

     Forces acting on atoms (Ry/au):

     atom    1 type  1   force =    -0.00017058   -0.00007519   -0.00021619
     atom    2 type  1   force =    -0.00026404   -0.00000039   -0.00008507
     atom    3 type  2   force =     0.00043462    0.00007558    0.00030126

     Total force =     0.000666     Total SCF correction =     0.000112
     SCF correction compared to forces is large: reduce conv_thr to get better values

     Entering Dynamics:    iteration =     4
                           time      =   0.0194 pico-seconds


     Andersen thermostat:    3 collisions

ATOMIC_POSITIONS (bohr)
H       18.060807554   8.933317141   2.659514625
H        7.203191748  11.948552848   7.525838616
O        0.350978343   5.731003377  12.902666564


     kinetic energy (Ekin) =     0.01986971 Ry
     temperature           =  1045.72526446 K 
     Ekin + Etot (const)   =   -31.47073272 Ry
     Message from routine dynamics:
     Total linear momentum <> 0

     Linear momentum :    0.6585480540    0.4524520681   -0.2987964083

     Writing output data file pwscf.save

     second order wave-functions extrapolation
     Check: negative starting charge=   -0.349958
     second order charge density extrapolation
     Check: negative starting charge=   -0.349828

     negative rho (up, down):  6.138E-02 0.000E+00

     total cpu time spent up to now is        5.1 secs

     per-process dynamical memory:    20.4 Mb

     Self-consistent Calculation

     iteration #  1     ecut=    30.00 Ry     beta=0.70
     Davidson diagonalization with overlap
     c_bands:  1 eigenvalues not converged
     ethr =  1.00E-06,  avg # of iterations = 20.0

     negative rho (up, down):  1.401E-02 0.000E+00

     total cpu time spent up to now is        5.2 secs

     total energy              =     -31.45894067 Ry
     Harris-Foulkes estimate   =     -31.44006728 Ry
     estimated scf accuracy    <       0.02373097 Ry

     iteration #  2     ecut=    30.00 Ry     beta=0.70
     Davidson diagonalization with overlap
     ethr =  2.97E-04,  avg # of iterations =  2.0

     negative rho (up, down):  1.319E-02 0.000E+00

     total cpu time spent up to now is        5.3 secs

     total energy              =     -31.46253454 Ry
     Harris-Foulkes estimate   =     -31.79141729 Ry
     estimated scf accuracy    <       4.05201871 Ry

     iteration #  3     ecut=    30.00 Ry     beta=0.70
     Davidson diagonalization with overlap
     ethr =  2.97E-04,  avg # of iterations =  2.0

     negative rho (up, down):  1.281E-02 0.000E+00

     total cpu time spent up to now is        5.3 secs

     total energy              =     -31.46329342 Ry
     Harris-Foulkes estimate   =     -31.51044778 Ry
     estimated scf accuracy    <       1.17116627 Ry

     iteration #  4     ecut=    30.00 Ry     beta=0.70
     Davidson diagonalization with overlap
     ethr =  2.97E-04,  avg # of iterations =  1.0

     negative rho (up, down):  3.196E-03 0.000E+00

     total cpu time spent up to now is        5.3 secs

     total energy              =     -31.47217143 Ry
     Harris-Foulkes estimate   =     -31.48004406 Ry
     estimated scf accuracy    <       0.17657239 Ry

     iteration #  5     ecut=    30.00 Ry     beta=0.70
     Davidson diagonalization with overlap
     ethr =  2.97E-04,  avg # of iterations =  3.0

     negative rho (up, down):  1.838E-03 0.000E+00

     total cpu time spent up to now is        5.4 secs

     total energy              =     -31.46929072 Ry
     Harris-Foulkes estimate   =     -31.51407621 Ry
     estimated scf accuracy    <       1.64058448 Ry

     iteration #  6     ecut=    30.00 Ry     beta=0.70
     Davidson diagonalization with overlap
     ethr =  2.97E-04,  avg # of iterations =  1.0

     negative rho (up, down):  8.124E-05 0.000E+00

     total cpu time spent up to now is        5.4 secs

     total energy              =     -31.49033379 Ry
     Harris-Foulkes estimate   =     -31.48979628 Ry
     estimated scf accuracy    <       0.01487591 Ry

     iteration #  7     ecut=    30.00 Ry     beta=0.70
     Davidson diagonalization with overlap
     ethr =  1.86E-04,  avg # of iterations =  4.0

     negative rho (up, down):  3.148E-05 0.000E+00

     total cpu time spent up to now is        5.4 secs

     total energy              =     -31.49062778 Ry
     Harris-Foulkes estimate   =     -31.49062248 Ry
     estimated scf accuracy    <       0.00219715 Ry

     iteration #  8     ecut=    30.00 Ry     beta=0.70
     Davidson diagonalization with overlap
     ethr =  2.75E-05,  avg # of iterations = 10.0

     negative rho (up, down):  2.687E-05 0.000E+00

     total cpu time spent up to now is        5.5 secs

     total energy              =     -31.49062875 Ry
     Harris-Foulkes estimate   =     -31.49062935 Ry
     estimated scf accuracy    <       0.00189620 Ry

     iteration #  9     ecut=    30.00 Ry     beta=0.70
     Davidson diagonalization with overlap
     ethr =  2.37E-05,  avg # of iterations =  1.0

     total cpu time spent up to now is        5.5 secs

     total energy              =     -31.49061591 Ry
     Harris-Foulkes estimate   =     -31.49062937 Ry
     estimated scf accuracy    <       0.00174485 Ry

     iteration # 10     ecut=    30.00 Ry     beta=0.70
     Davidson diagonalization with overlap
     ethr =  2.18E-05,  avg # of iterations =  1.0

     total cpu time spent up to now is        5.5 secs

     total energy              =     -31.49063077 Ry
     Harris-Foulkes estimate   =     -31.49063164 Ry
     estimated scf accuracy    <       0.00005007 Ry

     iteration # 11     ecut=    30.00 Ry     beta=0.70
     Davidson diagonalization with overlap
     ethr =  6.26E-07,  avg # of iterations =  5.0

     total cpu time spent up to now is        5.6 secs

     total energy              =     -31.49063035 Ry
     Harris-Foulkes estimate   =     -31.49063370 Ry
     estimated scf accuracy    <       0.00017719 Ry

     iteration # 12     ecut=    30.00 Ry     beta=0.70
     Davidson diagonalization with overlap
     ethr =  6.26E-07,  avg # of iterations =  1.0

     total cpu time spent up to now is        5.6 secs

     total energy              =     -31.49063267 Ry
     Harris-Foulkes estimate   =     -31.49063239 Ry
     estimated scf accuracy    <       0.00000514 Ry

     iteration # 13     ecut=    30.00 Ry     beta=0.70
     Davidson diagonalization with overlap
     ethr =  6.42E-08,  avg # of iterations =  1.0

     total cpu time spent up to now is        5.6 secs

     total energy              =     -31.49063201 Ry
     Harris-Foulkes estimate   =     -31.49063293 Ry
     estimated scf accuracy    <       0.00003789 Ry

     iteration # 14     ecut=    30.00 Ry     beta=0.70
     Davidson diagonalization with overlap
     ethr =  6.42E-08,  avg # of iterations =  1.0

     total cpu time spent up to now is        5.7 secs

     total energy              =     -31.49063259 Ry
     Harris-Foulkes estimate   =     -31.49063263 Ry
     estimated scf accuracy    <       0.00000184 Ry

     iteration # 15     ecut=    30.00 Ry     beta=0.70
     Davidson diagonalization with overlap
     ethr =  2.30E-08,  avg # of iterations =  1.0

     total cpu time spent up to now is        5.7 secs

     End of self-consistent calculation

          k = 0.0000 0.0000 0.0000 ( 22119 PWs)   bands (ev):

   -23.6062  -7.0198  -7.0187  -7.0183  -6.9218  -6.9043  -0.2304   0.5653

     the Fermi energy is    -6.8839 ev

!    total energy              =     -31.49063265 Ry
     Harris-Foulkes estimate   =     -31.49063261 Ry
     estimated scf accuracy    <          3.0E-10 Ry

     convergence has been achieved in  15 iterations

     Forces acting on atoms (Ry/au):

     atom    1 type  1   force =    -0.00017493    0.00014800   -0.00015045
     atom    2 type  1   force =    -0.00027897    0.00018961    0.00001739
     atom    3 type  2   force =     0.00045390   -0.00033760    0.00013306

     Total force =     0.000726     Total SCF correction =     0.000140
     SCF correction compared to forces is large: reduce conv_thr to get better values

     Entering Dynamics:    iteration =     5
                           time      =   0.0242 pico-seconds


     Andersen thermostat:    3 collisions

ATOMIC_POSITIONS (bohr)
H       17.875596732   9.228320133   2.962802190
H        6.665507160  12.166097894   7.247443162
O        0.396611116   5.698648782  12.901095250


     kinetic energy (Ekin) =     0.03213494 Ry
     temperature           =  1691.23317731 K 
     Ekin + Etot (const)   =   -31.45849772 Ry
     Message from routine dynamics:
     Total linear momentum <> 0

     Linear momentum :    0.2555715914    0.0401351917   -0.1541686132

     Writing output data file pwscf.save

     second order wave-functions extrapolation
     Check: negative starting charge=   -0.349828
     second order charge density extrapolation
     Check: negative starting charge=   -0.351474

     negative rho (up, down):  6.990E-02 0.000E+00

     total cpu time spent up to now is        6.0 secs

     per-process dynamical memory:    20.4 Mb

     Self-consistent Calculation

     iteration #  1     ecut=    30.00 Ry     beta=0.70
     Davidson diagonalization with overlap
     c_bands:  1 eigenvalues not converged
     ethr =  1.00E-06,  avg # of iterations = 20.0

     negative rho (up, down):  1.570E-02 0.000E+00

     total cpu time spent up to now is        6.1 secs

     total energy              =     -31.45864203 Ry
     Harris-Foulkes estimate   =     -31.43670520 Ry
     estimated scf accuracy    <       0.02326833 Ry

     iteration #  2     ecut=    30.00 Ry     beta=0.70
     Davidson diagonalization with overlap
     ethr =  2.91E-04,  avg # of iterations =  2.0

     negative rho (up, down):  1.405E-02 0.000E+00

     total cpu time spent up to now is        6.2 secs

     total energy              =     -31.47967327 Ry
     Harris-Foulkes estimate   =     -31.62179171 Ry
     estimated scf accuracy    <       1.08792817 Ry

     iteration #  3     ecut=    30.00 Ry     beta=0.70
     Davidson diagonalization with overlap
     ethr =  2.91E-04,  avg # of iterations =  2.0

     negative rho (up, down):  1.307E-02 0.000E+00

     total cpu time spent up to now is        6.2 secs

     total energy              =     -31.47632153 Ry
     Harris-Foulkes estimate   =     -31.48129449 Ry
     estimated scf accuracy    <       0.25785858 Ry

     iteration #  4     ecut=    30.00 Ry     beta=0.70
     Davidson diagonalization with overlap
     ethr =  2.91E-04,  avg # of iterations =  1.0

     negative rho (up, down):  5.725E-03 0.000E+00

     total cpu time spent up to now is        6.2 secs

     total energy              =     -31.45667972 Ry
     Harris-Foulkes estimate   =     -31.48093648 Ry
     estimated scf accuracy    <       0.35712748 Ry

     iteration #  5     ecut=    30.00 Ry     beta=0.70
     Davidson diagonalization with overlap
     ethr =  2.91E-04,  avg # of iterations =  1.0

     negative rho (up, down):  2.132E-03 0.000E+00

     total cpu time spent up to now is        6.2 secs

     total energy              =     -31.50065363 Ry
     Harris-Foulkes estimate   =     -31.53018358 Ry
     estimated scf accuracy    <       0.76461222 Ry

     iteration #  6     ecut=    30.00 Ry     beta=0.70
     Davidson diagonalization with overlap
     ethr =  2.91E-04,  avg # of iterations =  3.0

     negative rho (up, down):  1.108E-03 0.000E+00

     total cpu time spent up to now is        6.3 secs

     total energy              =     -31.48021424 Ry
     Harris-Foulkes estimate   =     -31.50167963 Ry
     estimated scf accuracy    <       0.52416382 Ry

     iteration #  7     ecut=    30.00 Ry     beta=0.70
     Davidson diagonalization with overlap
     ethr =  2.91E-04,  avg # of iterations =  1.0

     negative rho (up, down):  2.586E-04 0.000E+00

     total cpu time spent up to now is        6.3 secs

     total energy              =     -31.49072826 Ry
     Harris-Foulkes estimate   =     -31.49036168 Ry
     estimated scf accuracy    <       0.00696590 Ry

     iteration #  8     ecut=    30.00 Ry     beta=0.70
     Davidson diagonalization with overlap
     ethr =  8.71E-05,  avg # of iterations =  9.0

     negative rho (up, down):  2.834E-06 0.000E+00

     total cpu time spent up to now is        6.4 secs

     total energy              =     -31.49040436 Ry
     Harris-Foulkes estimate   =     -31.49075233 Ry
     estimated scf accuracy    <       0.01323288 Ry

     iteration #  9     ecut=    30.00 Ry     beta=0.70
     Davidson diagonalization with overlap
     ethr =  8.71E-05,  avg # of iterations =  1.0

     negative rho (up, down):  7.606E-07 0.000E+00

     total cpu time spent up to now is        6.4 secs

     total energy              =     -31.49060866 Ry
     Harris-Foulkes estimate   =     -31.49059749 Ry
     estimated scf accuracy    <       0.00002887 Ry

     iteration # 10     ecut=    30.00 Ry     beta=0.70
     Davidson diagonalization with overlap
     ethr =  3.61E-07,  avg # of iterations = 13.0

     negative rho (up, down):  3.700E-07 0.000E+00

     total cpu time spent up to now is        6.4 secs

     total energy              =     -31.49014628 Ry
     Harris-Foulkes estimate   =     -31.49065990 Ry
     estimated scf accuracy    <       0.00439191 Ry

     iteration # 11     ecut=    30.00 Ry     beta=0.70
     Davidson diagonalization with overlap
     ethr =  3.61E-07,  avg # of iterations =  2.0

     total cpu time spent up to now is        6.5 secs

     total energy              =     -31.48960713 Ry
     Harris-Foulkes estimate   =     -31.49135307 Ry
     estimated scf accuracy    <       0.05681152 Ry

     iteration # 12     ecut=    30.00 Ry     beta=0.70
     Davidson diagonalization with overlap
     ethr =  3.61E-07,  avg # of iterations =  2.0

     total cpu time spent up to now is        6.5 secs

     total energy              =     -31.49059118 Ry
     Harris-Foulkes estimate   =     -31.49062386 Ry
     estimated scf accuracy    <       0.00149568 Ry

     iteration # 13     ecut=    30.00 Ry     beta=0.70
     Davidson diagonalization with overlap
     ethr =  3.61E-07,  avg # of iterations =  1.0

     total cpu time spent up to now is        6.5 secs

     total energy              =     -31.49060417 Ry
     Harris-Foulkes estimate   =     -31.49060416 Ry
     estimated scf accuracy    <       0.00006037 Ry

     iteration # 14     ecut=    30.00 Ry     beta=0.70
     Davidson diagonalization with overlap
     ethr =  3.61E-07,  avg # of iterations =  1.0

     total cpu time spent up to now is        6.6 secs

     total energy              =     -31.49060270 Ry
     Harris-Foulkes estimate   =     -31.49060418 Ry
     estimated scf accuracy    <       0.00005983 Ry

     iteration # 15     ecut=    30.00 Ry     beta=0.70
     Davidson diagonalization with overlap
     ethr =  3.61E-07,  avg # of iterations =  1.0

     total cpu time spent up to now is        6.6 secs

     total energy              =     -31.49060339 Ry
     Harris-Foulkes estimate   =     -31.49060336 Ry
     estimated scf accuracy    <       0.00000064 Ry

     iteration # 16     ecut=    30.00 Ry     beta=0.70
     Davidson diagonalization with overlap
     ethr =  8.02E-09,  avg # of iterations =  1.0

     total cpu time spent up to now is        6.6 secs

     total energy              =     -31.49060339 Ry
     Harris-Foulkes estimate   =     -31.49060339 Ry
     estimated scf accuracy    <       0.00000035 Ry

     iteration # 17     ecut=    30.00 Ry     beta=0.70
     Davidson diagonalization with overlap
     ethr =  4.33E-09,  avg # of iterations =  1.0

     total cpu time spent up to now is        6.7 secs

     total energy              =     -31.49060337 Ry
     Harris-Foulkes estimate   =     -31.49060340 Ry
     estimated scf accuracy    <       0.00000002 Ry

     iteration # 18     ecut=    30.00 Ry     beta=0.70
     Davidson diagonalization with overlap
     ethr =  2.60E-10,  avg # of iterations =  1.0

     total cpu time spent up to now is        6.7 secs

     End of self-consistent calculation

          k = 0.0000 0.0000 0.0000 ( 22119 PWs)   bands (ev):

   -23.6121  -7.0249  -7.0239  -7.0237  -6.9304  -6.9065  -0.2299   0.5535

     the Fermi energy is    -6.8893 ev

!    total energy              =     -31.49060333 Ry
     Harris-Foulkes estimate   =     -31.49060338 Ry
     estimated scf accuracy    <          7.2E-10 Ry

     convergence has been achieved in  18 iterations

     Forces acting on atoms (Ry/au):

     atom    1 type  1   force =    -0.00013976   -0.00003009   -0.00001904
     atom    2 type  1   force =    -0.00025854   -0.00001362    0.00011864
     atom    3 type  2   force =     0.00039831    0.00004371   -0.00009960

     Total force =     0.000522     Total SCF correction =     0.000370
     SCF correction compared to forces is large: reduce conv_thr to get better values

     Entering Dynamics:    iteration =     6
                           time      =   0.0290 pico-seconds


     Andersen thermostat:    3 collisions

ATOMIC_POSITIONS (bohr)
H       17.848633328   8.640674619   2.844211867
H        6.295918888  11.948844300   7.599132192
O        0.421643440   5.749458038  12.886380894


     kinetic energy (Ekin) =     0.03376359 Ry
     temperature           =  1776.94788548 K 
     Ekin + Etot (const)   =   -31.45683974 Ry
     Message from routine dynamics:
     Total linear momentum <> 0

     Linear momentum :    0.0271839412   -0.0722010692   -0.2133873842

     Writing output data file pwscf.save

     second order wave-functions extrapolation
     Check: negative starting charge=   -0.351474
     second order charge density extrapolation
     Check: negative starting charge=   -0.349793

     negative rho (up, down):  8.582E-02 0.000E+00

     total cpu time spent up to now is        7.0 secs

     per-process dynamical memory:    20.4 Mb

     Self-consistent Calculation

     iteration #  1     ecut=    30.00 Ry     beta=0.70
     Davidson diagonalization with overlap
     c_bands:  1 eigenvalues not converged
     ethr =  1.00E-06,  avg # of iterations = 20.0

     negative rho (up, down):  2.039E-02 0.000E+00

     total cpu time spent up to now is        7.1 secs

     total energy              =     -30.28814808 Ry
     Harris-Foulkes estimate   =     -31.74902041 Ry
     estimated scf accuracy    <       1.06914263 Ry

     iteration #  2     ecut=    30.00 Ry     beta=0.70
     Davidson diagonalization with overlap
     ethr =  1.00E-02,  avg # of iterations =  3.0

     negative rho (up, down):  1.613E-02 0.000E+00

     total cpu time spent up to now is        7.1 secs

     total energy              =     -31.47018734 Ry
     Harris-Foulkes estimate   =     -33.26836348 Ry
     estimated scf accuracy    <       5.54176113 Ry

     iteration #  3     ecut=    30.00 Ry     beta=0.70
     Davidson diagonalization with overlap
     ethr =  1.00E-02,  avg # of iterations =  2.0

     negative rho (up, down):  1.336E-02 0.000E+00

     total cpu time spent up to now is        7.2 secs

     total energy              =     -31.77418394 Ry
     Harris-Foulkes estimate   =     -32.30652250 Ry
     estimated scf accuracy    <       2.22292068 Ry

     iteration #  4     ecut=    30.00 Ry     beta=0.70
     Davidson diagonalization with overlap
     ethr =  1.00E-02,  avg # of iterations =  1.0

     negative rho (up, down):  1.288E-02 0.000E+00

     total cpu time spent up to now is        7.2 secs

     total energy              =     -31.71012030 Ry
     Harris-Foulkes estimate   =     -31.78643333 Ry
     estimated scf accuracy    <       1.63118605 Ry

     iteration #  5     ecut=    30.00 Ry     beta=0.70
     Davidson diagonalization with overlap
     ethr =  1.00E-02,  avg # of iterations =  3.0

     negative rho (up, down):  9.413E-03 0.000E+00

     total cpu time spent up to now is        7.2 secs

     total energy              =     -31.51065474 Ry
     Harris-Foulkes estimate   =     -31.73660775 Ry
     estimated scf accuracy    <       1.45017067 Ry

     iteration #  6     ecut=    30.00 Ry     beta=0.70
     Davidson diagonalization with overlap
     ethr =  1.00E-02,  avg # of iterations =  1.0

     negative rho (up, down):  3.608E-03 0.000E+00

     total cpu time spent up to now is        7.3 secs

     total energy              =     -31.43981065 Ry
     Harris-Foulkes estimate   =     -31.54957260 Ry
     estimated scf accuracy    <       2.26834696 Ry

     iteration #  7     ecut=    30.00 Ry     beta=0.70
     Davidson diagonalization with overlap
     ethr =  1.00E-02,  avg # of iterations =  1.0

     negative rho (up, down):  4.208E-03 0.000E+00

     total cpu time spent up to now is        7.3 secs

     total energy              =     -31.79583585 Ry
     Harris-Foulkes estimate   =     -31.94077618 Ry
     estimated scf accuracy    <       1.67086997 Ry

     iteration #  8     ecut=    30.00 Ry     beta=0.70
     Davidson diagonalization with overlap
     ethr =  1.00E-02,  avg # of iterations =  1.0

     negative rho (up, down):  3.170E-03 0.000E+00

     total cpu time spent up to now is        7.3 secs

     total energy              =     -32.07814716 Ry
     Harris-Foulkes estimate   =     -31.79670387 Ry
     estimated scf accuracy    <       1.46229405 Ry

     iteration #  9     ecut=    30.00 Ry     beta=0.70
     Davidson diagonalization with overlap
     ethr =  1.00E-02,  avg # of iterations =  1.0

     negative rho (up, down):  2.730E-03 0.000E+00

     total cpu time spent up to now is        7.4 secs

     total energy              =     -32.20665443 Ry
     Harris-Foulkes estimate   =     -32.08061124 Ry
     estimated scf accuracy    <       1.89576240 Ry

     iteration # 10     ecut=    30.00 Ry     beta=0.70
     Davidson diagonalization with overlap
     ethr =  1.00E-02,  avg # of iterations =  1.0

     negative rho (up, down):  1.164E-01 0.000E+00

     total cpu time spent up to now is        7.4 secs

     total energy              =     -33.23431459 Ry
     Harris-Foulkes estimate   =     -32.20728243 Ry
     estimated scf accuracy    <       2.10179566 Ry

     iteration # 11     ecut=    30.00 Ry     beta=0.70
     Davidson diagonalization with overlap
     ethr =  1.00E-02,  avg # of iterations =  2.0

     negative rho (up, down):  4.911E-03 0.000E+00

     total cpu time spent up to now is        7.4 secs

     total energy              =     -31.28937317 Ry
     Harris-Foulkes estimate   =     -33.25104854 Ry
     estimated scf accuracy    <       3.94739581 Ry

     iteration # 12     ecut=    30.00 Ry     beta=0.70
     Davidson diagonalization with overlap
     ethr =  1.00E-02,  avg # of iterations =  3.0

     negative rho (up, down):  3.962E-02 0.000E+00

     total cpu time spent up to now is        7.5 secs

     total energy              =     -31.51914593 Ry
     Harris-Foulkes estimate   =     -31.67038834 Ry
     estimated scf accuracy    <       2.82268081 Ry

     iteration # 13     ecut=    30.00 Ry     beta=0.70
     Davidson diagonalization with overlap
     ethr =  1.00E-02,  avg # of iterations =  1.0

     negative rho (up, down):  3.336E-01 0.000E+00

     total cpu time spent up to now is        7.5 secs

     total energy              =     -31.98519580 Ry
     Harris-Foulkes estimate   =     -31.55148704 Ry
     estimated scf accuracy    <       0.72219679 Ry

     iteration # 14     ecut=    30.00 Ry     beta=0.70
     Davidson diagonalization with overlap
     ethr =  9.03E-03,  avg # of iterations =  2.0

     negative rho (up, down):  3.184E-02 0.000E+00

     total cpu time spent up to now is        7.5 secs

     total energy              =     -30.69308267 Ry
     Harris-Foulkes estimate   =     -32.20879942 Ry
     estimated scf accuracy    <       1.99752673 Ry

     iteration # 15     ecut=    30.00 Ry     beta=0.70
     Davidson diagonalization with overlap
     ethr =  9.03E-03,  avg # of iterations =  4.0

     negative rho (up, down):  1.816E-02 0.000E+00

     total cpu time spent up to now is        7.6 secs

     total energy              =     -32.22588120 Ry
     Harris-Foulkes estimate   =     -34.05003595 Ry
     estimated scf accuracy    <       4.94555122 Ry

     iteration # 16     ecut=    30.00 Ry     beta=0.70
     Davidson diagonalization with overlap
     ethr =  9.03E-03,  avg # of iterations =  1.0

     negative rho (up, down):  2.658E-02 0.000E+00

     total cpu time spent up to now is        7.6 secs

     total energy              =     -31.34019654 Ry
     Harris-Foulkes estimate   =     -32.25474858 Ry
     estimated scf accuracy    <       2.01720902 Ry

     iteration # 17     ecut=    30.00 Ry     beta=0.70
     Davidson diagonalization with overlap
     ethr =  9.03E-03,  avg # of iterations =  1.0

     negative rho (up, down):  3.930E-04 0.000E+00

     total cpu time spent up to now is        7.6 secs

     total energy              =     -31.39991330 Ry
     Harris-Foulkes estimate   =     -31.49543279 Ry
     estimated scf accuracy    <       2.56325991 Ry

     iteration # 18     ecut=    30.00 Ry     beta=0.70
     Davidson diagonalization with overlap
     ethr =  9.03E-03,  avg # of iterations =  4.0

     negative rho (up, down):  1.820E-07 0.000E+00

     total cpu time spent up to now is        7.7 secs

     total energy              =     -31.23256727 Ry
     Harris-Foulkes estimate   =     -31.71555063 Ry
     estimated scf accuracy    <       1.30813255 Ry

     iteration # 19     ecut=    30.00 Ry     beta=0.70
     Davidson diagonalization with overlap
     ethr =  9.03E-03,  avg # of iterations =  1.0

     total cpu time spent up to now is        7.7 secs

     total energy              =     -31.59608986 Ry
     Harris-Foulkes estimate   =     -31.72381015 Ry
     estimated scf accuracy    <       1.52372638 Ry

     iteration # 20     ecut=    30.00 Ry     beta=0.70
     Davidson diagonalization with overlap
     ethr =  9.03E-03,  avg # of iterations =  1.0

     negative rho (up, down):  3.178E-07 0.000E+00

     total cpu time spent up to now is        7.8 secs

     total energy              =     -31.67882418 Ry
     Harris-Foulkes estimate   =     -31.60253889 Ry
     estimated scf accuracy    <       0.79178303 Ry

     iteration # 21     ecut=    30.00 Ry     beta=0.70
     Davidson diagonalization with overlap
     ethr =  9.03E-03,  avg # of iterations =  1.0

     total cpu time spent up to now is        7.8 secs

     total energy              =     -31.68058500 Ry
     Harris-Foulkes estimate   =     -31.68406903 Ry
     estimated scf accuracy    <       1.33750179 Ry

     iteration # 22     ecut=    30.00 Ry     beta=0.70
     Davidson diagonalization with overlap
     ethr =  9.03E-03,  avg # of iterations =  1.0

     negative rho (up, down):  7.151E-07 0.000E+00

     total cpu time spent up to now is        7.8 secs

     total energy              =     -31.53509491 Ry
     Harris-Foulkes estimate   =     -31.68062049 Ry
     estimated scf accuracy    <       1.37031978 Ry

     iteration # 23     ecut=    30.00 Ry     beta=0.70
     Davidson diagonalization with overlap
     ethr =  9.03E-03,  avg # of iterations =  1.0

     negative rho (up, down):  1.122E-05 0.000E+00

     total cpu time spent up to now is        7.9 secs

     total energy              =     -31.38045265 Ry
     Harris-Foulkes estimate   =     -31.54571833 Ry
     estimated scf accuracy    <       0.74243572 Ry

     iteration # 24     ecut=    30.00 Ry     beta=0.70
     Davidson diagonalization with overlap
     ethr =  9.03E-03,  avg # of iterations =  1.0

     negative rho (up, down):  2.823E-06 0.000E+00

     total cpu time spent up to now is        7.9 secs

     total energy              =     -31.56107321 Ry
     Harris-Foulkes estimate   =     -31.62759259 Ry
     estimated scf accuracy    <       1.17401905 Ry

     iteration # 25     ecut=    30.00 Ry     beta=0.70
     Davidson diagonalization with overlap
     ethr =  9.03E-03,  avg # of iterations =  1.0

     negative rho (up, down):  3.380E-07 0.000E+00

     total cpu time spent up to now is        7.9 secs

     total energy              =     -31.35103480 Ry
     Harris-Foulkes estimate   =     -31.56112916 Ry
     estimated scf accuracy    <       1.12868650 Ry

     iteration # 26     ecut=    30.00 Ry     beta=0.70
     Davidson diagonalization with overlap
     ethr =  9.03E-03,  avg # of iterations =  1.0

     negative rho (up, down):  2.157E-08 0.000E+00

     total cpu time spent up to now is        8.0 secs

     total energy              =     -31.53300424 Ry
     Harris-Foulkes estimate   =     -31.58300180 Ry
     estimated scf accuracy    <       0.75320992 Ry

     iteration # 27     ecut=    30.00 Ry     beta=0.70
     Davidson diagonalization with overlap
     ethr =  9.03E-03,  avg # of iterations =  1.0

     total cpu time spent up to now is        8.0 secs

     total energy              =     -31.53061682 Ry
     Harris-Foulkes estimate   =     -31.53673241 Ry
     estimated scf accuracy    <       0.99635442 Ry

     iteration # 28     ecut=    30.00 Ry     beta=0.70
     Davidson diagonalization with overlap
     ethr =  9.03E-03,  avg # of iterations =  1.0

     total cpu time spent up to now is        8.0 secs

     total energy              =     -31.53035425 Ry
     Harris-Foulkes estimate   =     -31.53064654 Ry
     estimated scf accuracy    <       1.01605879 Ry

     iteration # 29     ecut=    30.00 Ry     beta=0.70
     Davidson diagonalization with overlap
     ethr =  9.03E-03,  avg # of iterations =  1.0

     total cpu time spent up to now is        8.1 secs

     total energy              =     -31.53047303 Ry
     Harris-Foulkes estimate   =     -31.53035649 Ry
     estimated scf accuracy    <       1.00457338 Ry

     iteration # 30     ecut=    30.00 Ry     beta=0.70
     Davidson diagonalization with overlap
     ethr =  9.03E-03,  avg # of iterations =  1.0

     total cpu time spent up to now is        8.1 secs

     total energy              =     -31.52563159 Ry
     Harris-Foulkes estimate   =     -31.53049928 Ry
     estimated scf accuracy    <       0.95419296 Ry

     iteration # 31     ecut=    30.00 Ry     beta=0.70
     Davidson diagonalization with overlap
     ethr =  9.03E-03,  avg # of iterations =  1.0

     total cpu time spent up to now is        8.1 secs

     total energy              =     -31.53297350 Ry
     Harris-Foulkes estimate   =     -31.52563916 Ry
     estimated scf accuracy    <       0.93288619 Ry

     iteration # 32     ecut=    30.00 Ry     beta=0.70
     Davidson diagonalization with overlap
     ethr =  9.03E-03,  avg # of iterations =  1.0

     total cpu time spent up to now is        8.2 secs

     total energy              =     -31.55415754 Ry
     Harris-Foulkes estimate   =     -31.53299777 Ry
     estimated scf accuracy    <       0.93178985 Ry

     iteration # 33     ecut=    30.00 Ry     beta=0.70
     Davidson diagonalization with overlap
     ethr =  9.03E-03,  avg # of iterations =  1.0

     total cpu time spent up to now is        8.2 secs

     total energy              =     -31.52796030 Ry
     Harris-Foulkes estimate   =     -31.55543563 Ry
     estimated scf accuracy    <       0.74678516 Ry

     iteration # 34     ecut=    30.00 Ry     beta=0.70
     Davidson diagonalization with overlap
     ethr =  9.03E-03,  avg # of iterations =  1.0

     negative rho (up, down):  3.744E-02 0.000E+00

     total cpu time spent up to now is        8.2 secs

     total energy              =     -31.05739761 Ry
     Harris-Foulkes estimate   =     -31.52995594 Ry
     estimated scf accuracy    <       1.00990322 Ry

     iteration # 35     ecut=    30.00 Ry     beta=0.70
     Davidson diagonalization with overlap
     ethr =  9.03E-03,  avg # of iterations =  3.0

     negative rho (up, down):  7.472E-05 0.000E+00

     total cpu time spent up to now is        8.3 secs

     total energy              =     -31.48673685 Ry
     Harris-Foulkes estimate   =     -33.51161386 Ry
     estimated scf accuracy    <       4.53993094 Ry

     iteration # 36     ecut=    30.00 Ry     beta=0.70
     Davidson diagonalization with overlap
     ethr =  9.03E-03,  avg # of iterations =  2.0

     total cpu time spent up to now is        8.3 secs

     total energy              =     -31.62265704 Ry
     Harris-Foulkes estimate   =     -31.88945772 Ry
     estimated scf accuracy    <       1.77437168 Ry

     iteration # 37     ecut=    30.00 Ry     beta=0.70
     Davidson diagonalization with overlap
     ethr =  9.03E-03,  avg # of iterations =  1.0

     total cpu time spent up to now is        8.3 secs

     total energy              =     -31.50458293 Ry
     Harris-Foulkes estimate   =     -31.63027512 Ry
     estimated scf accuracy    <       1.20691568 Ry

     iteration # 38     ecut=    30.00 Ry     beta=0.70
     Davidson diagonalization with overlap
     ethr =  9.03E-03,  avg # of iterations =  1.0

     total cpu time spent up to now is        8.4 secs

     total energy              =     -31.48861593 Ry
     Harris-Foulkes estimate   =     -31.50271197 Ry
     estimated scf accuracy    <       0.82541420 Ry

     iteration # 39     ecut=    30.00 Ry     beta=0.70
     Davidson diagonalization with overlap
     ethr =  9.03E-03,  avg # of iterations =  1.0

     total cpu time spent up to now is        8.4 secs

     total energy              =     -31.49577408 Ry
     Harris-Foulkes estimate   =     -31.49254497 Ry
     estimated scf accuracy    <       0.13898353 Ry

     iteration # 40     ecut=    30.00 Ry     beta=0.70
     Davidson diagonalization with overlap
     ethr =  1.74E-03,  avg # of iterations =  1.0

     total cpu time spent up to now is        8.4 secs

     total energy              =     -31.49383600 Ry
     Harris-Foulkes estimate   =     -31.49715130 Ry
     estimated scf accuracy    <       0.47826045 Ry

[...]
     Harris-Foulkes estimate   =  -10237.01458459 Ry
     estimated scf accuracy    <      23.03480830 Ry

     iteration # 59     ecut=    30.00 Ry     beta=0.70
     Davidson diagonalization with overlap
     ethr =  1.00E-02,  avg # of iterations = 13.0

     negative rho (up, down):  5.453E-01 0.000E+00

     total cpu time spent up to now is       51.2 secs

     total energy              =    -192.30841854 Ry
     Harris-Foulkes estimate   =   -2425.32263376 Ry
     estimated scf accuracy    <      26.77127266 Ry

     iteration # 60     ecut=    30.00 Ry     beta=0.70
     Davidson diagonalization with overlap
     ethr =  1.00E-02,  avg # of iterations =  8.0

     negative rho (up, down):  3.185E-01 0.000E+00

     total cpu time spent up to now is       51.2 secs

     total energy              =     101.97940231 Ry
     Harris-Foulkes estimate   =   -8513.89795930 Ry
     estimated scf accuracy    <      25.21503435 Ry

     iteration # 61     ecut=    30.00 Ry     beta=0.70
     Davidson diagonalization with overlap
     ethr =  1.00E-02,  avg # of iterations =  6.0

     negative rho (up, down):  5.747E-01 0.000E+00

     total cpu time spent up to now is       51.3 secs

     total energy              =    -161.36264265 Ry
     Harris-Foulkes estimate   =    -746.76322020 Ry
     estimated scf accuracy    <      33.61114346 Ry

     iteration # 62     ecut=    30.00 Ry     beta=0.70
     Davidson diagonalization with overlap
     ethr =  1.00E-02,  avg # of iterations =  6.0

     negative rho (up, down):  5.750E-01 0.000E+00

     total cpu time spent up to now is       51.3 secs

     total energy              =   -4327.11028013 Ry
     Harris-Foulkes estimate   =   -2186.13328355 Ry
     estimated scf accuracy    <      22.40847575 Ry

     iteration # 63     ecut=    30.00 Ry     beta=0.70
     Davidson diagonalization with overlap
     ethr =  1.00E-02,  avg # of iterations =  6.0

     negative rho (up, down):  4.262E-01 0.000E+00

     total cpu time spent up to now is       51.4 secs

     total energy              =    -728.00583185 Ry
     Harris-Foulkes estimate   =  -14971.35607130 Ry
     estimated scf accuracy    <      27.25072637 Ry

     iteration # 64     ecut=    30.00 Ry     beta=0.70
     Davidson diagonalization with overlap
     ethr =  1.00E-02,  avg # of iterations =  9.0

     negative rho (up, down):  6.046E-01 0.000E+00

     total cpu time spent up to now is       51.4 secs

     total energy              =      24.78403203 Ry
     Harris-Foulkes estimate   =   -5655.13684035 Ry
     estimated scf accuracy    <      32.26913823 Ry

     iteration # 65     ecut=    30.00 Ry     beta=0.70
     Davidson diagonalization with overlap
     ethr =  1.00E-02,  avg # of iterations = 10.0

     negative rho (up, down):  1.782E-01 0.000E+00

     total cpu time spent up to now is       51.5 secs

     total energy              =     125.26855277 Ry
     Harris-Foulkes estimate   =    -497.60724440 Ry
     estimated scf accuracy    <      23.88326102 Ry

     iteration # 66     ecut=    30.00 Ry     beta=0.70
     Davidson diagonalization with overlap
     ethr =  1.00E-02,  avg # of iterations = 17.0

     negative rho (up, down):  3.165E-01 0.000E+00

     total cpu time spent up to now is       51.6 secs

     total energy              =      59.86244413 Ry
     Harris-Foulkes estimate   =    -202.11937695 Ry
     estimated scf accuracy    <      29.46255002 Ry

     iteration # 67     ecut=    30.00 Ry     beta=0.70
     Davidson diagonalization with overlap
     ethr =  1.00E-02,  avg # of iterations =  9.0

     negative rho (up, down):  3.074E-01 0.000E+00

     total cpu time spent up to now is       51.6 secs

     total energy              =      25.06525625 Ry
     Harris-Foulkes estimate   =    -732.33481514 Ry
     estimated scf accuracy    <      40.00346727 Ry

     iteration # 68     ecut=    30.00 Ry     beta=0.70
     Davidson diagonalization with overlap
     ethr =  1.00E-02,  avg # of iterations = 10.0

     negative rho (up, down):  2.076E-01 0.000E+00

     total cpu time spent up to now is       51.7 secs

     total energy              =    -147.32833223 Ry
     Harris-Foulkes estimate   =   -2431.95507168 Ry
     estimated scf accuracy    <      22.23682715 Ry

     iteration # 69     ecut=    30.00 Ry     beta=0.70
     Davidson diagonalization with overlap
     ethr =  1.00E-02,  avg # of iterations =  6.0

     negative rho (up, down):  3.374E-01 0.000E+00

     total cpu time spent up to now is       51.7 secs

     total energy              =     121.90238429 Ry
     Harris-Foulkes estimate   =   -2998.00065208 Ry
     estimated scf accuracy    <      26.02504086 Ry

     iteration # 70     ecut=    30.00 Ry     beta=0.70
     Davidson diagonalization with overlap
     ethr =  1.00E-02,  avg # of iterations =  8.0

     negative rho (up, down):  5.463E-04 0.000E+00

     total cpu time spent up to now is       51.8 secs

     total energy              =     138.29392866 Ry
     Harris-Foulkes estimate   =   -3965.70071410 Ry
     estimated scf accuracy    <      18.16794739 Ry

     iteration # 71     ecut=    30.00 Ry     beta=0.70
     Davidson diagonalization with overlap
     ethr =  1.00E-02,  avg # of iterations =  8.0

     negative rho (up, down):  2.279E-03 0.000E+00

     total cpu time spent up to now is       51.8 secs

     total energy              =     -79.16245719 Ry
     Harris-Foulkes estimate   =     -85.19643990 Ry
     estimated scf accuracy    <      72.08648021 Ry

     iteration # 72     ecut=    30.00 Ry     beta=0.70
     Davidson diagonalization with overlap
     ethr =  1.00E-02,  avg # of iterations =  5.0

     negative rho (up, down):  6.509E-02 0.000E+00

     total cpu time spent up to now is       51.9 secs

     total energy              =      35.35611040 Ry
     Harris-Foulkes estimate   =    -603.76781327 Ry
     estimated scf accuracy    <      26.50614377 Ry

     iteration # 73     ecut=    30.00 Ry     beta=0.70
     Davidson diagonalization with overlap
     ethr =  1.00E-02,  avg # of iterations =  5.0

     negative rho (up, down):  8.148E-02 0.000E+00

     total cpu time spent up to now is       51.9 secs

     total energy              =      12.86392762 Ry
     Harris-Foulkes estimate   =    -288.89587523 Ry
     estimated scf accuracy    <      23.18892474 Ry

     iteration # 74     ecut=    30.00 Ry     beta=0.70
     Davidson diagonalization with overlap
     ethr =  1.00E-02,  avg # of iterations =  5.0

     negative rho (up, down):  1.222E-01 0.000E+00

     total cpu time spent up to now is       52.0 secs

     total energy              =    -442.88462889 Ry
     Harris-Foulkes estimate   =     -87.99554694 Ry
     estimated scf accuracy    <      36.76257502 Ry

     iteration # 75     ecut=    30.00 Ry     beta=0.70
     Davidson diagonalization with overlap
     ethr =  1.00E-02,  avg # of iterations =  5.0

     negative rho (up, down):  6.700E-04 0.000E+00

     total cpu time spent up to now is       52.0 secs

     total energy              =      28.03573483 Ry
     Harris-Foulkes estimate   =   -1378.54423610 Ry
     estimated scf accuracy    <      24.22511737 Ry

     iteration # 76     ecut=    30.00 Ry     beta=0.70
     Davidson diagonalization with overlap
     ethr =  1.00E-02,  avg # of iterations = 10.0

     negative rho (up, down):  1.402E-03 0.000E+00

     total cpu time spent up to now is       52.1 secs

     total energy              =     -27.10779966 Ry
     Harris-Foulkes estimate   =     -75.51196496 Ry
     estimated scf accuracy    <      33.38862544 Ry

     iteration # 77     ecut=    30.00 Ry     beta=0.70
     Davidson diagonalization with overlap
     ethr =  1.00E-02,  avg # of iterations =  4.0

     negative rho (up, down):  7.828E-02 0.000E+00

     total cpu time spent up to now is       52.2 secs

     total energy              =     -52.87567786 Ry
     Harris-Foulkes estimate   =    -422.19329143 Ry
     estimated scf accuracy    <      33.27739445 Ry

     iteration # 78     ecut=    30.00 Ry     beta=0.70
     Davidson diagonalization with overlap
     ethr =  1.00E-02,  avg # of iterations =  4.0

     negative rho (up, down):  1.698E-01 0.000E+00

     total cpu time spent up to now is       52.2 secs

     total energy              =    -182.86509351 Ry
     Harris-Foulkes estimate   =    -667.54992521 Ry
     estimated scf accuracy    <      56.74830391 Ry

     iteration # 79     ecut=    30.00 Ry     beta=0.70
     Davidson diagonalization with overlap
     ethr =  1.00E-02,  avg # of iterations =  9.0

     negative rho (up, down):  1.945E-01 0.000E+00

     total cpu time spent up to now is       52.3 secs

     total energy              =      41.26791674 Ry
     Harris-Foulkes estimate   =    -903.42767801 Ry
     estimated scf accuracy    <      31.04110171 Ry

     iteration # 80     ecut=    30.00 Ry     beta=0.70
     Davidson diagonalization with overlap
     ethr =  1.00E-02,  avg # of iterations =  7.0

     negative rho (up, down):  4.662E-01 0.000E+00

     total cpu time spent up to now is       52.3 secs

     total energy              =    -215.91207606 Ry
     Harris-Foulkes estimate   =    -286.31822996 Ry
     estimated scf accuracy    <      21.19974449 Ry

     iteration # 81     ecut=    30.00 Ry     beta=0.70
     Davidson diagonalization with overlap
     ethr =  1.00E-02,  avg # of iterations =  7.0

     negative rho (up, down):  7.062E-01 0.000E+00

     total cpu time spent up to now is       52.4 secs

     total energy              =    -920.50778073 Ry
     Harris-Foulkes estimate   =   -7134.06640686 Ry
     estimated scf accuracy    <      30.84872451 Ry

     iteration # 82     ecut=    30.00 Ry     beta=0.70
     Davidson diagonalization with overlap
     ethr =  1.00E-02,  avg # of iterations =  6.0

     negative rho (up, down):  8.975E-01 0.000E+00

     total cpu time spent up to now is       52.4 secs

     total energy              =     -97.56125121 Ry
     Harris-Foulkes estimate   =   -8067.12498945 Ry
     estimated scf accuracy    <      28.03533950 Ry

     iteration # 83     ecut=    30.00 Ry     beta=0.70
     Davidson diagonalization with overlap
     ethr =  1.00E-02,  avg # of iterations =  9.0

     negative rho (up, down):  1.006E+00 0.000E+00

     total cpu time spent up to now is       52.5 secs

     total energy              =      73.02554569 Ry
     Harris-Foulkes estimate   =   -1406.51791391 Ry
     estimated scf accuracy    <      30.88763312 Ry

     iteration # 84     ecut=    30.00 Ry     beta=0.70
     Davidson diagonalization with overlap
     ethr =  1.00E-02,  avg # of iterations =  8.0

     negative rho (up, down):  1.108E+00 0.000E+00

     total cpu time spent up to now is       52.6 secs

     total energy              =    -377.00539549 Ry
     Harris-Foulkes estimate   =    -196.35115610 Ry
     estimated scf accuracy    <      44.18631886 Ry

     iteration # 85     ecut=    30.00 Ry     beta=0.70
     Davidson diagonalization with overlap
     ethr =  1.00E-02,  avg # of iterations = 10.0

     negative rho (up, down):  1.244E+00 0.000E+00

     total cpu time spent up to now is       52.6 secs

     total energy              =     -22.72507378 Ry
     Harris-Foulkes estimate   =   -4792.28461693 Ry
     estimated scf accuracy    <      39.92427029 Ry

     iteration # 86     ecut=    30.00 Ry     beta=0.70
     Davidson diagonalization with overlap
     ethr =  1.00E-02,  avg # of iterations =  9.0

     negative rho (up, down):  1.320E+00 0.000E+00

     total cpu time spent up to now is       52.7 secs

     total energy              =  -17092.27216563 Ry
     Harris-Foulkes estimate   =   -1437.45967612 Ry
     estimated scf accuracy    <      38.71125950 Ry

     iteration # 87     ecut=    30.00 Ry     beta=0.70
     Davidson diagonalization with overlap
     ethr =  1.00E-02,  avg # of iterations = 12.0

     negative rho (up, down):  1.910E-01 0.000E+00

     total cpu time spent up to now is       52.7 secs

     total energy              =      65.11987788 Ry
     Harris-Foulkes estimate   =  -36033.51700623 Ry
     estimated scf accuracy    <      20.66786923 Ry

     iteration # 88     ecut=    30.00 Ry     beta=0.70
     Davidson diagonalization with overlap
     ethr =  1.00E-02,  avg # of iterations =  7.0

     negative rho (up, down):  5.677E-01 0.000E+00

     total cpu time spent up to now is       52.8 secs

     total energy              =    -120.20730045 Ry
     Harris-Foulkes estimate   =    -923.88158896 Ry
     estimated scf accuracy    <      33.85104049 Ry

     iteration # 89     ecut=    30.00 Ry     beta=0.70
     Davidson diagonalization with overlap
     ethr =  1.00E-02,  avg # of iterations =  5.0

     negative rho (up, down):  1.179E+00 0.000E+00

     total cpu time spent up to now is       52.9 secs

     total energy              =  -19194.23457036 Ry
     Harris-Foulkes estimate   =   -2801.16395018 Ry
     estimated scf accuracy    <      30.97069205 Ry

     iteration # 90     ecut=    30.00 Ry     beta=0.70
     Davidson diagonalization with overlap
     ethr =  1.00E-02,  avg # of iterations =  9.0

     negative rho (up, down):  1.355E+00 0.000E+00

     total cpu time spent up to now is       52.9 secs

     total energy              =      60.84007374 Ry
     Harris-Foulkes estimate   =  -31817.44514983 Ry
     estimated scf accuracy    <      24.48812948 Ry

     iteration # 91     ecut=    30.00 Ry     beta=0.70
     Davidson diagonalization with overlap
     ethr =  1.00E-02,  avg # of iterations =  6.0

     negative rho (up, down):  1.537E+00 0.000E+00

     total cpu time spent up to now is       53.0 secs

     total energy              =    -119.02822109 Ry
     Harris-Foulkes estimate   =   -4117.95431257 Ry
     estimated scf accuracy    <      32.92710564 Ry

     iteration # 92     ecut=    30.00 Ry     beta=0.70
     Davidson diagonalization with overlap
     ethr =  1.00E-02,  avg # of iterations =  6.0

     negative rho (up, down):  1.642E+00 0.000E+00

     total cpu time spent up to now is       53.0 secs

     total energy              =       8.07833090 Ry
     Harris-Foulkes estimate   =   -3222.69246189 Ry
     estimated scf accuracy    <      26.52752656 Ry

     iteration # 93     ecut=    30.00 Ry     beta=0.70
     Davidson diagonalization with overlap
     ethr =  1.00E-02,  avg # of iterations =  7.0

     negative rho (up, down):  3.441E-01 0.000E+00

     total cpu time spent up to now is       53.1 secs

     total energy              =    -134.02452549 Ry
     Harris-Foulkes estimate   =   -4471.73196837 Ry
     estimated scf accuracy    <      23.09508140 Ry

     iteration # 94     ecut=    30.00 Ry     beta=0.70
     Davidson diagonalization with overlap
     ethr =  1.00E-02,  avg # of iterations =  7.0

     negative rho (up, down):  3.001E-01 0.000E+00

     total cpu time spent up to now is       53.1 secs

     total energy              =       3.25444861 Ry
     Harris-Foulkes estimate   =   -2107.78797032 Ry
     estimated scf accuracy    <      21.62476293 Ry

     iteration # 95     ecut=    30.00 Ry     beta=0.70
     Davidson diagonalization with overlap
     ethr =  1.00E-02,  avg # of iterations = 10.0

     negative rho (up, down):  3.007E-02 0.000E+00

     total cpu time spent up to now is       53.2 secs

     total energy              =      95.20657555 Ry
     Harris-Foulkes estimate   =   -8415.39893210 Ry
     estimated scf accuracy    <      25.66149736 Ry

     iteration # 96     ecut=    30.00 Ry     beta=0.70
     Davidson diagonalization with overlap
     ethr =  1.00E-02,  avg # of iterations = 12.0

     negative rho (up, down):  1.270E-02 0.000E+00

     total cpu time spent up to now is       53.3 secs

     total energy              =       8.00401342 Ry
     Harris-Foulkes estimate   =     -70.13544560 Ry
     estimated scf accuracy    <      14.93749133 Ry

     iteration # 97     ecut=    30.00 Ry     beta=0.70
     Davidson diagonalization with overlap
     ethr =  1.00E-02,  avg # of iterations =  7.0

     negative rho (up, down):  5.443E-02 0.000E+00

     total cpu time spent up to now is       53.3 secs

     total energy              =      80.87574616 Ry
     Harris-Foulkes estimate   =    -615.68613091 Ry
     estimated scf accuracy    <      30.87701472 Ry

     iteration # 98     ecut=    30.00 Ry     beta=0.70
     Davidson diagonalization with overlap
     ethr =  1.00E-02,  avg # of iterations =  5.0

     negative rho (up, down):  1.043E-01 0.000E+00

     total cpu time spent up to now is       53.3 secs

     total energy              =      41.64772162 Ry
     Harris-Foulkes estimate   =    -385.95067272 Ry
     estimated scf accuracy    <      17.80048344 Ry

     iteration # 99     ecut=    30.00 Ry     beta=0.70
     Davidson diagonalization with overlap
     ethr =  1.00E-02,  avg # of iterations =  5.0

     negative rho (up, down):  9.689E-02 0.000E+00

     total cpu time spent up to now is       53.4 secs

     total energy              =   -1032.61629339 Ry
     Harris-Foulkes estimate   =    -262.45349749 Ry
     estimated scf accuracy    <      24.78435455 Ry

     iteration #100     ecut=    30.00 Ry     beta=0.70
     Davidson diagonalization with overlap
     ethr =  1.00E-02,  avg # of iterations =  6.0

     negative rho (up, down):  1.247E-01 0.000E+00

     total cpu time spent up to now is       53.4 secs

     total energy              =     -27.73252132 Ry
     Harris-Foulkes estimate   =   -2320.18705180 Ry
     estimated scf accuracy    <      27.73173022 Ry

     End of self-consistent calculation

     convergence NOT achieved after 100 iterations: stopping

     Writing output data file pwscf.save
 
     init_run     :      0.09s CPU      0.12s WALL (       1 calls)
     electrons    :     32.66s CPU     42.91s WALL (      38 calls)
     update_pot   :      4.98s CPU      7.07s WALL (      37 calls)
     forces       :      1.00s CPU      1.04s WALL (      37 calls)

     Called by init_run:
     wfcinit      :      0.01s CPU      0.03s WALL (       1 calls)
     potinit      :      0.02s CPU      0.03s WALL (       1 calls)

     Called by electrons:
     c_bands      :     13.77s CPU     14.92s WALL (    1039 calls)
     sum_band     :      3.05s CPU      3.27s WALL (    1039 calls)
     v_of_rho     :      7.54s CPU      8.11s WALL (    1077 calls)
     mix_rho      :      6.89s CPU     12.18s WALL (    1039 calls)

     Called by c_bands:
     init_us_2    :      0.09s CPU      0.12s WALL (    2079 calls)
     cegterg      :     13.52s CPU     14.34s WALL (    1039 calls)

     Called by sum_band:

     Called by *egterg:
     h_psi        :     11.37s CPU     11.99s WALL (    4067 calls)
     g_psi        :      0.10s CPU      0.10s WALL (    3027 calls)
     cdiaghg      :      0.75s CPU      0.80s WALL (    4029 calls)

     Called by h_psi:
     h_psi:pot    :     11.31s CPU     11.92s WALL (    4067 calls)
     h_psi:calbec :      0.28s CPU      0.36s WALL (    4067 calls)
     vloc_psi     :     10.98s CPU     11.51s WALL (    4067 calls)
     add_vuspsi   :      0.03s CPU      0.03s WALL (    4067 calls)

     General routines
     calbec       :      0.61s CPU      0.83s WALL (    4251 calls)
     fft          :      5.51s CPU      5.88s WALL (   11921 calls)
     fftw         :     11.76s CPU     12.41s WALL (   52804 calls)
     davcio       :      1.07s CPU      4.38s WALL (   17413 calls)
 
     Parallel routines
     fft_scatter  :      7.33s CPU      8.02s WALL (   64725 calls)
 
     PWSCF        :    39.73s CPU        53.54s WALL

 
   This run was terminated on:   1:41:21  11Feb2018            

=------------------------------------------------------------------------------=
   JOB DONE.
=------------------------------------------------------------------------------=
