
     Program PWSCF v.6.0 (svn rev. 13079) starts on 11Feb2018 at  1:59:12 

     This program is part of the open-source Quantum ESPRESSO suite
     for quantum simulation of materials; please cite
         "P. Giannozzi et al., J. Phys.:Condens. Matter 21 395502 (2009);
          URL http://www.quantum-espresso.org", 
     in publications or presentations arising from this work. More details at
     http://www.quantum-espresso.org/quote

     Parallel version (MPI), running on    28 processors
     R & G space division:  proc/nbgrp/npool/nimage =      28
     Reading input from inputs/water-1-md/430.in

     Current dimensions of program PWSCF are:
     Max number of different atomic species (ntypx) = 10
     Max number of k-points (npk) =  40000
     Max angular momentum in pseudopotentials (lmaxx) =  3

     Subspace diagonalization in iterative solution of the eigenvalue problem:
     a serial algorithm will be used

 
     Parallelization info
     --------------------
     sticks:   dense  smooth     PW     G-vecs:    dense   smooth      PW
     Min         136     136     33                 6338     6338     787
     Max         137     137     34                 6341     6341     792
     Sum        3809    3809    949               177509   177509   22119
 


     bravais-lattice index     =            1
     lattice parameter (alat)  =      20.0000  a.u.
     unit-cell volume          =    8000.0000 (a.u.)^3
     number of atoms/cell      =            3
     number of atomic types    =            2
     number of electrons       =         8.00
     number of Kohn-Sham states=            8
     kinetic-energy cutoff     =      30.0000  Ry
     charge density cutoff     =     120.0000  Ry
     convergence threshold     =      1.0E-08
     mixing beta               =       0.7000
     number of iterations used =            8  plain     mixing
     Exchange-correlation      = BLYP ( 1  3  1  3 0 0)
     nstep                     =         5000


     celldm(1)=  20.000000  celldm(2)=   0.000000  celldm(3)=   0.000000
     celldm(4)=   0.000000  celldm(5)=   0.000000  celldm(6)=   0.000000

     crystal axes: (cart. coord. in units of alat)
               a(1) = (   1.000000   0.000000   0.000000 )  
               a(2) = (   0.000000   1.000000   0.000000 )  
               a(3) = (   0.000000   0.000000   1.000000 )  

     reciprocal axes: (cart. coord. in units 2 pi/alat)
               b(1) = (  1.000000  0.000000  0.000000 )  
               b(2) = (  0.000000  1.000000  0.000000 )  
               b(3) = (  0.000000  0.000000  1.000000 )  


     PseudoPot. # 1 for  H read from file:
     ./H.blyp-hgh.UPF
     MD5 check sum: c576e69559cde411e611be972c763230
     Pseudo is Norm-conserving, Zval =  1.0
     Generated in analytical, separable form
     Using radial grid of  929 points,  0 beta functions with: 

     PseudoPot. # 2 for  O read from file:
     ./O.blyp-hgh.UPF
     MD5 check sum: d0b7156309aa9befef28faac7bc56342
     Pseudo is Norm-conserving, Zval =  6.0
     Generated in analytical, separable form
     Using radial grid of 1095 points,  1 beta functions with: 
                l(1) =   0

     atomic species   valence    mass     pseudopotential
        H              1.00     1.01000      H( 1.00)
        O              6.00    16.00000      O( 1.00)

     No symmetry found



   Cartesian axes

     site n.     atom                  positions (alat units)
         1           H   tau(   1) = (   0.1577098   0.9980840   0.9167333  )
         2           H   tau(   2) = (   0.1969802   0.8512878   0.8375744  )
         3           O   tau(   3) = (   0.9700739   0.6240640   0.6954588  )

     number of k points=     1  Marzari-Vanderbilt smearing, width (Ry)=  0.0250
                       cart. coord. in units 2pi/alat
        k(    1) = (   0.0000000   0.0000000   0.0000000), wk =   2.0000000

     Dense  grid:   177509 G-vectors     FFT dimensions: (  72,  72,  72)

     Estimated max dynamical RAM per process >       6.09Mb

     Estimated total allocated dynamical RAM >     170.64Mb

     Initial potential from superposition of free atoms
     Check: negative starting charge=   -0.352090

     starting charge    7.99998, renormalised to    8.00000

     negative rho (up, down):  3.521E-01 0.000E+00
     Starting wfc are    6 randomized atomic wfcs +    2 random wfc

     total cpu time spent up to now is        0.3 secs

     per-process dynamical memory:    18.8 Mb

     Self-consistent Calculation

     iteration #  1     ecut=    30.00 Ry     beta=0.70
     Davidson diagonalization with overlap
     ethr =  1.00E-02,  avg # of iterations =  7.0

     negative rho (up, down):  8.852E-02 0.000E+00

     total cpu time spent up to now is        0.3 secs

     total energy              =     -31.00629053 Ry
     Harris-Foulkes estimate   =     -32.06342489 Ry
     estimated scf accuracy    <       1.08081964 Ry

     iteration #  2     ecut=    30.00 Ry     beta=0.70
     Davidson diagonalization with overlap
     ethr =  1.00E-02,  avg # of iterations =  2.0

     negative rho (up, down):  7.065E-02 0.000E+00

     total cpu time spent up to now is        0.3 secs

     total energy              =     -31.23966213 Ry
     Harris-Foulkes estimate   =     -33.19970322 Ry
     estimated scf accuracy    <       6.13079636 Ry

     iteration #  3     ecut=    30.00 Ry     beta=0.70
     Davidson diagonalization with overlap
     ethr =  1.00E-02,  avg # of iterations =  2.0

     negative rho (up, down):  2.355E-02 0.000E+00

     total cpu time spent up to now is        0.4 secs

     total energy              =     -31.63893096 Ry
     Harris-Foulkes estimate   =     -31.61418467 Ry
     estimated scf accuracy    <       0.04319967 Ry

     iteration #  4     ecut=    30.00 Ry     beta=0.70
     Davidson diagonalization with overlap
     ethr =  5.40E-04,  avg # of iterations =  4.0

     negative rho (up, down):  1.363E-02 0.000E+00

     total cpu time spent up to now is        0.4 secs

     total energy              =     -31.64836629 Ry
     Harris-Foulkes estimate   =     -31.64579952 Ry
     estimated scf accuracy    <       0.04363316 Ry

     iteration #  5     ecut=    30.00 Ry     beta=0.70
     Davidson diagonalization with overlap
     ethr =  5.40E-04,  avg # of iterations =  1.0

     negative rho (up, down):  1.398E-03 0.000E+00

     total cpu time spent up to now is        0.4 secs

     total energy              =     -31.65089619 Ry
     Harris-Foulkes estimate   =     -31.65085349 Ry
     estimated scf accuracy    <       0.03021507 Ry

     iteration #  6     ecut=    30.00 Ry     beta=0.70
     Davidson diagonalization with overlap
     ethr =  3.78E-04,  avg # of iterations =  5.0

     negative rho (up, down):  1.023E-06 0.000E+00

     total cpu time spent up to now is        0.5 secs

     total energy              =     -31.58562244 Ry
     Harris-Foulkes estimate   =     -31.69277396 Ry
     estimated scf accuracy    <       2.15140307 Ry

     iteration #  7     ecut=    30.00 Ry     beta=0.70
     Davidson diagonalization with overlap
     ethr =  3.78E-04,  avg # of iterations =  1.0

     negative rho (up, down):  2.605E-06 0.000E+00

     total cpu time spent up to now is        0.5 secs

     total energy              =     -31.66273623 Ry
     Harris-Foulkes estimate   =     -31.66193485 Ry
     estimated scf accuracy    <       0.03207930 Ry

     iteration #  8     ecut=    30.00 Ry     beta=0.70
     Davidson diagonalization with overlap
     ethr =  3.78E-04,  avg # of iterations =  1.0

     negative rho (up, down):  1.261E-06 0.000E+00

     total cpu time spent up to now is        0.5 secs

     total energy              =     -31.66296434 Ry
     Harris-Foulkes estimate   =     -31.66271743 Ry
     estimated scf accuracy    <       0.02541993 Ry

     iteration #  9     ecut=    30.00 Ry     beta=0.70
     Davidson diagonalization with overlap
     ethr =  3.18E-04,  avg # of iterations =  1.0

     negative rho (up, down):  1.882E-07 0.000E+00

     total cpu time spent up to now is        0.6 secs

     total energy              =     -31.66213209 Ry
     Harris-Foulkes estimate   =     -31.66296436 Ry
     estimated scf accuracy    <       0.02356892 Ry

     iteration # 10     ecut=    30.00 Ry     beta=0.70
     Davidson diagonalization with overlap
     ethr =  2.95E-04,  avg # of iterations =  1.0

     negative rho (up, down):  3.643E-07 0.000E+00

     total cpu time spent up to now is        0.6 secs

     total energy              =     -31.66226587 Ry
     Harris-Foulkes estimate   =     -31.66205710 Ry
     estimated scf accuracy    <       0.03181004 Ry

     iteration # 11     ecut=    30.00 Ry     beta=0.70
     Davidson diagonalization with overlap
     ethr =  2.95E-04,  avg # of iterations =  1.0

     negative rho (up, down):  1.352E-08 0.000E+00

     total cpu time spent up to now is        0.6 secs

     total energy              =     -31.66098802 Ry
     Harris-Foulkes estimate   =     -31.66226228 Ry
     estimated scf accuracy    <       0.02983976 Ry

     iteration # 12     ecut=    30.00 Ry     beta=0.70
     Davidson diagonalization with overlap
     ethr =  2.95E-04,  avg # of iterations =  1.0

     total cpu time spent up to now is        0.7 secs

     total energy              =     -31.66013294 Ry
     Harris-Foulkes estimate   =     -31.66084993 Ry
     estimated scf accuracy    <       0.04124283 Ry

     iteration # 13     ecut=    30.00 Ry     beta=0.70
     Davidson diagonalization with overlap
     ethr =  2.95E-04,  avg # of iterations =  1.0

     negative rho (up, down):  4.258E-06 0.000E+00

     total cpu time spent up to now is        0.7 secs

     total energy              =     -31.65671278 Ry
     Harris-Foulkes estimate   =     -31.66011705 Ry
     estimated scf accuracy    <       0.04346887 Ry

     iteration # 14     ecut=    30.00 Ry     beta=0.70
     Davidson diagonalization with overlap
     ethr =  2.95E-04,  avg # of iterations =  1.0

     negative rho (up, down):  3.409E-06 0.000E+00

     total cpu time spent up to now is        0.7 secs

     total energy              =     -31.65786262 Ry
     Harris-Foulkes estimate   =     -31.65756684 Ry
     estimated scf accuracy    <       0.00106116 Ry

     iteration # 15     ecut=    30.00 Ry     beta=0.70
     Davidson diagonalization with overlap
     ethr =  1.33E-05,  avg # of iterations = 13.0

     total cpu time spent up to now is        0.8 secs

     total energy              =     -31.65801953 Ry
     Harris-Foulkes estimate   =     -31.65849312 Ry
     estimated scf accuracy    <       0.02873655 Ry

     iteration # 16     ecut=    30.00 Ry     beta=0.70
     Davidson diagonalization with overlap
     ethr =  1.33E-05,  avg # of iterations =  1.0

     total cpu time spent up to now is        0.8 secs

     total energy              =     -31.65783546 Ry
     Harris-Foulkes estimate   =     -31.65806484 Ry
     estimated scf accuracy    <       0.01825543 Ry

     iteration # 17     ecut=    30.00 Ry     beta=0.70
     Davidson diagonalization with overlap
     ethr =  1.33E-05,  avg # of iterations =  1.0

     total cpu time spent up to now is        0.8 secs

     total energy              =     -31.65750577 Ry
     Harris-Foulkes estimate   =     -31.65785666 Ry
     estimated scf accuracy    <       0.01181696 Ry

     iteration # 18     ecut=    30.00 Ry     beta=0.70
     Davidson diagonalization with overlap
     ethr =  1.33E-05,  avg # of iterations =  1.0

     total cpu time spent up to now is        0.9 secs

     total energy              =     -31.65764728 Ry
     Harris-Foulkes estimate   =     -31.65759934 Ry
     estimated scf accuracy    <       0.00218802 Ry

     iteration # 19     ecut=    30.00 Ry     beta=0.70
     Davidson diagonalization with overlap
     ethr =  1.33E-05,  avg # of iterations =  1.0

     total cpu time spent up to now is        0.9 secs

     total energy              =     -31.65769620 Ry
     Harris-Foulkes estimate   =     -31.65765785 Ry
     estimated scf accuracy    <       0.00458804 Ry

     iteration # 20     ecut=    30.00 Ry     beta=0.70
     Davidson diagonalization with overlap
     ethr =  1.33E-05,  avg # of iterations =  1.0

     total cpu time spent up to now is        0.9 secs

     total energy              =     -31.65734279 Ry
     Harris-Foulkes estimate   =     -31.65769936 Ry
     estimated scf accuracy    <       0.00623324 Ry

     iteration # 21     ecut=    30.00 Ry     beta=0.70
     Davidson diagonalization with overlap
     ethr =  1.33E-05,  avg # of iterations =  1.0

     total cpu time spent up to now is        1.0 secs

     total energy              =     -31.65757299 Ry
     Harris-Foulkes estimate   =     -31.65755949 Ry
     estimated scf accuracy    <       0.00051820 Ry

     iteration # 22     ecut=    30.00 Ry     beta=0.70
     Davidson diagonalization with overlap
     ethr =  6.48E-06,  avg # of iterations =  1.0

     total cpu time spent up to now is        1.0 secs

     total energy              =     -31.65751978 Ry
     Harris-Foulkes estimate   =     -31.65757767 Ry
     estimated scf accuracy    <       0.00146461 Ry

     iteration # 23     ecut=    30.00 Ry     beta=0.70
     Davidson diagonalization with overlap
     ethr =  6.48E-06,  avg # of iterations =  1.0

     total cpu time spent up to now is        1.0 secs

     total energy              =     -31.65754820 Ry
     Harris-Foulkes estimate   =     -31.65754803 Ry
     estimated scf accuracy    <       0.00000033 Ry

     iteration # 24     ecut=    30.00 Ry     beta=0.70
     Davidson diagonalization with overlap
     ethr =  4.18E-09,  avg # of iterations =  1.0

     total cpu time spent up to now is        1.1 secs

     total energy              =     -31.65754833 Ry
     Harris-Foulkes estimate   =     -31.65754822 Ry
     estimated scf accuracy    <       0.00000009 Ry

     iteration # 25     ecut=    30.00 Ry     beta=0.70
     Davidson diagonalization with overlap
     ethr =  1.15E-09,  avg # of iterations =  1.0

     total cpu time spent up to now is        1.1 secs

     total energy              =     -31.65754839 Ry
     Harris-Foulkes estimate   =     -31.65754834 Ry
     estimated scf accuracy    <       0.00000054 Ry

     iteration # 26     ecut=    30.00 Ry     beta=0.70
     Davidson diagonalization with overlap
     ethr =  1.15E-09,  avg # of iterations =  1.0

     total cpu time spent up to now is        1.1 secs

     total energy              =     -31.65754845 Ry
     Harris-Foulkes estimate   =     -31.65754839 Ry
     estimated scf accuracy    <       0.00000015 Ry

     iteration # 27     ecut=    30.00 Ry     beta=0.70
     Davidson diagonalization with overlap
     ethr =  1.15E-09,  avg # of iterations =  1.0

     total cpu time spent up to now is        1.1 secs

     End of self-consistent calculation

          k = 0.0000 0.0000 0.0000 ( 22119 PWs)   bands (ev):

   -24.3874  -7.9353  -7.7415  -7.7414  -7.7205  -4.7232  -0.2656   0.5703

     the Fermi energy is    -7.6129 ev

!    total energy              =     -31.65754847 Ry
     Harris-Foulkes estimate   =     -31.65754846 Ry
     estimated scf accuracy    <          6.3E-09 Ry

     convergence has been achieved in  27 iterations

     Forces acting on atoms (Ry/au):

     atom    1 type  1   force =     0.02696865   -0.09762790   -0.05318531
     atom    2 type  1   force =    -0.02728410    0.09639532    0.05128634
     atom    3 type  2   force =     0.00031545    0.00123258    0.00189897

     Total force =     0.160497     Total SCF correction =     0.000035

     Molecular Dynamics Calculation

     Starting temperature  =  1000.00 K

     temperature is controlled by Andersen thermostat
     Collision frequency = 1.0000/timestep
     mass H                =     1.01
     mass O                =    16.00
     Time step             =   100.00 a.u.,  4.8378 femto-seconds

     Entering Dynamics:    iteration =     1
                           time      =   0.0048 pico-seconds


     Andersen thermostat:    3 collisions

ATOMIC_POSITIONS (bohr)
H        3.193046145  19.517537302  17.925347465
H        3.828256808  17.565825548  17.113461613
O       19.406054376  12.475224618  13.912164648


     kinetic energy (Ekin) =     0.00198670 Ry
     temperature           =   104.55809325 K 
     Ekin + Etot (const)   =   -31.65556178 Ry

     Linear momentum :   -0.0000000000    0.0000000000   -0.0000000000

     Writing output data file pwscf.save
     Check: negative starting charge=   -0.352090
     NEW-OLD atomic charge density approx. for the potential
     Check: negative starting charge=   -0.355738

     negative rho (up, down):  2.767E-02 0.000E+00

     total cpu time spent up to now is        1.4 secs

     per-process dynamical memory:    20.4 Mb

     Self-consistent Calculation

     iteration #  1     ecut=    30.00 Ry     beta=0.70
     Davidson diagonalization with overlap
     c_bands:  1 eigenvalues not converged
     ethr =  1.00E-06,  avg # of iterations = 20.0

     negative rho (up, down):  6.694E-03 0.000E+00

     total cpu time spent up to now is        1.5 secs

     total energy              =     -31.83395591 Ry
     Harris-Foulkes estimate   =     -31.83289861 Ry
     estimated scf accuracy    <       0.01766680 Ry

     iteration #  2     ecut=    30.00 Ry     beta=0.70
     Davidson diagonalization with overlap
     ethr =  2.21E-04,  avg # of iterations =  2.0

     negative rho (up, down):  1.153E-04 0.000E+00

     total cpu time spent up to now is        1.5 secs

     total energy              =     -31.83483500 Ry
     Harris-Foulkes estimate   =     -31.83317139 Ry
     estimated scf accuracy    <       0.00514070 Ry

     iteration #  3     ecut=    30.00 Ry     beta=0.70
     Davidson diagonalization with overlap
     ethr =  6.43E-05,  avg # of iterations =  8.0

     negative rho (up, down):  1.639E-03 0.000E+00

     total cpu time spent up to now is        1.6 secs

     total energy              =     -31.76476499 Ry
     Harris-Foulkes estimate   =     -31.98505938 Ry
     estimated scf accuracy    <       3.99631865 Ry

     iteration #  4     ecut=    30.00 Ry     beta=0.70
     Davidson diagonalization with overlap
     ethr =  6.43E-05,  avg # of iterations =  4.0

     negative rho (up, down):  4.947E-04 0.000E+00

     total cpu time spent up to now is        1.6 secs

     total energy              =     -31.83730232 Ry
     Harris-Foulkes estimate   =     -31.83887316 Ry
     estimated scf accuracy    <       0.01951626 Ry

     iteration #  5     ecut=    30.00 Ry     beta=0.70
     Davidson diagonalization with overlap
     ethr =  6.43E-05,  avg # of iterations =  2.0

     negative rho (up, down):  2.454E-04 0.000E+00

     total cpu time spent up to now is        1.6 secs

     total energy              =     -31.83801153 Ry
     Harris-Foulkes estimate   =     -31.83897140 Ry
     estimated scf accuracy    <       0.02140117 Ry

     iteration #  6     ecut=    30.00 Ry     beta=0.70
     Davidson diagonalization with overlap
     ethr =  6.43E-05,  avg # of iterations =  1.0

     negative rho (up, down):  2.714E-06 0.000E+00

     total cpu time spent up to now is        1.7 secs

     total energy              =     -31.83860162 Ry
     Harris-Foulkes estimate   =     -31.83860839 Ry
     estimated scf accuracy    <       0.00065152 Ry

     iteration #  7     ecut=    30.00 Ry     beta=0.70
     Davidson diagonalization with overlap
     ethr =  8.14E-06,  avg # of iterations =  1.0

     negative rho (up, down):  2.522E-08 0.000E+00

     total cpu time spent up to now is        1.7 secs

     total energy              =     -31.83859474 Ry
     Harris-Foulkes estimate   =     -31.83860644 Ry
     estimated scf accuracy    <       0.00015800 Ry

     iteration #  8     ecut=    30.00 Ry     beta=0.70
     Davidson diagonalization with overlap
     ethr =  1.97E-06,  avg # of iterations =  6.0

     negative rho (up, down):  1.337E-08 0.000E+00

     total cpu time spent up to now is        1.7 secs

     total energy              =     -31.83860246 Ry
     Harris-Foulkes estimate   =     -31.83860315 Ry
     estimated scf accuracy    <       0.00005435 Ry

     iteration #  9     ecut=    30.00 Ry     beta=0.70
     Davidson diagonalization with overlap
     ethr =  6.79E-07,  avg # of iterations =  1.0

     total cpu time spent up to now is        1.8 secs

     total energy              =     -31.83860097 Ry
     Harris-Foulkes estimate   =     -31.83860262 Ry
     estimated scf accuracy    <       0.00002267 Ry

     iteration # 10     ecut=    30.00 Ry     beta=0.70
     Davidson diagonalization with overlap
     ethr =  2.83E-07,  avg # of iterations =  1.0

     total cpu time spent up to now is        1.8 secs

     total energy              =     -31.83860188 Ry
     Harris-Foulkes estimate   =     -31.83860218 Ry
     estimated scf accuracy    <       0.00000781 Ry

     iteration # 11     ecut=    30.00 Ry     beta=0.70
     Davidson diagonalization with overlap
     ethr =  9.76E-08,  avg # of iterations =  1.0

     total cpu time spent up to now is        1.8 secs

     total energy              =     -31.83860186 Ry
     Harris-Foulkes estimate   =     -31.83860197 Ry
     estimated scf accuracy    <       0.00000062 Ry

     iteration # 12     ecut=    30.00 Ry     beta=0.70
     Davidson diagonalization with overlap
     ethr =  7.75E-09,  avg # of iterations =  1.0

     total cpu time spent up to now is        1.9 secs

     total energy              =     -31.83860186 Ry
     Harris-Foulkes estimate   =     -31.83860187 Ry
     estimated scf accuracy    <       0.00000005 Ry

     iteration # 13     ecut=    30.00 Ry     beta=0.70
     Davidson diagonalization with overlap
     ethr =  6.49E-10,  avg # of iterations =  1.0

     total cpu time spent up to now is        1.9 secs

     End of self-consistent calculation

          k = 0.0000 0.0000 0.0000 ( 22119 PWs)   bands (ev):

   -25.1008  -8.6101  -8.4015  -8.4014  -8.3922  -1.5173  -0.3225   0.6554

     the Fermi energy is    -8.2782 ev

!    total energy              =     -31.83860188 Ry
     Harris-Foulkes estimate   =     -31.83860186 Ry
     estimated scf accuracy    <          5.1E-09 Ry

     convergence has been achieved in  13 iterations

     Forces acting on atoms (Ry/au):

     atom    1 type  1   force =     0.05133489   -0.15553576   -0.06545902
     atom    2 type  1   force =    -0.05033371    0.15598452    0.06416605
     atom    3 type  2   force =    -0.00100118   -0.00044876    0.00129297

     Total force =     0.249191     Total SCF correction =     0.000104

     Entering Dynamics:    iteration =     2
                           time      =   0.0097 pico-seconds


     Andersen thermostat:    3 collisions

ATOMIC_POSITIONS (bohr)
H        3.734054489  18.012842399  17.398056058
H        3.234668461  19.241154065  17.438728025
O       19.409373489  12.464453371  13.924917476


     kinetic energy (Ekin) =     0.06306012 Ry
     temperature           =  3318.79803172 K 
     Ekin + Etot (const)   =   -31.77554176 Ry
     Message from routine dynamics:
     Total linear momentum <> 0

     Linear momentum :   -0.0624442710    0.3830992900    0.1107924186

     Writing output data file pwscf.save

     first order wave-functions extrapolation
     Check: negative starting charge=   -0.355738
     first order charge density extrapolation
     Check: negative starting charge=   -0.358419

     negative rho (up, down):  5.090E-02 0.000E+00

     total cpu time spent up to now is        2.2 secs

     per-process dynamical memory:    20.4 Mb

     Self-consistent Calculation

     iteration #  1     ecut=    30.00 Ry     beta=0.70
     Davidson diagonalization with overlap
     c_bands:  1 eigenvalues not converged
     ethr =  1.00E-06,  avg # of iterations = 20.0

     negative rho (up, down):  1.315E-02 0.000E+00

     total cpu time spent up to now is        2.3 secs

     total energy              =     -31.91599637 Ry
     Harris-Foulkes estimate   =     -31.90648641 Ry
     estimated scf accuracy    <       0.01177242 Ry

     iteration #  2     ecut=    30.00 Ry     beta=0.70
     Davidson diagonalization with overlap
     ethr =  1.47E-04,  avg # of iterations =  3.0

     negative rho (up, down):  3.253E-03 0.000E+00

     total cpu time spent up to now is        2.3 secs

     total energy              =     -31.92871998 Ry
     Harris-Foulkes estimate   =     -31.91848385 Ry
     estimated scf accuracy    <       0.00120251 Ry

     iteration #  3     ecut=    30.00 Ry     beta=0.70
     Davidson diagonalization with overlap
     ethr =  1.50E-05,  avg # of iterations = 15.0

     negative rho (up, down):  1.981E-04 0.000E+00

     total cpu time spent up to now is        2.4 secs

     total energy              =     -31.93068244 Ry
     Harris-Foulkes estimate   =     -31.92892855 Ry
     estimated scf accuracy    <       0.00011829 Ry

     iteration #  4     ecut=    30.00 Ry     beta=0.70
     Davidson diagonalization with overlap
     ethr =  1.48E-06,  avg # of iterations = 10.0

     negative rho (up, down):  5.967E-05 0.000E+00

     total cpu time spent up to now is        2.4 secs

     total energy              =     -31.93070411 Ry
     Harris-Foulkes estimate   =     -31.93071622 Ry
     estimated scf accuracy    <       0.00007562 Ry

     iteration #  5     ecut=    30.00 Ry     beta=0.70
     Davidson diagonalization with overlap
     ethr =  9.45E-07,  avg # of iterations =  1.0

     negative rho (up, down):  3.920E-06 0.000E+00

     total cpu time spent up to now is        2.5 secs

     total energy              =     -31.93071008 Ry
     Harris-Foulkes estimate   =     -31.93071211 Ry
     estimated scf accuracy    <       0.00000737 Ry

     iteration #  6     ecut=    30.00 Ry     beta=0.70
     Davidson diagonalization with overlap
     ethr =  9.21E-08,  avg # of iterations =  1.0

     total cpu time spent up to now is        2.5 secs

     total energy              =     -31.93071043 Ry
     Harris-Foulkes estimate   =     -31.93071075 Ry
     estimated scf accuracy    <       0.00000006 Ry

     iteration #  7     ecut=    30.00 Ry     beta=0.70
     Davidson diagonalization with overlap
     ethr =  7.20E-10,  avg # of iterations =  3.0

     total cpu time spent up to now is        2.5 secs

     total energy              =     -31.93071035 Ry
     Harris-Foulkes estimate   =     -31.93071050 Ry
     estimated scf accuracy    <       0.00000003 Ry

     iteration #  8     ecut=    30.00 Ry     beta=0.70
     Davidson diagonalization with overlap
     ethr =  3.69E-10,  avg # of iterations =  1.0

     total cpu time spent up to now is        2.6 secs

     End of self-consistent calculation

          k = 0.0000 0.0000 0.0000 ( 22119 PWs)   bands (ev):

   -25.1028 -10.3274  -8.4047  -8.4046  -8.4042  -0.3454   0.5121   0.7296

     the Fermi energy is    -8.2815 ev

!    total energy              =     -31.93071023 Ry
     Harris-Foulkes estimate   =     -31.93071035 Ry
     estimated scf accuracy    <          9.0E-09 Ry

     convergence has been achieved in   8 iterations

     Forces acting on atoms (Ry/au):

     atom    1 type  1   force =     0.03993053   -0.09609176   -0.00367478
     atom    2 type  1   force =    -0.03872185    0.09722771    0.00267612
     atom    3 type  2   force =    -0.00120868   -0.00113594    0.00099867

     Total force =     0.147665     Total SCF correction =     0.000219

     Entering Dynamics:    iteration =     3
                           time      =   0.0145 pico-seconds


     Andersen thermostat:    3 collisions

ATOMIC_POSITIONS (bohr)
H        3.930160165  17.313200025  16.998862321
H        2.930095827  19.928074945  17.382869663
O       19.416220466  12.465256415  13.953642640


     kinetic energy (Ekin) =     0.01258460 Ry
     temperature           =   662.31630329 K 
     Ekin + Etot (const)   =   -31.91812563 Ry
     Message from routine dynamics:
     Total linear momentum <> 0

     Linear momentum :    0.0466085428   -0.2329853359   -0.3364940106

     Writing output data file pwscf.save

     second order wave-functions extrapolation
     Check: negative starting charge=   -0.358419
     second order charge density extrapolation
     Check: negative starting charge=   -0.354120

     negative rho (up, down):  6.258E-02 0.000E+00

     total cpu time spent up to now is        2.9 secs

     per-process dynamical memory:    20.4 Mb

     Self-consistent Calculation

     iteration #  1     ecut=    30.00 Ry     beta=0.70
     Davidson diagonalization with overlap
     c_bands:  1 eigenvalues not converged
     ethr =  1.00E-06,  avg # of iterations = 20.0

     negative rho (up, down):  1.662E-02 0.000E+00

     total cpu time spent up to now is        3.0 secs

     total energy              =     -28.99995133 Ry
     Harris-Foulkes estimate   =     -31.99580598 Ry
     estimated scf accuracy    <       3.74912585 Ry

     iteration #  2     ecut=    30.00 Ry     beta=0.70
     Davidson diagonalization with overlap
     ethr =  1.00E-02,  avg # of iterations =  5.0

     negative rho (up, down):  6.269E-03 0.000E+00

     total cpu time spent up to now is        3.0 secs

     total energy              =     -31.24697805 Ry
     Harris-Foulkes estimate   =     -38.65006902 Ry
     estimated scf accuracy    <      23.40126174 Ry

     iteration #  3     ecut=    30.00 Ry     beta=0.70
     Davidson diagonalization with overlap
     ethr =  1.00E-02,  avg # of iterations =  2.0

     negative rho (up, down):  1.826E-02 0.000E+00

     total cpu time spent up to now is        3.1 secs

     total energy              =     -31.69002456 Ry
     Harris-Foulkes estimate   =     -31.54787846 Ry
     estimated scf accuracy    <      12.09602801 Ry

     iteration #  4     ecut=    30.00 Ry     beta=0.70
     Davidson diagonalization with overlap
     ethr =  1.00E-02,  avg # of iterations =  1.0

     negative rho (up, down):  1.734E-01 0.000E+00

     total cpu time spent up to now is        3.1 secs

     total energy              =     -32.49578766 Ry
     Harris-Foulkes estimate   =     -31.69552121 Ry
     estimated scf accuracy    <      12.23638775 Ry

     iteration #  5     ecut=    30.00 Ry     beta=0.70
     Davidson diagonalization with overlap
     ethr =  1.00E-02,  avg # of iterations =  1.0

     negative rho (up, down):  7.780E-01 0.000E+00

     total cpu time spent up to now is        3.1 secs

     total energy              =     -26.71565102 Ry
     Harris-Foulkes estimate   =     -32.50522315 Ry
     estimated scf accuracy    <      13.49839003 Ry

     iteration #  6     ecut=    30.00 Ry     beta=0.70
     Davidson diagonalization with overlap
     ethr =  1.00E-02,  avg # of iterations =  7.0

     negative rho (up, down):  5.170E-01 0.000E+00

     total cpu time spent up to now is        3.2 secs

     total energy              =     -34.06596625 Ry
     Harris-Foulkes estimate   =     -34.05693009 Ry
     estimated scf accuracy    <       7.55062343 Ry

     iteration #  7     ecut=    30.00 Ry     beta=0.70
     Davidson diagonalization with overlap
     ethr =  1.00E-02,  avg # of iterations =  1.0

     total cpu time spent up to now is        3.2 secs

     total energy              =     -32.25526827 Ry
     Harris-Foulkes estimate   =     -34.06818117 Ry
     estimated scf accuracy    <       7.44795513 Ry

     iteration #  8     ecut=    30.00 Ry     beta=0.70
     Davidson diagonalization with overlap
     ethr =  1.00E-02,  avg # of iterations =  2.0

     negative rho (up, down):  1.986E-03 0.000E+00

     total cpu time spent up to now is        3.2 secs

     total energy              =     -32.04045131 Ry
     Harris-Foulkes estimate   =     -32.33990968 Ry
     estimated scf accuracy    <       4.45775304 Ry

     iteration #  9     ecut=    30.00 Ry     beta=0.70
     Davidson diagonalization with overlap
     ethr =  1.00E-02,  avg # of iterations =  1.0

     negative rho (up, down):  2.137E-02 0.000E+00

     total cpu time spent up to now is        3.3 secs

     total energy              =     -31.83626008 Ry
     Harris-Foulkes estimate   =     -32.04201786 Ry
     estimated scf accuracy    <       4.02575005 Ry

     iteration # 10     ecut=    30.00 Ry     beta=0.70
     Davidson diagonalization with overlap
     ethr =  1.00E-02,  avg # of iterations =  1.0

     negative rho (up, down):  5.559E-03 0.000E+00

     total cpu time spent up to now is        3.3 secs

     total energy              =     -31.89749276 Ry
     Harris-Foulkes estimate   =     -31.84696968 Ry
     estimated scf accuracy    <       1.56503715 Ry

     iteration # 11     ecut=    30.00 Ry     beta=0.70
     Davidson diagonalization with overlap
     ethr =  1.00E-02,  avg # of iterations =  1.0

     negative rho (up, down):  6.857E-03 0.000E+00

     total cpu time spent up to now is        3.3 secs

     total energy              =     -31.85767569 Ry
     Harris-Foulkes estimate   =     -31.92929434 Ry
     estimated scf accuracy    <       3.83152620 Ry

     iteration # 12     ecut=    30.00 Ry     beta=0.70
     Davidson diagonalization with overlap
     ethr =  1.00E-02,  avg # of iterations =  1.0

     total cpu time spent up to now is        3.4 secs

     total energy              =     -31.32096888 Ry
     Harris-Foulkes estimate   =     -31.85880423 Ry
     estimated scf accuracy    <       3.27302453 Ry

     iteration # 13     ecut=    30.00 Ry     beta=0.70
     Davidson diagonalization with overlap
     ethr =  1.00E-02,  avg # of iterations =  1.0

     total cpu time spent up to now is        3.4 secs

     total energy              =     -31.78582150 Ry
     Harris-Foulkes estimate   =     -31.79514453 Ry
     estimated scf accuracy    <       0.10453886 Ry

     iteration # 14     ecut=    30.00 Ry     beta=0.70
     Davidson diagonalization with overlap
     ethr =  1.31E-03,  avg # of iterations =  4.0

     negative rho (up, down):  6.405E-03 0.000E+00

     total cpu time spent up to now is        3.5 secs

     total energy              =     -31.19919964 Ry
     Harris-Foulkes estimate   =     -31.84477972 Ry
     estimated scf accuracy    <       3.09662379 Ry

     iteration # 15     ecut=    30.00 Ry     beta=0.70
     Davidson diagonalization with overlap
     ethr =  1.31E-03,  avg # of iterations =  3.0

     negative rho (up, down):  1.431E-03 0.000E+00

     total cpu time spent up to now is        3.5 secs

     total energy              =     -31.81029120 Ry
     Harris-Foulkes estimate   =     -31.79147501 Ry
     estimated scf accuracy    <       0.08710403 Ry

     iteration # 16     ecut=    30.00 Ry     beta=0.70
     Davidson diagonalization with overlap
     ethr =  1.09E-03,  avg # of iterations =  1.0

     negative rho (up, down):  8.631E-06 0.000E+00

     total cpu time spent up to now is        3.5 secs

     total energy              =     -31.79762644 Ry
     Harris-Foulkes estimate   =     -31.81300910 Ry
     estimated scf accuracy    <       0.26411906 Ry

     iteration # 17     ecut=    30.00 Ry     beta=0.70
     Davidson diagonalization with overlap
     ethr =  1.09E-03,  avg # of iterations =  1.0

     negative rho (up, down):  1.321E-04 0.000E+00

     total cpu time spent up to now is        3.5 secs

     total energy              =     -31.80425078 Ry
     Harris-Foulkes estimate   =     -31.80109585 Ry
     estimated scf accuracy    <       0.10976050 Ry

     iteration # 18     ecut=    30.00 Ry     beta=0.70
     Davidson diagonalization with overlap
     ethr =  1.09E-03,  avg # of iterations =  1.0

     negative rho (up, down):  6.547E-04 0.000E+00

     total cpu time spent up to now is        3.6 secs

     total energy              =     -31.80417762 Ry
     Harris-Foulkes estimate   =     -31.80435587 Ry
     estimated scf accuracy    <       0.12548932 Ry

     iteration # 19     ecut=    30.00 Ry     beta=0.70
     Davidson diagonalization with overlap
     ethr =  1.09E-03,  avg # of iterations =  1.0

     negative rho (up, down):  7.067E-04 0.000E+00

     total cpu time spent up to now is        3.6 secs

     total energy              =     -31.80295469 Ry
     Harris-Foulkes estimate   =     -31.80419543 Ry
     estimated scf accuracy    <       0.12615716 Ry

     iteration # 20     ecut=    30.00 Ry     beta=0.70
     Davidson diagonalization with overlap
     ethr =  1.09E-03,  avg # of iterations =  1.0

     negative rho (up, down):  1.527E-03 0.000E+00

     total cpu time spent up to now is        3.6 secs

     total energy              =     -31.78641281 Ry
     Harris-Foulkes estimate   =     -31.80296998 Ry
     estimated scf accuracy    <       0.11938161 Ry

     iteration # 21     ecut=    30.00 Ry     beta=0.70
     Davidson diagonalization with overlap
     ethr =  1.09E-03,  avg # of iterations =  1.0

     negative rho (up, down):  1.263E-03 0.000E+00

     total cpu time spent up to now is        3.7 secs

     total energy              =     -31.79512675 Ry
     Harris-Foulkes estimate   =     -31.78751154 Ry
     estimated scf accuracy    <       0.08051974 Ry

     iteration # 22     ecut=    30.00 Ry     beta=0.70
     Davidson diagonalization with overlap
     ethr =  1.01E-03,  avg # of iterations =  1.0

     negative rho (up, down):  3.091E-03 0.000E+00

     total cpu time spent up to now is        3.7 secs

     total energy              =     -31.72241093 Ry
     Harris-Foulkes estimate   =     -31.79525063 Ry
     estimated scf accuracy    <       0.09566643 Ry

     iteration # 23     ecut=    30.00 Ry     beta=0.70
     Davidson diagonalization with overlap
     ethr =  1.01E-03,  avg # of iterations =  2.0

     negative rho (up, down):  7.658E-04 0.000E+00

     total cpu time spent up to now is        3.7 secs

     total energy              =     -31.48435556 Ry
     Harris-Foulkes estimate   =     -31.76209074 Ry
     estimated scf accuracy    <       1.74601391 Ry

     iteration # 24     ecut=    30.00 Ry     beta=0.70
     Davidson diagonalization with overlap
     ethr =  1.01E-03,  avg # of iterations =  1.0

     negative rho (up, down):  1.166E-03 0.000E+00

     total cpu time spent up to now is        3.8 secs

     total energy              =     -31.75723686 Ry
     Harris-Foulkes estimate   =     -31.76136176 Ry
     estimated scf accuracy    <       0.03465422 Ry

     iteration # 25     ecut=    30.00 Ry     beta=0.70
     Davidson diagonalization with overlap
     ethr =  4.33E-04,  avg # of iterations =  1.0

     negative rho (up, down):  4.001E-04 0.000E+00

     total cpu time spent up to now is        3.8 secs

     total energy              =     -31.75256830 Ry
     Harris-Foulkes estimate   =     -31.75739118 Ry
     estimated scf accuracy    <       0.02872801 Ry

     iteration # 26     ecut=    30.00 Ry     beta=0.70
     Davidson diagonalization with overlap
     ethr =  3.59E-04,  avg # of iterations =  1.0

     negative rho (up, down):  7.788E-07 0.000E+00

     total cpu time spent up to now is        3.8 secs

     total energy              =     -31.74792460 Ry
     Harris-Foulkes estimate   =     -31.75267126 Ry
     estimated scf accuracy    <       0.02127714 Ry

     iteration # 27     ecut=    30.00 Ry     beta=0.70
     Davidson diagonalization with overlap
     ethr =  2.66E-04,  avg # of iterations =  1.0

     negative rho (up, down):  4.055E-05 0.000E+00

     total cpu time spent up to now is        3.9 secs

     total energy              =     -31.74534466 Ry
     Harris-Foulkes estimate   =     -31.74807688 Ry
     estimated scf accuracy    <       0.01363517 Ry

     iteration # 28     ecut=    30.00 Ry     beta=0.70
     Davidson diagonalization with overlap
     ethr =  1.70E-04,  avg # of iterations =  1.0

     negative rho (up, down):  7.009E-05 0.000E+00

     total cpu time spent up to now is        3.9 secs

     total energy              =     -31.74400059 Ry
     Harris-Foulkes estimate   =     -31.74542061 Ry
     estimated scf accuracy    <       0.00926726 Ry

     iteration # 29     ecut=    30.00 Ry     beta=0.70
     Davidson diagonalization with overlap
     ethr =  1.16E-04,  avg # of iterations =  1.0

     negative rho (up, down):  1.154E-04 0.000E+00

     total cpu time spent up to now is        3.9 secs

     total energy              =     -31.74247251 Ry
     Harris-Foulkes estimate   =     -31.74401565 Ry
     estimated scf accuracy    <       0.00748700 Ry

     iteration # 30     ecut=    30.00 Ry     beta=0.70
     Davidson diagonalization with overlap
     ethr =  9.36E-05,  avg # of iterations =  1.0

     negative rho (up, down):  1.468E-06 0.000E+00

     total cpu time spent up to now is        4.0 secs

     total energy              =     -31.74665121 Ry
     Harris-Foulkes estimate   =     -31.74227151 Ry
     estimated scf accuracy    <       0.01174177 Ry

     iteration # 31     ecut=    30.00 Ry     beta=0.70
     Davidson diagonalization with overlap
     ethr =  9.36E-05,  avg # of iterations =  1.0

     negative rho (up, down):  2.393E-06 0.000E+00

     total cpu time spent up to now is        4.0 secs

     total energy              =     -31.74568947 Ry
     Harris-Foulkes estimate   =     -31.74563952 Ry
     estimated scf accuracy    <       0.00955874 Ry

     iteration # 32     ecut=    30.00 Ry     beta=0.70
     Davidson diagonalization with overlap
     ethr =  9.36E-05,  avg # of iterations =  1.0

     negative rho (up, down):  1.142E-05 0.000E+00

     total cpu time spent up to now is        4.0 secs

     total energy              =     -31.75101991 Ry
     Harris-Foulkes estimate   =     -31.74569371 Ry
     estimated scf accuracy    <       0.00966156 Ry

     iteration # 33     ecut=    30.00 Ry     beta=0.70
     Davidson diagonalization with overlap
     ethr =  9.36E-05,  avg # of iterations =  1.0

     negative rho (up, down):  2.871E-05 0.000E+00

     total cpu time spent up to now is        4.1 secs

     total energy              =     -31.75826703 Ry
     Harris-Foulkes estimate   =     -31.75128058 Ry
     estimated scf accuracy    <       0.01877060 Ry

     iteration # 34     ecut=    30.00 Ry     beta=0.70
     Davidson diagonalization with overlap
     ethr =  9.36E-05,  avg # of iterations =  1.0

     negative rho (up, down):  4.888E-05 0.000E+00

     total cpu time spent up to now is        4.1 secs

     total energy              =     -31.76949416 Ry
     Harris-Foulkes estimate   =     -31.75852772 Ry
     estimated scf accuracy    <       0.03078508 Ry

     iteration # 35     ecut=    30.00 Ry     beta=0.70
     Davidson diagonalization with overlap
     ethr =  9.36E-05,  avg # of iterations =  1.0

     negative rho (up, down):  2.831E-06 0.000E+00

     total cpu time spent up to now is        4.1 secs

     total energy              =     -31.74254932 Ry
     Harris-Foulkes estimate   =     -31.76985089 Ry
     estimated scf accuracy    <       0.04943284 Ry

     iteration # 36     ecut=    30.00 Ry     beta=0.70
     Davidson diagonalization with overlap
     ethr =  9.36E-05,  avg # of iterations =  2.0

     negative rho (up, down):  8.892E-07 0.000E+00

     total cpu time spent up to now is        4.2 secs

     total energy              =     -31.73960186 Ry
     Harris-Foulkes estimate   =     -31.74522039 Ry
     estimated scf accuracy    <       0.00914106 Ry

     iteration # 37     ecut=    30.00 Ry     beta=0.70
     Davidson diagonalization with overlap
     ethr =  9.36E-05,  avg # of iterations =  3.0

     negative rho (up, down):  5.455E-08 0.000E+00

     total cpu time spent up to now is        4.2 secs

     total energy              =     -31.72865288 Ry
     Harris-Foulkes estimate   =     -31.73838406 Ry
     estimated scf accuracy    <       0.07603771 Ry

     iteration # 38     ecut=    30.00 Ry     beta=0.70
     Davidson diagonalization with overlap
     ethr =  9.36E-05,  avg # of iterations =  1.0

     negative rho (up, down):  3.045E-08 0.000E+00

     total cpu time spent up to now is        4.2 secs

     total energy              =     -31.73436732 Ry
     Harris-Foulkes estimate   =     -31.74114327 Ry
     estimated scf accuracy    <       0.02163042 Ry

     iteration # 39     ecut=    30.00 Ry     beta=0.70
     Davidson diagonalization with overlap
     ethr =  9.36E-05,  avg # of iterations =  1.0

     negative rho (up, down):  3.026E-07 0.000E+00

     total cpu time spent up to now is        4.3 secs

     total energy              =     -31.72741851 Ry
     Harris-Foulkes estimate   =     -31.74620228 Ry
     estimated scf accuracy    <       0.65830180 Ry

     iteration # 40     ecut=    30.00 Ry     beta=0.70
     Davidson diagonalization with overlap
     ethr =  9.36E-05,  avg # of iterations =  1.0

     negative rho (up, down):  3.923E-06 0.000E+00

     total cpu time spent up to now is        4.3 secs

     total energy              =     -31.74437657 Ry
     Harris-Foulkes estimate   =     -31.73716511 Ry
     estimated scf accuracy    <       0.00019666 Ry

     iteration # 41     ecut=    30.00 Ry     beta=0.70
     Davidson diagonalization with overlap
     ethr =  2.46E-06,  avg # of iterations =  9.0

     negative rho (up, down):  1.276E-06 0.000E+00

     total cpu time spent up to now is        4.4 secs

     total energy              =     -31.85887948 Ry
     Harris-Foulkes estimate   =     -31.93660943 Ry
     estimated scf accuracy    <       3.66816426 Ry

     iteration # 42     ecut=    30.00 Ry     beta=0.70
     Davidson diagonalization with overlap
     ethr =  2.46E-06,  avg # of iterations =  4.0

     negative rho (up, down):  1.539E-06 0.000E+00

     total cpu time spent up to now is        4.4 secs

     total energy              =     -31.87360255 Ry
     Harris-Foulkes estimate   =     -31.85908722 Ry
     estimated scf accuracy    <       3.53117734 Ry

     iteration # 43     ecut=    30.00 Ry     beta=0.70
     Davidson diagonalization with overlap
     ethr =  2.46E-06,  avg # of iterations =  1.0

     negative rho (up, down):  5.167E-07 0.000E+00

     total cpu time spent up to now is        4.4 secs

     total energy              =     -31.77832384 Ry
     Harris-Foulkes estimate   =     -31.87361292 Ry
     estimated scf accuracy    <       3.55850960 Ry

     iteration # 44     ecut=    30.00 Ry     beta=0.70
     Davidson diagonalization with overlap
     ethr =  2.46E-06,  avg # of iterations =  5.0

     negative rho (up, down):  2.643E-08 0.000E+00

     total cpu time spent up to now is        4.5 secs

     total energy              =     -31.71426273 Ry
     Harris-Foulkes estimate   =     -31.78076838 Ry
     estimated scf accuracy    <       2.63779503 Ry

     iteration # 45     ecut=    30.00 Ry     beta=0.70
     Davidson diagonalization with overlap
     ethr =  2.46E-06,  avg # of iterations =  4.0

     total cpu time spent up to now is        4.5 secs

     total energy              =     -31.73631356 Ry
     Harris-Foulkes estimate   =     -31.73854304 Ry
     estimated scf accuracy    <       0.08743850 Ry

     iteration # 46     ecut=    30.00 Ry     beta=0.70
     Davidson diagonalization with overlap
     ethr =  2.46E-06,  avg # of iterations =  1.0

     total cpu time spent up to now is        4.6 secs

     total energy              =     -31.73712163 Ry
     Harris-Foulkes estimate   =     -31.73723011 Ry
     estimated scf accuracy    <       0.00357904 Ry

     iteration # 47     ecut=    30.00 Ry     beta=0.70
     Davidson diagonalization with overlap
     ethr =  2.46E-06,  avg # of iterations =  1.0

     total cpu time spent up to now is        4.6 secs

     total energy              =     -31.73713376 Ry
     Harris-Foulkes estimate   =     -31.73716744 Ry
     estimated scf accuracy    <       0.00014679 Ry

     iteration # 48     ecut=    30.00 Ry     beta=0.70
     Davidson diagonalization with overlap
     ethr =  1.83E-06,  avg # of iterations =  1.0

     total cpu time spent up to now is        4.6 secs

     total energy              =     -31.73886666 Ry
     Harris-Foulkes estimate   =     -31.73726330 Ry
     estimated scf accuracy    <       0.00409129 Ry

     iteration # 49     ecut=    30.00 Ry     beta=0.70
     Davidson diagonalization with overlap
     ethr =  1.83E-06,  avg # of iterations =  4.0

     total cpu time spent up to now is        4.7 secs

     total energy              =     -31.74013498 Ry
     Harris-Foulkes estimate   =     -31.74089241 Ry
     estimated scf accuracy    <       0.02436838 Ry

     iteration # 50     ecut=    30.00 Ry     beta=0.70
     Davidson diagonalization with overlap
     ethr =  1.83E-06,  avg # of iterations =  1.0

     total cpu time spent up to now is        4.7 secs

     total energy              =     -31.73990576 Ry
     Harris-Foulkes estimate   =     -31.74007068 Ry
     estimated scf accuracy    <       0.03196183 Ry

     iteration # 51     ecut=    30.00 Ry     beta=0.70
     Davidson diagonalization with overlap
     ethr =  1.83E-06,  avg # of iterations =  1.0

     total cpu time spent up to now is        4.7 secs

     total energy              =     -31.73963737 Ry
     Harris-Foulkes estimate   =     -31.73990454 Ry
     estimated scf accuracy    <       0.03310538 Ry

     iteration # 52     ecut=    30.00 Ry     beta=0.70
     Davidson diagonalization with overlap
     ethr =  1.83E-06,  avg # of iterations =  1.0

     total cpu time spent up to now is        4.8 secs

     total energy              =     -31.73902183 Ry
     Harris-Foulkes estimate   =     -31.73963374 Ry
     estimated scf accuracy    <       0.03452135 Ry

     iteration # 53     ecut=    30.00 Ry     beta=0.70
     Davidson diagonalization with overlap
     ethr =  1.83E-06,  avg # of iterations =  1.0

     total cpu time spent up to now is        4.8 secs

     total energy              =     -31.73942357 Ry
     Harris-Foulkes estimate   =     -31.73901332 Ry
     estimated scf accuracy    <       0.03505457 Ry

     iteration # 54     ecut=    30.00 Ry     beta=0.70
     Davidson diagonalization with overlap
     ethr =  1.83E-06,  avg # of iterations =  1.0

     total cpu time spent up to now is        4.8 secs

     total energy              =     -31.73736303 Ry
     Harris-Foulkes estimate   =     -31.73942335 Ry
     estimated scf accuracy    <       0.03511591 Ry

     iteration # 55     ecut=    30.00 Ry     beta=0.70
     Davidson diagonalization with overlap
     ethr =  1.83E-06,  avg # of iterations =  2.0

     total cpu time spent up to now is        4.9 secs

     total energy              =     -31.73538036 Ry
     Harris-Foulkes estimate   =     -31.73754700 Ry
     estimated scf accuracy    <       0.01404473 Ry

     iteration # 56     ecut=    30.00 Ry     beta=0.70
     Davidson diagonalization with overlap
     ethr =  1.83E-06,  avg # of iterations =  3.0

     total cpu time spent up to now is        4.9 secs

     total energy              =     -31.73543635 Ry
     Harris-Foulkes estimate   =     -31.73962236 Ry
     estimated scf accuracy    <       0.16456758 Ry

     iteration # 57     ecut=    30.00 Ry     beta=0.70
     Davidson diagonalization with overlap
     ethr =  1.83E-06,  avg # of iterations =  2.0

     total cpu time spent up to now is        4.9 secs

     total energy              =     -31.73718855 Ry
     Harris-Foulkes estimate   =     -31.73724121 Ry
     estimated scf accuracy    <       0.00462146 Ry

     iteration # 58     ecut=    30.00 Ry     beta=0.70
     Davidson diagonalization with overlap
     ethr =  1.83E-06,  avg # of iterations =  1.0

     total cpu time spent up to now is        5.0 secs

     total energy              =     -31.73717009 Ry
     Harris-Foulkes estimate   =     -31.73719672 Ry
     estimated scf accuracy    <       0.00222819 Ry

     iteration # 59     ecut=    30.00 Ry     beta=0.70
     Davidson diagonalization with overlap
     ethr =  1.83E-06,  avg # of iterations =  1.0

     total cpu time spent up to now is        5.0 secs

     total energy              =     -31.73714148 Ry
     Harris-Foulkes estimate   =     -31.73717416 Ry
     estimated scf accuracy    <       0.00106083 Ry

     iteration # 60     ecut=    30.00 Ry     beta=0.70
     Davidson diagonalization with overlap
     ethr =  1.83E-06,  avg # of iterations =  1.0

     total cpu time spent up to now is        5.0 secs

     total energy              =     -31.73714923 Ry
     Harris-Foulkes estimate   =     -31.73715391 Ry
     estimated scf accuracy    <       0.00005600 Ry

     iteration # 61     ecut=    30.00 Ry     beta=0.70
     Davidson diagonalization with overlap
     ethr =  7.00E-07,  avg # of iterations =  1.0

     total cpu time spent up to now is        5.1 secs

     total energy              =     -31.73715162 Ry
     Harris-Foulkes estimate   =     -31.73715398 Ry
     estimated scf accuracy    <       0.00005926 Ry

     iteration # 62     ecut=    30.00 Ry     beta=0.70
     Davidson diagonalization with overlap
     ethr =  7.00E-07,  avg # of iterations =  1.0

     total cpu time spent up to now is        5.1 secs

     total energy              =     -31.73715276 Ry
     Harris-Foulkes estimate   =     -31.73715271 Ry
     estimated scf accuracy    <       0.00000017 Ry

     iteration # 63     ecut=    30.00 Ry     beta=0.70
     Davidson diagonalization with overlap
     ethr =  2.18E-09,  avg # of iterations =  1.0

     total cpu time spent up to now is        5.1 secs

     total energy              =     -31.73715224 Ry
     Harris-Foulkes estimate   =     -31.73715296 Ry
     estimated scf accuracy    <       0.00001229 Ry

     iteration # 64     ecut=    30.00 Ry     beta=0.70
     Davidson diagonalization with overlap
     ethr =  2.18E-09,  avg # of iterations =  1.0

     total cpu time spent up to now is        5.2 secs

     total energy              =     -31.73715261 Ry
     Harris-Foulkes estimate   =     -31.73715272 Ry
     estimated scf accuracy    <       0.00000180 Ry

     iteration # 65     ecut=    30.00 Ry     beta=0.70
     Davidson diagonalization with overlap
     ethr =  2.18E-09,  avg # of iterations =  1.0

     total cpu time spent up to now is        5.2 secs

     total energy              =     -31.73715266 Ry
     Harris-Foulkes estimate   =     -31.73715267 Ry
     estimated scf accuracy    <       0.00000014 Ry

     iteration # 66     ecut=    30.00 Ry     beta=0.70
     Davidson diagonalization with overlap
     ethr =  1.79E-09,  avg # of iterations =  1.0

     total cpu time spent up to now is        5.2 secs

     End of self-consistent calculation

          k = 0.0000 0.0000 0.0000 ( 22119 PWs)   bands (ev):

   -24.6805  -8.2099  -8.0130  -8.0127  -7.9973  -3.3766  -0.2923   0.5898

     the Fermi energy is    -7.8863 ev

!    total energy              =     -31.73715265 Ry
     Harris-Foulkes estimate   =     -31.73715266 Ry
     estimated scf accuracy    <          5.6E-09 Ry

     convergence has been achieved in  66 iterations

     Forces acting on atoms (Ry/au):

     atom    1 type  1   force =    -0.05342104    0.13820444    0.01909162
     atom    2 type  1   force =     0.05334031   -0.13839342   -0.02108465
     atom    3 type  2   force =     0.00008073    0.00018898    0.00199303

     Total force =     0.211578     Total SCF correction =     0.000018

     Entering Dynamics:    iteration =     4
                           time      =   0.0194 pico-seconds


     Andersen thermostat:    3 collisions

ATOMIC_POSITIONS (bohr)
H        3.329131319  18.864247364  17.080579220
H        3.730540795  18.414442525  17.372796058
O       19.403632323  12.462894598  13.949120157


     kinetic energy (Ekin) =     0.07711784 Ry
     temperature           =  4058.64320805 K 
     Ekin + Etot (const)   =   -31.66003481 Ry
     Message from routine dynamics:
     Total linear momentum <> 0

     Linear momentum :    0.5333964326   -0.1439288914   -0.0774910638

     Writing output data file pwscf.save

     second order wave-functions extrapolation
     Check: negative starting charge=   -0.354120
     second order charge density extrapolation
     Check: negative starting charge=   -0.359157

     negative rho (up, down):  7.382E-02 0.000E+00

     total cpu time spent up to now is        5.6 secs

     per-process dynamical memory:    20.4 Mb

     Self-consistent Calculation

     iteration #  1     ecut=    30.00 Ry     beta=0.70
     Davidson diagonalization with overlap
     c_bands:  1 eigenvalues not converged
     ethr =  1.00E-06,  avg # of iterations = 20.0

     negative rho (up, down):  1.656E-02 0.000E+00

     total cpu time spent up to now is        5.7 secs

     total energy              =     -31.24381928 Ry
     Harris-Foulkes estimate   =     -31.62188777 Ry
     estimated scf accuracy    <       0.38236233 Ry

     iteration #  2     ecut=    30.00 Ry     beta=0.70
     Davidson diagonalization with overlap
     ethr =  4.78E-03,  avg # of iterations =  2.0

     negative rho (up, down):  1.771E-03 0.000E+00

     total cpu time spent up to now is        5.8 secs

     total energy              =     -31.31722331 Ry
     Harris-Foulkes estimate   =     -31.31095440 Ry
     estimated scf accuracy    <       0.00985448 Ry

     iteration #  3     ecut=    30.00 Ry     beta=0.70
     Davidson diagonalization with overlap
     ethr =  1.23E-04,  avg # of iterations =  8.0

     negative rho (up, down):  9.380E-04 0.000E+00

     total cpu time spent up to now is        5.8 secs

     total energy              =     -31.31910992 Ry
     Harris-Foulkes estimate   =     -31.31918638 Ry
     estimated scf accuracy    <       0.00151568 Ry

     iteration #  4     ecut=    30.00 Ry     beta=0.70
     Davidson diagonalization with overlap
     ethr =  1.89E-05,  avg # of iterations =  8.0

     negative rho (up, down):  3.018E-04 0.000E+00

     total cpu time spent up to now is        5.8 secs

     total energy              =     -31.31930116 Ry
     Harris-Foulkes estimate   =     -31.31939832 Ry
     estimated scf accuracy    <       0.00087667 Ry

     iteration #  5     ecut=    30.00 Ry     beta=0.70
     Davidson diagonalization with overlap
     ethr =  1.10E-05,  avg # of iterations =  2.0

     total cpu time spent up to now is        5.9 secs

     total energy              =     -31.31937394 Ry
     Harris-Foulkes estimate   =     -31.31936414 Ry
     estimated scf accuracy    <       0.00000425 Ry

     iteration #  6     ecut=    30.00 Ry     beta=0.70
     Davidson diagonalization with overlap
     ethr =  5.31E-08,  avg # of iterations =  6.0

     total cpu time spent up to now is        5.9 secs

     total energy              =     -31.31937428 Ry
     Harris-Foulkes estimate   =     -31.31937488 Ry
     estimated scf accuracy    <       0.00000012 Ry

     iteration #  7     ecut=    30.00 Ry     beta=0.70
     Davidson diagonalization with overlap
     ethr =  1.50E-09,  avg # of iterations =  2.0

     total cpu time spent up to now is        6.0 secs

     total energy              =     -31.31937360 Ry
     Harris-Foulkes estimate   =     -31.31937432 Ry
     estimated scf accuracy    <       0.00000011 Ry

     iteration #  8     ecut=    30.00 Ry     beta=0.70
     Davidson diagonalization with overlap
     ethr =  1.41E-09,  avg # of iterations =  2.0

     total cpu time spent up to now is        6.0 secs

     total energy              =     -31.31937347 Ry
     Harris-Foulkes estimate   =     -31.31937361 Ry
     estimated scf accuracy    <       0.00000001 Ry

     iteration #  9     ecut=    30.00 Ry     beta=0.70
     Davidson diagonalization with overlap
     ethr =  1.56E-10,  avg # of iterations =  2.0

     total cpu time spent up to now is        6.0 secs

     End of self-consistent calculation

          k = 0.0000 0.0000 0.0000 ( 22119 PWs)   bands (ev):

   -25.1074 -12.6734  -8.4102  -8.4098  -8.4097  -0.3536   0.7179   1.0055

     the Fermi energy is    -8.2869 ev

!    total energy              =     -31.31937338 Ry
     Harris-Foulkes estimate   =     -31.31937347 Ry
     estimated scf accuracy    <          1.1E-09 Ry

     convergence has been achieved in   9 iterations

     Forces acting on atoms (Ry/au):

     atom    1 type  1   force =    -1.73075431    1.94051893   -1.26092229
     atom    2 type  1   force =     1.73180795   -1.93954566    1.25963812
     atom    3 type  2   force =    -0.00105364   -0.00097326    0.00128418

     Total force =     4.086409     Total SCF correction =     0.000059

     Entering Dynamics:    iteration =     5
                           time      =   0.0242 pico-seconds


     Andersen thermostat:    3 collisions

ATOMIC_POSITIONS (bohr)
H      -15.259276883  40.086924238   3.056486507
H       22.257376604  -2.017170121  31.227495110
O       19.407519080  12.412958669  13.959813132


     kinetic energy (Ekin) =    22.11837960 Ry
     temperature           = ************** K 
     Ekin + Etot (const)   =    -9.20099378 Ry
     Message from routine dynamics:
     Total linear momentum <> 0

     Linear momentum :    0.0997145716   -0.7694104410    0.0409930594

     Writing output data file pwscf.save

     second order wave-functions extrapolation
     Check: negative starting charge=   -0.359157
     second order charge density extrapolation
     Check: negative starting charge=   -0.345533

     negative rho (up, down):  1.025E+01 0.000E+00

     total cpu time spent up to now is        6.4 secs

     per-process dynamical memory:    20.4 Mb

     Self-consistent Calculation

     iteration #  1     ecut=    30.00 Ry     beta=0.70
     Davidson diagonalization with overlap
     c_bands:  3 eigenvalues not converged
     ethr =  1.00E-06,  avg # of iterations = 20.0

     negative rho (up, down):  2.273E+00 0.000E+00

     total cpu time spent up to now is        6.5 secs

     total energy              =      43.76649018 Ry
     Harris-Foulkes estimate   =   -4416.40092739 Ry
     estimated scf accuracy    <      63.73599915 Ry

     iteration #  2     ecut=    30.00 Ry     beta=0.70
     Davidson diagonalization with overlap
     ethr =  1.00E-02,  avg # of iterations = 15.0

     negative rho (up, down):  6.801E-01 0.000E+00

     total cpu time spent up to now is        6.5 secs

     total energy              =     116.25581566 Ry
     Harris-Foulkes estimate   =  -13175.33103741 Ry
     estimated scf accuracy    <      31.43598174 Ry

     iteration #  3     ecut=    30.00 Ry     beta=0.70
     Davidson diagonalization with overlap
     ethr =  1.00E-02,  avg # of iterations =  9.0

     negative rho (up, down):  3.085E-01 0.000E+00

     total cpu time spent up to now is        6.6 secs

     total energy              =     144.43795156 Ry
     Harris-Foulkes estimate   =   -2211.99460572 Ry
     estimated scf accuracy    <      29.98041800 Ry

     iteration #  4     ecut=    30.00 Ry     beta=0.70
     Davidson diagonalization with overlap
     ethr =  1.00E-02,  avg # of iterations = 14.0

     negative rho (up, down):  2.442E-01 0.000E+00

     total cpu time spent up to now is        6.7 secs

     total energy              =      24.24309044 Ry
     Harris-Foulkes estimate   =    -125.02055854 Ry
     estimated scf accuracy    <      28.34191180 Ry

     iteration #  5     ecut=    30.00 Ry     beta=0.70
     Davidson diagonalization with overlap
     ethr =  1.00E-02,  avg # of iterations =  6.0

     negative rho (up, down):  2.773E-01 0.000E+00

     total cpu time spent up to now is        6.7 secs

     total energy              =     -54.58377371 Ry
     Harris-Foulkes estimate   =     -64.03548790 Ry
     estimated scf accuracy    <      44.64582565 Ry

     iteration #  6     ecut=    30.00 Ry     beta=0.70
     Davidson diagonalization with overlap
     ethr =  1.00E-02,  avg # of iterations = 11.0

     negative rho (up, down):  1.898E-01 0.000E+00

     total cpu time spent up to now is        6.8 secs

     total energy              =     128.68318526 Ry
     Harris-Foulkes estimate   =    -381.32589398 Ry
     estimated scf accuracy    <      33.42839231 Ry

     iteration #  7     ecut=    30.00 Ry     beta=0.70
     Davidson diagonalization with overlap
     ethr =  1.00E-02,  avg # of iterations = 10.0

     negative rho (up, down):  2.545E+00 0.000E+00

     total cpu time spent up to now is        6.8 secs

     total energy              =     -34.21595867 Ry
     Harris-Foulkes estimate   =     -54.28929970 Ry
     estimated scf accuracy    <      32.30726097 Ry

     iteration #  8     ecut=    30.00 Ry     beta=0.70
     Davidson diagonalization with overlap
     ethr =  1.00E-02,  avg # of iterations =  8.0

     negative rho (up, down):  2.241E+00 0.000E+00

     total cpu time spent up to now is        6.9 secs

     total energy              =      31.26042083 Ry
     Harris-Foulkes estimate   =    -965.23666758 Ry
     estimated scf accuracy    <      69.85860560 Ry

     iteration #  9     ecut=    30.00 Ry     beta=0.70
     Davidson diagonalization with overlap
     ethr =  1.00E-02,  avg # of iterations =  9.0

     negative rho (up, down):  1.872E+00 0.000E+00

     total cpu time spent up to now is        7.0 secs

     total energy              =      78.06552234 Ry
     Harris-Foulkes estimate   =   -3734.29182782 Ry
     estimated scf accuracy    <      77.19169540 Ry

     iteration # 10     ecut=    30.00 Ry     beta=0.70
     Davidson diagonalization with overlap
     ethr =  1.00E-02,  avg # of iterations =  9.0

     negative rho (up, down):  1.876E+00 0.000E+00

     total cpu time spent up to now is        7.0 secs

     total energy              =    -249.44505532 Ry
     Harris-Foulkes estimate   =    -700.02389617 Ry
     estimated scf accuracy    <      62.08550039 Ry

     iteration # 11     ecut=    30.00 Ry     beta=0.70
     Davidson diagonalization with overlap
     ethr =  1.00E-02,  avg # of iterations =  9.0

     negative rho (up, down):  1.627E+00 0.000E+00

     total cpu time spent up to now is        7.1 secs

     total energy              =     118.70005017 Ry
     Harris-Foulkes estimate   =    -422.47354600 Ry
     estimated scf accuracy    <      60.13410121 Ry

     iteration # 12     ecut=    30.00 Ry     beta=0.70
     Davidson diagonalization with overlap
     ethr =  1.00E-02,  avg # of iterations = 17.0

     negative rho (up, down):  2.831E-01 0.000E+00

     total cpu time spent up to now is        7.1 secs

     total energy              =      42.25600199 Ry
     Harris-Foulkes estimate   =    -972.61072793 Ry
     estimated scf accuracy    <      55.14899022 Ry

     iteration # 13     ecut=    30.00 Ry     beta=0.70
     Davidson diagonalization with overlap
     ethr =  1.00E-02,  avg # of iterations =  8.0

     negative rho (up, down):  1.145E-01 0.000E+00

     total cpu time spent up to now is        7.2 secs

     total energy              =     111.15877326 Ry
     Harris-Foulkes estimate   =    -339.70265799 Ry
     estimated scf accuracy    <      38.09356326 Ry

     iteration # 14     ecut=    30.00 Ry     beta=0.70
     Davidson diagonalization with overlap
     ethr =  1.00E-02,  avg # of iterations = 11.0

     negative rho (up, down):  1.811E-01 0.000E+00

     total cpu time spent up to now is        7.3 secs

     total energy              =     -45.58849348 Ry
     Harris-Foulkes estimate   =     -48.01256388 Ry
     estimated scf accuracy    <      10.57102117 Ry

     iteration # 15     ecut=    30.00 Ry     beta=0.70
     Davidson diagonalization with overlap
     ethr =  1.00E-02,  avg # of iterations =  7.0

     negative rho (up, down):  1.452E-01 0.000E+00

     total cpu time spent up to now is        7.3 secs

     total energy              =      99.98633796 Ry
     Harris-Foulkes estimate   =   -1284.26429756 Ry
     estimated scf accuracy    <      36.68961322 Ry

     iteration # 16     ecut=    30.00 Ry     beta=0.70
     Davidson diagonalization with overlap
     ethr =  1.00E-02,  avg # of iterations =  9.0

     negative rho (up, down):  3.167E-01 0.000E+00

     total cpu time spent up to now is        7.4 secs

     total energy              =     -10.20756697 Ry
     Harris-Foulkes estimate   =     -67.39752189 Ry
     estimated scf accuracy    <      10.83564006 Ry

     iteration # 17     ecut=    30.00 Ry     beta=0.70
     Davidson diagonalization with overlap
     ethr =  1.00E-02,  avg # of iterations = 11.0

     negative rho (up, down):  3.452E-01 0.000E+00

     total cpu time spent up to now is        7.4 secs

     total energy              =      -3.50623695 Ry
     Harris-Foulkes estimate   =    -145.73549775 Ry
     estimated scf accuracy    <      42.72520181 Ry

     iteration # 18     ecut=    30.00 Ry     beta=0.70
     Davidson diagonalization with overlap
     ethr =  1.00E-02,  avg # of iterations =  9.0

     negative rho (up, down):  3.263E-01 0.000E+00

     total cpu time spent up to now is        7.5 secs

     total energy              =    -980.81112476 Ry
     Harris-Foulkes estimate   =    -775.97736943 Ry
     estimated scf accuracy    <      34.05540473 Ry

     iteration # 19     ecut=    30.00 Ry     beta=0.70
     Davidson diagonalization with overlap
     ethr =  1.00E-02,  avg # of iterations =  7.0

     negative rho (up, down):  6.453E-02 0.000E+00

     total cpu time spent up to now is        7.5 secs

     total energy              =     112.26527845 Ry
     Harris-Foulkes estimate   =   -4280.30764118 Ry
     estimated scf accuracy    <      36.61251377 Ry

     iteration # 20     ecut=    30.00 Ry     beta=0.70
     Davidson diagonalization with overlap
     ethr =  1.00E-02,  avg # of iterations = 11.0

     negative rho (up, down):  1.836E-01 0.000E+00

     total cpu time spent up to now is        7.6 secs

     total energy              =     -25.78539357 Ry
     Harris-Foulkes estimate   =    -108.29108422 Ry
     estimated scf accuracy    <      35.27780118 Ry

     iteration # 21     ecut=    30.00 Ry     beta=0.70
     Davidson diagonalization with overlap
     ethr =  1.00E-02,  avg # of iterations =  4.0

     negative rho (up, down):  2.676E-01 0.000E+00

     total cpu time spent up to now is        7.7 secs

     total energy              =     -59.45934953 Ry
     Harris-Foulkes estimate   =    -863.04155384 Ry
     estimated scf accuracy    <      33.43386073 Ry

     iteration # 22     ecut=    30.00 Ry     beta=0.70
     Davidson diagonalization with overlap
     ethr =  1.00E-02,  avg # of iterations =  8.0

     negative rho (up, down):  2.805E-01 0.000E+00

     total cpu time spent up to now is        7.7 secs

     total energy              =      97.29587245 Ry
     Harris-Foulkes estimate   =   -2285.85059404 Ry
     estimated scf accuracy    <      32.98787840 Ry

     iteration # 23     ecut=    30.00 Ry     beta=0.70
     Davidson diagonalization with overlap
     ethr =  1.00E-02,  avg # of iterations = 15.0

     negative rho (up, down):  3.276E-01 0.000E+00

     total cpu time spent up to now is        7.8 secs

     total energy              =     -83.37189137 Ry
     Harris-Foulkes estimate   =    -217.41274132 Ry
     estimated scf accuracy    <      34.74460744 Ry

     iteration # 24     ecut=    30.00 Ry     beta=0.70
     Davidson diagonalization with overlap
     ethr =  1.00E-02,  avg # of iterations =  6.0

     negative rho (up, down):  3.720E-01 0.000E+00

     total cpu time spent up to now is        7.8 secs

     total energy              =     -43.46355056 Ry
     Harris-Foulkes estimate   =    -786.38032072 Ry
     estimated scf accuracy    <      33.33868000 Ry

     iteration # 25     ecut=    30.00 Ry     beta=0.70
     Davidson diagonalization with overlap
     ethr =  1.00E-02,  avg # of iterations =  6.0

     negative rho (up, down):  5.001E-01 0.000E+00

     total cpu time spent up to now is        7.9 secs

     total energy              =      90.69798574 Ry
     Harris-Foulkes estimate   =   -2346.11921639 Ry
     estimated scf accuracy    <      39.40267190 Ry

     iteration # 26     ecut=    30.00 Ry     beta=0.70
     Davidson diagonalization with overlap
     ethr =  1.00E-02,  avg # of iterations =  8.0

     negative rho (up, down):  1.024E+00 0.000E+00

     total cpu time spent up to now is        8.0 secs

     total energy              =      58.96444464 Ry
     Harris-Foulkes estimate   =   -1487.60337434 Ry
     estimated scf accuracy    <      23.45525295 Ry

     iteration # 27     ecut=    30.00 Ry     beta=0.70
     Davidson diagonalization with overlap
     ethr =  1.00E-02,  avg # of iterations = 10.0

     negative rho (up, down):  7.290E-02 0.000E+00

     total cpu time spent up to now is        8.0 secs

     total energy              =     136.85960088 Ry
     Harris-Foulkes estimate   =   -6670.72116975 Ry
     estimated scf accuracy    <      21.80975366 Ry

     iteration # 28     ecut=    30.00 Ry     beta=0.70
     Davidson diagonalization with overlap
     ethr =  1.00E-02,  avg # of iterations = 11.0

     negative rho (up, down):  1.638E-02 0.000E+00

     total cpu time spent up to now is        8.1 secs

     total energy              =     -22.19690397 Ry
     Harris-Foulkes estimate   =    -102.24361617 Ry
     estimated scf accuracy    <      47.33638541 Ry

     iteration # 29     ecut=    30.00 Ry     beta=0.70
     Davidson diagonalization with overlap
     ethr =  1.00E-02,  avg # of iterations =  6.0

     negative rho (up, down):  1.583E-03 0.000E+00

     total cpu time spent up to now is        8.1 secs

     total energy              =      31.59839981 Ry
     Harris-Foulkes estimate   =    -665.78506453 Ry
     estimated scf accuracy    <      18.71920585 Ry

     iteration # 30     ecut=    30.00 Ry     beta=0.70
     Davidson diagonalization with overlap
     ethr =  1.00E-02,  avg # of iterations =  5.0

     negative rho (up, down):  3.394E-07 0.000E+00

     total cpu time spent up to now is        8.2 secs

     total energy              =     -55.11777086 Ry
     Harris-Foulkes estimate   =     -62.67248215 Ry
     estimated scf accuracy    <      43.94354006 Ry

     iteration # 31     ecut=    30.00 Ry     beta=0.70
     Davidson diagonalization with overlap
     ethr =  1.00E-02,  avg # of iterations =  1.0

     negative rho (up, down):  2.008E-01 0.000E+00

     total cpu time spent up to now is        8.2 secs

     total energy              =     -40.73641274 Ry
     Harris-Foulkes estimate   =     -55.17292774 Ry
     estimated scf accuracy    <      34.22947973 Ry

     iteration # 32     ecut=    30.00 Ry     beta=0.70
     Davidson diagonalization with overlap
     ethr =  1.00E-02,  avg # of iterations = 13.0

     negative rho (up, down):  1.974E-01 0.000E+00

     total cpu time spent up to now is        8.3 secs

     total energy              =      26.22442146 Ry
     Harris-Foulkes estimate   =     -58.22283529 Ry
     estimated scf accuracy    <      22.49932700 Ry

     iteration # 33     ecut=    30.00 Ry     beta=0.70
     Davidson diagonalization with overlap
     ethr =  1.00E-02,  avg # of iterations =  7.0

     negative rho (up, down):  4.885E-01 0.000E+00

     total cpu time spent up to now is        8.3 secs

     total energy              =     -32.77652285 Ry
     Harris-Foulkes estimate   =     -40.25453039 Ry
     estimated scf accuracy    <      14.48719358 Ry

     iteration # 34     ecut=    30.00 Ry     beta=0.70
     Davidson diagonalization with overlap
     ethr =  1.00E-02,  avg # of iterations =  8.0

     negative rho (up, down):  1.196E-01 0.000E+00

     total cpu time spent up to now is        8.4 secs

     total energy              =    -151.06680431 Ry
     Harris-Foulkes estimate   =    -739.25708570 Ry
     estimated scf accuracy    <      53.23560561 Ry

     iteration # 35     ecut=    30.00 Ry     beta=0.70
     Davidson diagonalization with overlap
     ethr =  1.00E-02,  avg # of iterations = 12.0

     negative rho (up, down):  2.037E-01 0.000E+00

     total cpu time spent up to now is        8.5 secs

     total energy              =     -35.94165465 Ry
     Harris-Foulkes estimate   =    -660.91270145 Ry
     estimated scf accuracy    <      16.88975970 Ry

     iteration # 36     ecut=    30.00 Ry     beta=0.70
     Davidson diagonalization with overlap
     ethr =  1.00E-02,  avg # of iterations =  8.0

     negative rho (up, down):  9.688E-02 0.000E+00

     total cpu time spent up to now is        8.5 secs

     total energy              =     121.30652533 Ry
     Harris-Foulkes estimate   =    -917.24402015 Ry
     estimated scf accuracy    <      55.20256473 Ry

     iteration # 37     ecut=    30.00 Ry     beta=0.70
     Davidson diagonalization with overlap
     ethr =  1.00E-02,  avg # of iterations = 13.0

     negative rho (up, down):  1.176E-03 0.000E+00

     total cpu time spent up to now is        8.6 secs

     total energy              =      22.99553673 Ry
     Harris-Foulkes estimate   =    -134.65064154 Ry
     estimated scf accuracy    <      14.34454552 Ry

     iteration # 38     ecut=    30.00 Ry     beta=0.70
     Davidson diagonalization with overlap
     ethr =  1.00E-02,  avg # of iterations =  4.0

     negative rho (up, down):  1.054E-01 0.000E+00

     total cpu time spent up to now is        8.6 secs

     total energy              =      -6.34320394 Ry
     Harris-Foulkes estimate   =     -53.72583021 Ry
     estimated scf accuracy    <       6.69388527 Ry

     iteration # 39     ecut=    30.00 Ry     beta=0.70
     Davidson diagonalization with overlap
     ethr =  1.00E-02,  avg # of iterations =  5.0

     negative rho (up, down):  1.724E-01 0.000E+00

     total cpu time spent up to now is        8.7 secs

     total energy              =   -1443.97452026 Ry
     Harris-Foulkes estimate   =   -1979.90088583 Ry
     estimated scf accuracy    <      14.18503245 Ry

     iteration # 40     ecut=    30.00 Ry     beta=0.70
     Davidson diagonalization with overlap
     ethr =  1.00E-02,  avg # of iterations =  6.0

     negative rho (up, down):  1.708E-01 0.000E+00

     total cpu time spent up to now is        8.7 secs

     total energy              =      45.16382611 Ry
     Harris-Foulkes estimate   =   -2471.85915177 Ry
     estimated scf accuracy    <      30.65748466 Ry

     iteration # 41     ecut=    30.00 Ry     beta=0.70
     Davidson diagonalization with overlap
     ethr =  1.00E-02,  avg # of iterations =  6.0

     negative rho (up, down):  1.672E-01 0.000E+00

     total cpu time spent up to now is        8.8 secs

     total energy              =    -513.51479148 Ry
     Harris-Foulkes estimate   =    -675.11497904 Ry
     estimated scf accuracy    <      58.87595378 Ry

     iteration # 42     ecut=    30.00 Ry     beta=0.70
     Davidson diagonalization with overlap
     ethr =  1.00E-02,  avg # of iterations =  8.0

     negative rho (up, down):  4.394E-01 0.000E+00

     total cpu time spent up to now is        8.8 secs

     total energy              =     -52.35610527 Ry
     Harris-Foulkes estimate   =   -4002.43122732 Ry
     estimated scf accuracy    <      53.85791331 Ry

     iteration # 43     ecut=    30.00 Ry     beta=0.70
     Davidson diagonalization with overlap
     ethr =  1.00E-02,  avg # of iterations =  9.0

     negative rho (up, down):  4.286E-01 0.000E+00

     total cpu time spent up to now is        8.9 secs

     total energy              =    2932.18949060 Ry
     Harris-Foulkes estimate   =   -1676.34606250 Ry
[...]
     Harris-Foulkes estimate   =  -11424.37474235 Ry
     estimated scf accuracy    <      13.67848452 Ry

     iteration # 59     ecut=    30.00 Ry     beta=0.70
     Davidson diagonalization with overlap
     ethr =  1.00E-02,  avg # of iterations =  6.0

     negative rho (up, down):  2.196E-01 0.000E+00

     total cpu time spent up to now is        9.8 secs

     total energy              =      65.03442326 Ry
     Harris-Foulkes estimate   =    -224.17670743 Ry
     estimated scf accuracy    <      14.63655418 Ry

     iteration # 60     ecut=    30.00 Ry     beta=0.70
     Davidson diagonalization with overlap
     ethr =  1.00E-02,  avg # of iterations =  7.0

     negative rho (up, down):  3.591E-01 0.000E+00

     total cpu time spent up to now is        9.8 secs

     total energy              =    -487.44665760 Ry
     Harris-Foulkes estimate   =   -1067.66084896 Ry
     estimated scf accuracy    <      36.15134445 Ry

     iteration # 61     ecut=    30.00 Ry     beta=0.70
     Davidson diagonalization with overlap
     ethr =  1.00E-02,  avg # of iterations =  5.0

     negative rho (up, down):  5.100E-01 0.000E+00

     total cpu time spent up to now is        9.9 secs

     total energy              =     141.65333814 Ry
     Harris-Foulkes estimate   =   -7341.33267474 Ry
     estimated scf accuracy    <      30.16388347 Ry

     iteration # 62     ecut=    30.00 Ry     beta=0.70
     Davidson diagonalization with overlap
     ethr =  1.00E-02,  avg # of iterations = 10.0

     negative rho (up, down):  5.111E-01 0.000E+00

     total cpu time spent up to now is       10.0 secs

     total energy              =     -57.53996592 Ry
     Harris-Foulkes estimate   =     -88.34654822 Ry
     estimated scf accuracy    <      17.12751428 Ry

     iteration # 63     ecut=    30.00 Ry     beta=0.70
     Davidson diagonalization with overlap
     ethr =  1.00E-02,  avg # of iterations =  5.0

     negative rho (up, down):  4.579E-01 0.000E+00

     total cpu time spent up to now is       10.0 secs

     total energy              =      83.09532371 Ry
     Harris-Foulkes estimate   =   -2400.40853271 Ry
     estimated scf accuracy    <      30.46822196 Ry

     iteration # 64     ecut=    30.00 Ry     beta=0.70
     Davidson diagonalization with overlap
     ethr =  1.00E-02,  avg # of iterations = 10.0

     negative rho (up, down):  8.975E-02 0.000E+00

     total cpu time spent up to now is       10.1 secs

     total energy              =       9.26334884 Ry
     Harris-Foulkes estimate   =    -124.21319422 Ry
     estimated scf accuracy    <      13.63185618 Ry

     iteration # 65     ecut=    30.00 Ry     beta=0.70
     Davidson diagonalization with overlap
     ethr =  1.00E-02,  avg # of iterations = 10.0

     negative rho (up, down):  3.185E-01 0.000E+00

     total cpu time spent up to now is       10.1 secs

     total energy              =     120.93612884 Ry
     Harris-Foulkes estimate   =    -859.13133781 Ry
     estimated scf accuracy    <      32.18182954 Ry

     iteration # 66     ecut=    30.00 Ry     beta=0.70
     Davidson diagonalization with overlap
     ethr =  1.00E-02,  avg # of iterations =  5.0

     negative rho (up, down):  3.701E-01 0.000E+00

     total cpu time spent up to now is       10.2 secs

     total energy              =       2.94270086 Ry
     Harris-Foulkes estimate   =    -280.03728898 Ry
     estimated scf accuracy    <      25.15308114 Ry

     iteration # 67     ecut=    30.00 Ry     beta=0.70
     Davidson diagonalization with overlap
     ethr =  1.00E-02,  avg # of iterations =  6.0

     negative rho (up, down):  6.427E-01 0.000E+00

     total cpu time spent up to now is       10.2 secs

     total energy              =      70.69700549 Ry
     Harris-Foulkes estimate   =   -1864.86570976 Ry
     estimated scf accuracy    <      17.11613484 Ry

     iteration # 68     ecut=    30.00 Ry     beta=0.70
     Davidson diagonalization with overlap
     ethr =  1.00E-02,  avg # of iterations = 10.0

     negative rho (up, down):  6.225E-01 0.000E+00

     total cpu time spent up to now is       10.3 secs

     total energy              =     -73.21543132 Ry
     Harris-Foulkes estimate   =    -747.16243406 Ry
     estimated scf accuracy    <      20.55342338 Ry

     iteration # 69     ecut=    30.00 Ry     beta=0.70
     Davidson diagonalization with overlap
     ethr =  1.00E-02,  avg # of iterations = 11.0

     negative rho (up, down):  7.792E-02 0.000E+00

     total cpu time spent up to now is       10.3 secs

     total energy              =    -728.77208958 Ry
     Harris-Foulkes estimate   =    -973.24189447 Ry
     estimated scf accuracy    <      36.28534645 Ry

     iteration # 70     ecut=    30.00 Ry     beta=0.70
     Davidson diagonalization with overlap
     ethr =  1.00E-02,  avg # of iterations =  8.0

     negative rho (up, down):  5.346E-02 0.000E+00

     total cpu time spent up to now is       10.4 secs

     total energy              =     118.49665421 Ry
     Harris-Foulkes estimate   =   -1472.13629424 Ry
     estimated scf accuracy    <      48.03536312 Ry

     iteration # 71     ecut=    30.00 Ry     beta=0.70
     Davidson diagonalization with overlap
     ethr =  1.00E-02,  avg # of iterations =  6.0

     negative rho (up, down):  2.658E-01 0.000E+00

     total cpu time spent up to now is       10.4 secs

     total energy              =      34.04106229 Ry
     Harris-Foulkes estimate   =    -350.36206976 Ry
     estimated scf accuracy    <      15.89032909 Ry

     iteration # 72     ecut=    30.00 Ry     beta=0.70
     Davidson diagonalization with overlap
     ethr =  1.00E-02,  avg # of iterations =  4.0

     negative rho (up, down):  5.206E-01 0.000E+00

     total cpu time spent up to now is       10.5 secs

     total energy              =      79.09840978 Ry
     Harris-Foulkes estimate   =    -643.94783084 Ry
     estimated scf accuracy    <      26.70468109 Ry

     iteration # 73     ecut=    30.00 Ry     beta=0.70
     Davidson diagonalization with overlap
     ethr =  1.00E-02,  avg # of iterations =  8.0

     negative rho (up, down):  7.755E-01 0.000E+00

     total cpu time spent up to now is       10.6 secs

     total energy              =      66.57984472 Ry
     Harris-Foulkes estimate   =    -314.79279955 Ry
     estimated scf accuracy    <      47.31175026 Ry

     iteration # 74     ecut=    30.00 Ry     beta=0.70
     Davidson diagonalization with overlap
     ethr =  1.00E-02,  avg # of iterations =  5.0

     negative rho (up, down):  9.506E-01 0.000E+00

     total cpu time spent up to now is       10.6 secs

     total energy              =     107.87733003 Ry
     Harris-Foulkes estimate   =   -1534.08048565 Ry
     estimated scf accuracy    <      34.99037064 Ry

     iteration # 75     ecut=    30.00 Ry     beta=0.70
     Davidson diagonalization with overlap
     ethr =  1.00E-02,  avg # of iterations = 10.0

     negative rho (up, down):  6.260E-01 0.000E+00

     total cpu time spent up to now is       10.7 secs

     total energy              =     102.97606737 Ry
     Harris-Foulkes estimate   =    -479.26443658 Ry
     estimated scf accuracy    <      36.47281636 Ry

     iteration # 76     ecut=    30.00 Ry     beta=0.70
     Davidson diagonalization with overlap
     ethr =  1.00E-02,  avg # of iterations =  9.0

     negative rho (up, down):  8.309E-01 0.000E+00

     total cpu time spent up to now is       10.7 secs

     total energy              =    -314.44421968 Ry
     Harris-Foulkes estimate   =    -266.69675648 Ry
     estimated scf accuracy    <      41.74722360 Ry

     iteration # 77     ecut=    30.00 Ry     beta=0.70
     Davidson diagonalization with overlap
     ethr =  1.00E-02,  avg # of iterations =  6.0

     negative rho (up, down):  1.054E+00 0.000E+00

     total cpu time spent up to now is       10.8 secs

     total energy              =      97.47127056 Ry
     Harris-Foulkes estimate   =   -3577.53465544 Ry
     estimated scf accuracy    <      32.65191780 Ry

     iteration # 78     ecut=    30.00 Ry     beta=0.70
     Davidson diagonalization with overlap
     ethr =  1.00E-02,  avg # of iterations =  7.0

     negative rho (up, down):  9.880E-01 0.000E+00

     total cpu time spent up to now is       10.8 secs

     total energy              =     -16.86714194 Ry
     Harris-Foulkes estimate   =    -573.26208604 Ry
     estimated scf accuracy    <      17.51289449 Ry

     iteration # 79     ecut=    30.00 Ry     beta=0.70
     Davidson diagonalization with overlap
     ethr =  1.00E-02,  avg # of iterations =  6.0

     negative rho (up, down):  4.318E-01 0.000E+00

     total cpu time spent up to now is       10.9 secs

     total energy              =      37.99166702 Ry
     Harris-Foulkes estimate   =   -3043.11131213 Ry
     estimated scf accuracy    <      33.55029873 Ry

     iteration # 80     ecut=    30.00 Ry     beta=0.70
     Davidson diagonalization with overlap
     ethr =  1.00E-02,  avg # of iterations =  8.0

     negative rho (up, down):  6.426E-01 0.000E+00

     total cpu time spent up to now is       10.9 secs

     total energy              =      33.79963929 Ry
     Harris-Foulkes estimate   =   -1262.41863516 Ry
     estimated scf accuracy    <      37.51112639 Ry

     iteration # 81     ecut=    30.00 Ry     beta=0.70
     Davidson diagonalization with overlap
     ethr =  1.00E-02,  avg # of iterations =  9.0

     negative rho (up, down):  8.484E-01 0.000E+00

     total cpu time spent up to now is       11.0 secs

     total energy              =   -2574.17982908 Ry
     Harris-Foulkes estimate   =   -5970.64026400 Ry
     estimated scf accuracy    <      29.32771963 Ry

     iteration # 82     ecut=    30.00 Ry     beta=0.70
     Davidson diagonalization with overlap
     ethr =  1.00E-02,  avg # of iterations =  6.0

     negative rho (up, down):  9.312E-01 0.000E+00

     total cpu time spent up to now is       11.0 secs

     total energy              =     -51.24823211 Ry
     Harris-Foulkes estimate   =  -16184.03598107 Ry
     estimated scf accuracy    <      21.09627653 Ry

     iteration # 83     ecut=    30.00 Ry     beta=0.70
     Davidson diagonalization with overlap
     ethr =  1.00E-02,  avg # of iterations =  7.0

     negative rho (up, down):  7.597E-01 0.000E+00

     total cpu time spent up to now is       11.1 secs

     total energy              =     -16.39481066 Ry
     Harris-Foulkes estimate   =   -6905.31128798 Ry
     estimated scf accuracy    <      29.07048011 Ry

     iteration # 84     ecut=    30.00 Ry     beta=0.70
     Davidson diagonalization with overlap
     ethr =  1.00E-02,  avg # of iterations =  8.0

     negative rho (up, down):  8.163E-01 0.000E+00

     total cpu time spent up to now is       11.2 secs

     total energy              =    -128.02382780 Ry
     Harris-Foulkes estimate   =   -1779.99065674 Ry
     estimated scf accuracy    <      24.12012859 Ry

     iteration # 85     ecut=    30.00 Ry     beta=0.70
     Davidson diagonalization with overlap
     ethr =  1.00E-02,  avg # of iterations =  8.0

     negative rho (up, down):  1.342E-01 0.000E+00

     total cpu time spent up to now is       11.2 secs

     total energy              =   -7290.88150901 Ry
     Harris-Foulkes estimate   =  -22177.21673994 Ry
     estimated scf accuracy    <      23.14690184 Ry

     iteration # 86     ecut=    30.00 Ry     beta=0.70
     Davidson diagonalization with overlap
     ethr =  1.00E-02,  avg # of iterations =  7.0

     negative rho (up, down):  3.868E-01 0.000E+00

     total cpu time spent up to now is       11.3 secs

     total energy              =     135.78195394 Ry
     Harris-Foulkes estimate   =  -12723.46466838 Ry
     estimated scf accuracy    <      19.69758536 Ry

     iteration # 87     ecut=    30.00 Ry     beta=0.70
     Davidson diagonalization with overlap
     ethr =  1.00E-02,  avg # of iterations =  7.0

     negative rho (up, down):  2.624E-01 0.000E+00

     total cpu time spent up to now is       11.4 secs

     total energy              =     106.69417996 Ry
     Harris-Foulkes estimate   =    -420.30987258 Ry
     estimated scf accuracy    <      36.04328403 Ry

     iteration # 88     ecut=    30.00 Ry     beta=0.70
     Davidson diagonalization with overlap
     ethr =  1.00E-02,  avg # of iterations = 12.0

     negative rho (up, down):  2.445E-02 0.000E+00

     total cpu time spent up to now is       11.5 secs

     total energy              =     -22.76097018 Ry
     Harris-Foulkes estimate   =    -279.87845078 Ry
     estimated scf accuracy    <      52.21986573 Ry

     iteration # 89     ecut=    30.00 Ry     beta=0.70
     Davidson diagonalization with overlap
     ethr =  1.00E-02,  avg # of iterations =  5.0

     negative rho (up, down):  5.541E-03 0.000E+00

     total cpu time spent up to now is       11.6 secs

     total energy              =     -46.63179125 Ry
     Harris-Foulkes estimate   =    -507.02789482 Ry
     estimated scf accuracy    <      36.05357435 Ry

     iteration # 90     ecut=    30.00 Ry     beta=0.70
     Davidson diagonalization with overlap
     ethr =  1.00E-02,  avg # of iterations =  8.0

     negative rho (up, down):  1.390E-02 0.000E+00

     total cpu time spent up to now is       11.7 secs

     total energy              =     -77.03208810 Ry
     Harris-Foulkes estimate   =     -76.51877148 Ry
     estimated scf accuracy    <      59.45138749 Ry

     iteration # 91     ecut=    30.00 Ry     beta=0.70
     Davidson diagonalization with overlap
     ethr =  1.00E-02,  avg # of iterations =  9.0

     negative rho (up, down):  1.346E-02 0.000E+00

     total cpu time spent up to now is       11.8 secs

     total energy              =      26.74455872 Ry
     Harris-Foulkes estimate   =    -295.51699300 Ry
     estimated scf accuracy    <      30.14635627 Ry

     iteration # 92     ecut=    30.00 Ry     beta=0.70
     Davidson diagonalization with overlap
     ethr =  1.00E-02,  avg # of iterations =  6.0

     negative rho (up, down):  2.952E-01 0.000E+00

     total cpu time spent up to now is       11.8 secs

     total energy              =    -209.64733210 Ry
     Harris-Foulkes estimate   =    -113.05016128 Ry
     estimated scf accuracy    <      38.98303088 Ry

     iteration # 93     ecut=    30.00 Ry     beta=0.70
     Davidson diagonalization with overlap
     ethr =  1.00E-02,  avg # of iterations =  8.0

     negative rho (up, down):  3.977E-01 0.000E+00

     total cpu time spent up to now is       11.9 secs

     total energy              =      58.78372312 Ry
     Harris-Foulkes estimate   =   -2685.13667973 Ry
     estimated scf accuracy    <      37.53580731 Ry

     iteration # 94     ecut=    30.00 Ry     beta=0.70
     Davidson diagonalization with overlap
     ethr =  1.00E-02,  avg # of iterations =  7.0

     negative rho (up, down):  7.130E-01 0.000E+00

     total cpu time spent up to now is       12.0 secs

     total energy              =      -5.74835368 Ry
     Harris-Foulkes estimate   =    -345.91682178 Ry
     estimated scf accuracy    <      24.14991403 Ry

     iteration # 95     ecut=    30.00 Ry     beta=0.70
     Davidson diagonalization with overlap
     ethr =  1.00E-02,  avg # of iterations = 11.0

     negative rho (up, down):  8.662E-01 0.000E+00

     total cpu time spent up to now is       12.1 secs

     total energy              =      83.55790453 Ry
     Harris-Foulkes estimate   =   -1142.84389313 Ry
     estimated scf accuracy    <      37.19728517 Ry

     iteration # 96     ecut=    30.00 Ry     beta=0.70
     Davidson diagonalization with overlap
     ethr =  1.00E-02,  avg # of iterations = 10.0

     negative rho (up, down):  4.366E-01 0.000E+00

     total cpu time spent up to now is       12.2 secs

     total energy              =      55.83762388 Ry
     Harris-Foulkes estimate   =  -10277.00795500 Ry
     estimated scf accuracy    <      32.13913894 Ry

     iteration # 97     ecut=    30.00 Ry     beta=0.70
     Davidson diagonalization with overlap
     ethr =  1.00E-02,  avg # of iterations =  7.0

     negative rho (up, down):  6.755E-01 0.000E+00

     total cpu time spent up to now is       12.2 secs

     total energy              =      -2.08769136 Ry
     Harris-Foulkes estimate   =   -1153.39855226 Ry
     estimated scf accuracy    <      42.68544870 Ry

     iteration # 98     ecut=    30.00 Ry     beta=0.70
     Davidson diagonalization with overlap
     ethr =  1.00E-02,  avg # of iterations =  8.0

     negative rho (up, down):  2.985E-01 0.000E+00

     total cpu time spent up to now is       12.3 secs

     total energy              =      74.81491010 Ry
     Harris-Foulkes estimate   =   -1172.78345171 Ry
     estimated scf accuracy    <      35.85932274 Ry

     iteration # 99     ecut=    30.00 Ry     beta=0.70
     Davidson diagonalization with overlap
     ethr =  1.00E-02,  avg # of iterations =  8.0

     negative rho (up, down):  2.430E-01 0.000E+00

     total cpu time spent up to now is       12.4 secs

     total energy              =      38.64421837 Ry
     Harris-Foulkes estimate   =   -6829.80990584 Ry
     estimated scf accuracy    <      59.09832060 Ry

     iteration #100     ecut=    30.00 Ry     beta=0.70
     Davidson diagonalization with overlap
     ethr =  1.00E-02,  avg # of iterations =  9.0

     negative rho (up, down):  2.908E-01 0.000E+00

     total cpu time spent up to now is       12.4 secs

     total energy              =     102.94184214 Ry
     Harris-Foulkes estimate   =   -1110.12679839 Ry
     estimated scf accuracy    <      22.40300366 Ry

     End of self-consistent calculation

     convergence NOT achieved after 100 iterations: stopping

     Writing output data file pwscf.save
 
     init_run     :      0.09s CPU      0.11s WALL (       1 calls)
     electrons    :      8.88s CPU     10.82s WALL (       6 calls)
     update_pot   :      0.66s CPU      0.95s WALL (       5 calls)
     forces       :      0.13s CPU      0.14s WALL (       5 calls)

     Called by init_run:
     wfcinit      :      0.01s CPU      0.02s WALL (       1 calls)
     potinit      :      0.02s CPU      0.03s WALL (       1 calls)

     Called by electrons:
     c_bands      :      4.82s CPU      5.05s WALL (     223 calls)
     sum_band     :      0.66s CPU      0.71s WALL (     223 calls)
     v_of_rho     :      1.68s CPU      1.77s WALL (     229 calls)
     mix_rho      :      1.47s CPU      2.57s WALL (     223 calls)

     Called by c_bands:
     init_us_2    :      0.02s CPU      0.03s WALL (     447 calls)
     cegterg      :      4.77s CPU      4.92s WALL (     223 calls)

     Called by sum_band:

     Called by *egterg:
     h_psi        :      3.96s CPU      4.08s WALL (    1396 calls)
     g_psi        :      0.04s CPU      0.04s WALL (    1172 calls)
     cdiaghg      :      0.29s CPU      0.30s WALL (    1390 calls)

     Called by h_psi:
     h_psi:pot    :      3.94s CPU      4.06s WALL (    1396 calls)
     h_psi:calbec :      0.11s CPU      0.12s WALL (    1396 calls)
     vloc_psi     :      3.82s CPU      3.92s WALL (    1396 calls)
     add_vuspsi   :      0.01s CPU      0.01s WALL (    1396 calls)

     General routines
     calbec       :      0.14s CPU      0.17s WALL (    1420 calls)
     fft          :      1.08s CPU      1.14s WALL (    2529 calls)
     fftw         :      3.88s CPU      4.01s WALL (   16634 calls)
     davcio       :      0.26s CPU      0.94s WALL (    3941 calls)
 
     Parallel routines
     fft_scatter  :      1.91s CPU      2.03s WALL (   19163 calls)
 
     PWSCF        :     9.96s CPU        12.52s WALL

 
   This run was terminated on:   1:59:25  11Feb2018            

=------------------------------------------------------------------------------=
   JOB DONE.
=------------------------------------------------------------------------------=
