
     Program PWSCF v.6.0 (svn rev. 13079) starts on 11Feb2018 at  2: 1:53 

     This program is part of the open-source Quantum ESPRESSO suite
     for quantum simulation of materials; please cite
         "P. Giannozzi et al., J. Phys.:Condens. Matter 21 395502 (2009);
          URL http://www.quantum-espresso.org", 
     in publications or presentations arising from this work. More details at
     http://www.quantum-espresso.org/quote

     Parallel version (MPI), running on    28 processors
     R & G space division:  proc/nbgrp/npool/nimage =      28
     Reading input from inputs/water-1-md/435.in

     Current dimensions of program PWSCF are:
     Max number of different atomic species (ntypx) = 10
     Max number of k-points (npk) =  40000
     Max angular momentum in pseudopotentials (lmaxx) =  3

     Subspace diagonalization in iterative solution of the eigenvalue problem:
     a serial algorithm will be used

 
     Parallelization info
     --------------------
     sticks:   dense  smooth     PW     G-vecs:    dense   smooth      PW
     Min         136     136     33                 6338     6338     787
     Max         137     137     34                 6341     6341     792
     Sum        3809    3809    949               177509   177509   22119
 


     bravais-lattice index     =            1
     lattice parameter (alat)  =      20.0000  a.u.
     unit-cell volume          =    8000.0000 (a.u.)^3
     number of atoms/cell      =            3
     number of atomic types    =            2
     number of electrons       =         8.00
     number of Kohn-Sham states=            8
     kinetic-energy cutoff     =      30.0000  Ry
     charge density cutoff     =     120.0000  Ry
     convergence threshold     =      1.0E-08
     mixing beta               =       0.7000
     number of iterations used =            8  plain     mixing
     Exchange-correlation      = BLYP ( 1  3  1  3 0 0)
     nstep                     =         5000


     celldm(1)=  20.000000  celldm(2)=   0.000000  celldm(3)=   0.000000
     celldm(4)=   0.000000  celldm(5)=   0.000000  celldm(6)=   0.000000

     crystal axes: (cart. coord. in units of alat)
               a(1) = (   1.000000   0.000000   0.000000 )  
               a(2) = (   0.000000   1.000000   0.000000 )  
               a(3) = (   0.000000   0.000000   1.000000 )  

     reciprocal axes: (cart. coord. in units 2 pi/alat)
               b(1) = (  1.000000  0.000000  0.000000 )  
               b(2) = (  0.000000  1.000000  0.000000 )  
               b(3) = (  0.000000  0.000000  1.000000 )  


     PseudoPot. # 1 for  H read from file:
     ./H.blyp-hgh.UPF
     MD5 check sum: c576e69559cde411e611be972c763230
     Pseudo is Norm-conserving, Zval =  1.0
     Generated in analytical, separable form
     Using radial grid of  929 points,  0 beta functions with: 

     PseudoPot. # 2 for  O read from file:
     ./O.blyp-hgh.UPF
     MD5 check sum: d0b7156309aa9befef28faac7bc56342
     Pseudo is Norm-conserving, Zval =  6.0
     Generated in analytical, separable form
     Using radial grid of 1095 points,  1 beta functions with: 
                l(1) =   0

     atomic species   valence    mass     pseudopotential
        H              1.00     1.01000      H( 1.00)
        O              6.00    16.00000      O( 1.00)

     No symmetry found



   Cartesian axes

     site n.     atom                  positions (alat units)
         1           H   tau(   1) = (   0.8821906   0.0556313   0.5369942  )
         2           H   tau(   2) = (   0.3994665   0.3490133   0.1292972  )
         3           O   tau(   3) = (   0.3864724   0.6284706   0.1817332  )

     number of k points=     1  Marzari-Vanderbilt smearing, width (Ry)=  0.0250
                       cart. coord. in units 2pi/alat
        k(    1) = (   0.0000000   0.0000000   0.0000000), wk =   2.0000000

     Dense  grid:   177509 G-vectors     FFT dimensions: (  72,  72,  72)

     Estimated max dynamical RAM per process >       6.09Mb

     Estimated total allocated dynamical RAM >     170.64Mb

     Initial potential from superposition of free atoms
     Check: negative starting charge=   -0.344145

     starting charge    7.99998, renormalised to    8.00000

     negative rho (up, down):  3.441E-01 0.000E+00
     Starting wfc are    6 randomized atomic wfcs +    2 random wfc

     total cpu time spent up to now is        0.3 secs

     per-process dynamical memory:    18.8 Mb

     Self-consistent Calculation

     iteration #  1     ecut=    30.00 Ry     beta=0.70
     Davidson diagonalization with overlap
     ethr =  1.00E-02,  avg # of iterations =  7.0

     negative rho (up, down):  8.392E-02 0.000E+00

     total cpu time spent up to now is        0.3 secs

     total energy              =     -28.57752625 Ry
     Harris-Foulkes estimate   =     -32.07430757 Ry
     estimated scf accuracy    <       4.02330372 Ry

     iteration #  2     ecut=    30.00 Ry     beta=0.70
     Davidson diagonalization with overlap
     ethr =  1.00E-02,  avg # of iterations =  4.0

     negative rho (up, down):  6.177E-02 0.000E+00

     total cpu time spent up to now is        0.4 secs

     total energy              =     -32.40240174 Ry
     Harris-Foulkes estimate   =     -37.13014489 Ry
     estimated scf accuracy    <      11.71306485 Ry

     iteration #  3     ecut=    30.00 Ry     beta=0.70
     Davidson diagonalization with overlap
     ethr =  1.00E-02,  avg # of iterations =  2.0

     negative rho (up, down):  6.475E-02 0.000E+00

     total cpu time spent up to now is        0.4 secs

     total energy              =     -33.00951587 Ry
     Harris-Foulkes estimate   =     -32.72959136 Ry
     estimated scf accuracy    <       4.43410568 Ry

     iteration #  4     ecut=    30.00 Ry     beta=0.70
     Davidson diagonalization with overlap
     ethr =  1.00E-02,  avg # of iterations =  1.0

     negative rho (up, down):  2.530E-02 0.000E+00

     total cpu time spent up to now is        0.4 secs

     total energy              =     -30.27570655 Ry
     Harris-Foulkes estimate   =     -33.01093444 Ry
     estimated scf accuracy    <       4.86768619 Ry

     iteration #  5     ecut=    30.00 Ry     beta=0.70
     Davidson diagonalization with overlap
     ethr =  1.00E-02,  avg # of iterations =  3.0

     negative rho (up, down):  1.452E-02 0.000E+00

     total cpu time spent up to now is        0.5 secs

     total energy              =     -33.02787519 Ry
     Harris-Foulkes estimate   =     -33.23395017 Ry
     estimated scf accuracy    <      13.32429062 Ry

     iteration #  6     ecut=    30.00 Ry     beta=0.70
     Davidson diagonalization with overlap
     ethr =  1.00E-02,  avg # of iterations =  1.0

     negative rho (up, down):  7.499E-03 0.000E+00

     total cpu time spent up to now is        0.5 secs

     total energy              =     -32.72925930 Ry
     Harris-Foulkes estimate   =     -33.04307096 Ry
     estimated scf accuracy    <      10.03878028 Ry

     iteration #  7     ecut=    30.00 Ry     beta=0.70
     Davidson diagonalization with overlap
     ethr =  1.00E-02,  avg # of iterations =  1.0

     negative rho (up, down):  5.807E-03 0.000E+00

     total cpu time spent up to now is        0.5 secs

     total energy              =     -32.48852972 Ry
     Harris-Foulkes estimate   =     -32.78865826 Ry
     estimated scf accuracy    <       5.67499025 Ry

     iteration #  8     ecut=    30.00 Ry     beta=0.70
     Davidson diagonalization with overlap
     ethr =  1.00E-02,  avg # of iterations =  1.0

     negative rho (up, down):  5.549E-02 0.000E+00

     total cpu time spent up to now is        0.5 secs

     total energy              =     -31.58796423 Ry
     Harris-Foulkes estimate   =     -32.49264952 Ry
     estimated scf accuracy    <       5.09738007 Ry

     iteration #  9     ecut=    30.00 Ry     beta=0.70
     Davidson diagonalization with overlap
     ethr =  1.00E-02,  avg # of iterations =  1.0

     negative rho (up, down):  4.329E-02 0.000E+00

     total cpu time spent up to now is        0.6 secs

     total energy              =     -31.68563250 Ry
     Harris-Foulkes estimate   =     -31.62801229 Ry
     estimated scf accuracy    <       2.82901110 Ry

     iteration # 10     ecut=    30.00 Ry     beta=0.70
     Davidson diagonalization with overlap
     ethr =  1.00E-02,  avg # of iterations =  1.0

     negative rho (up, down):  3.716E-02 0.000E+00

     total cpu time spent up to now is        0.6 secs

     total energy              =     -31.63932155 Ry
     Harris-Foulkes estimate   =     -31.68988104 Ry
     estimated scf accuracy    <       3.31439682 Ry

     iteration # 11     ecut=    30.00 Ry     beta=0.70
     Davidson diagonalization with overlap
     ethr =  1.00E-02,  avg # of iterations =  1.0

     negative rho (up, down):  4.064E-02 0.000E+00

     total cpu time spent up to now is        0.6 secs

     total energy              =     -31.56751216 Ry
     Harris-Foulkes estimate   =     -31.63996331 Ry
     estimated scf accuracy    <       3.09057933 Ry

     iteration # 12     ecut=    30.00 Ry     beta=0.70
     Davidson diagonalization with overlap
     ethr =  1.00E-02,  avg # of iterations =  1.0

     negative rho (up, down):  5.052E-02 0.000E+00

     total cpu time spent up to now is        0.7 secs

     total energy              =     -31.51162356 Ry
     Harris-Foulkes estimate   =     -31.56953439 Ry
     estimated scf accuracy    <       2.83812453 Ry

     iteration # 13     ecut=    30.00 Ry     beta=0.70
     Davidson diagonalization with overlap
     ethr =  1.00E-02,  avg # of iterations =  1.0

     negative rho (up, down):  3.197E-02 0.000E+00

     total cpu time spent up to now is        0.7 secs

     total energy              =     -31.40691795 Ry
     Harris-Foulkes estimate   =     -31.53275242 Ry
     estimated scf accuracy    <       0.76188960 Ry

     iteration # 14     ecut=    30.00 Ry     beta=0.70
     Davidson diagonalization with overlap
     ethr =  9.52E-03,  avg # of iterations =  1.0

     negative rho (up, down):  9.616E-08 0.000E+00

     total cpu time spent up to now is        0.7 secs

     total energy              =     -31.10179499 Ry
     Harris-Foulkes estimate   =     -31.63686802 Ry
     estimated scf accuracy    <       2.04934264 Ry

     iteration # 15     ecut=    30.00 Ry     beta=0.70
     Davidson diagonalization with overlap
     ethr =  9.52E-03,  avg # of iterations =  1.0

     negative rho (up, down):  6.902E-05 0.000E+00

     total cpu time spent up to now is        0.8 secs

     total energy              =     -31.92648623 Ry
     Harris-Foulkes estimate   =     -32.06482241 Ry
     estimated scf accuracy    <       4.24690457 Ry

     iteration # 16     ecut=    30.00 Ry     beta=0.70
     Davidson diagonalization with overlap
     ethr =  9.52E-03,  avg # of iterations =  1.0

     negative rho (up, down):  2.987E-03 0.000E+00

     total cpu time spent up to now is        0.8 secs

     total energy              =     -31.60126150 Ry
     Harris-Foulkes estimate   =     -31.92770040 Ry
     estimated scf accuracy    <       4.01654215 Ry

     iteration # 17     ecut=    30.00 Ry     beta=0.70
     Davidson diagonalization with overlap
     ethr =  9.52E-03,  avg # of iterations =  1.0

     negative rho (up, down):  3.431E-03 0.000E+00

     total cpu time spent up to now is        0.8 secs

     total energy              =     -31.45758485 Ry
     Harris-Foulkes estimate   =     -31.60654337 Ry
     estimated scf accuracy    <       3.63681986 Ry

     iteration # 18     ecut=    30.00 Ry     beta=0.70
     Davidson diagonalization with overlap
     ethr =  9.52E-03,  avg # of iterations =  1.0

     negative rho (up, down):  1.570E-03 0.000E+00

     total cpu time spent up to now is        0.9 secs

     total energy              =     -31.47945457 Ry
     Harris-Foulkes estimate   =     -31.53544118 Ry
     estimated scf accuracy    <       0.52697541 Ry

     iteration # 19     ecut=    30.00 Ry     beta=0.70
     Davidson diagonalization with overlap
     ethr =  6.59E-03,  avg # of iterations =  1.0

     negative rho (up, down):  3.140E-03 0.000E+00

     total cpu time spent up to now is        0.9 secs

     total energy              =     -31.78115504 Ry
     Harris-Foulkes estimate   =     -31.66327716 Ry
     estimated scf accuracy    <       3.20627751 Ry

     iteration # 20     ecut=    30.00 Ry     beta=0.70
     Davidson diagonalization with overlap
     ethr =  6.59E-03,  avg # of iterations =  1.0

     negative rho (up, down):  5.815E-04 0.000E+00

     total cpu time spent up to now is        0.9 secs

     total energy              =     -31.37869875 Ry
     Harris-Foulkes estimate   =     -31.78328320 Ry
     estimated scf accuracy    <       3.59573396 Ry

     iteration # 21     ecut=    30.00 Ry     beta=0.70
     Davidson diagonalization with overlap
     ethr =  6.59E-03,  avg # of iterations =  1.0

     negative rho (up, down):  4.307E-04 0.000E+00

     total cpu time spent up to now is        1.0 secs

     total energy              =     -31.54022929 Ry
     Harris-Foulkes estimate   =     -31.59146438 Ry
     estimated scf accuracy    <       0.92587031 Ry

     iteration # 22     ecut=    30.00 Ry     beta=0.70
     Davidson diagonalization with overlap
     ethr =  6.59E-03,  avg # of iterations =  1.0

     negative rho (up, down):  7.480E-04 0.000E+00

     total cpu time spent up to now is        1.0 secs

     total energy              =     -31.60979178 Ry
     Harris-Foulkes estimate   =     -31.54830985 Ry
     estimated scf accuracy    <       0.69376312 Ry

     iteration # 23     ecut=    30.00 Ry     beta=0.70
     Davidson diagonalization with overlap
     ethr =  6.59E-03,  avg # of iterations =  1.0

     negative rho (up, down):  3.066E-04 0.000E+00

     total cpu time spent up to now is        1.0 secs

     total energy              =     -31.69246567 Ry
     Harris-Foulkes estimate   =     -31.71381654 Ry
     estimated scf accuracy    <       2.45997757 Ry

     iteration # 24     ecut=    30.00 Ry     beta=0.70
     Davidson diagonalization with overlap
     ethr =  6.59E-03,  avg # of iterations =  1.0

     negative rho (up, down):  1.807E-04 0.000E+00

     total cpu time spent up to now is        1.1 secs

     total energy              =     -31.62291554 Ry
     Harris-Foulkes estimate   =     -31.69267891 Ry
     estimated scf accuracy    <       2.39924110 Ry

     iteration # 25     ecut=    30.00 Ry     beta=0.70
     Davidson diagonalization with overlap
     ethr =  6.59E-03,  avg # of iterations =  1.0

     negative rho (up, down):  8.141E-05 0.000E+00

     total cpu time spent up to now is        1.1 secs

     total energy              =     -31.53350506 Ry
     Harris-Foulkes estimate   =     -31.62502087 Ry
     estimated scf accuracy    <       1.99505766 Ry

     iteration # 26     ecut=    30.00 Ry     beta=0.70
     Davidson diagonalization with overlap
     ethr =  6.59E-03,  avg # of iterations =  1.0

     negative rho (up, down):  1.393E-04 0.000E+00

     total cpu time spent up to now is        1.1 secs

     total energy              =     -31.54411656 Ry
     Harris-Foulkes estimate   =     -31.54817592 Ry
     estimated scf accuracy    <       0.81700632 Ry

     iteration # 27     ecut=    30.00 Ry     beta=0.70
     Davidson diagonalization with overlap
     ethr =  6.59E-03,  avg # of iterations =  1.0

     negative rho (up, down):  1.239E-04 0.000E+00

     total cpu time spent up to now is        1.2 secs

     total energy              =     -31.54366383 Ry
     Harris-Foulkes estimate   =     -31.54419769 Ry
     estimated scf accuracy    <       0.76020099 Ry

     iteration # 28     ecut=    30.00 Ry     beta=0.70
     Davidson diagonalization with overlap
     ethr =  6.59E-03,  avg # of iterations =  1.0

     negative rho (up, down):  1.726E-04 0.000E+00

     total cpu time spent up to now is        1.2 secs

     total energy              =     -31.50392192 Ry
     Harris-Foulkes estimate   =     -31.54380621 Ry
     estimated scf accuracy    <       0.72053706 Ry

     iteration # 29     ecut=    30.00 Ry     beta=0.70
     Davidson diagonalization with overlap
     ethr =  6.59E-03,  avg # of iterations =  1.0

     negative rho (up, down):  1.512E-05 0.000E+00

     total cpu time spent up to now is        1.2 secs

     total energy              =     -31.46491975 Ry
     Harris-Foulkes estimate   =     -31.54673898 Ry
     estimated scf accuracy    <       1.39556152 Ry

     iteration # 30     ecut=    30.00 Ry     beta=0.70
     Davidson diagonalization with overlap
     ethr =  6.59E-03,  avg # of iterations =  1.0

     negative rho (up, down):  2.138E-06 0.000E+00

     total cpu time spent up to now is        1.3 secs

     total energy              =     -31.55652759 Ry
     Harris-Foulkes estimate   =     -31.55796585 Ry
     estimated scf accuracy    <       1.02279717 Ry

     iteration # 31     ecut=    30.00 Ry     beta=0.70
     Davidson diagonalization with overlap
     ethr =  6.59E-03,  avg # of iterations =  1.0

     negative rho (up, down):  3.338E-06 0.000E+00

     total cpu time spent up to now is        1.3 secs

     total energy              =     -31.55763865 Ry
     Harris-Foulkes estimate   =     -31.55656340 Ry
     estimated scf accuracy    <       1.01624144 Ry

     iteration # 32     ecut=    30.00 Ry     beta=0.70
     Davidson diagonalization with overlap
     ethr =  6.59E-03,  avg # of iterations =  1.0

     negative rho (up, down):  2.188E-06 0.000E+00

     total cpu time spent up to now is        1.3 secs

     total energy              =     -31.55720697 Ry
     Harris-Foulkes estimate   =     -31.55764240 Ry
     estimated scf accuracy    <       1.01206499 Ry

     iteration # 33     ecut=    30.00 Ry     beta=0.70
     Davidson diagonalization with overlap
     ethr =  6.59E-03,  avg # of iterations =  1.0

     negative rho (up, down):  1.767E-06 0.000E+00

     total cpu time spent up to now is        1.4 secs

     total energy              =     -31.55113304 Ry
     Harris-Foulkes estimate   =     -31.55720815 Ry
     estimated scf accuracy    <       1.00464176 Ry

     iteration # 34     ecut=    30.00 Ry     beta=0.70
     Davidson diagonalization with overlap
     ethr =  6.59E-03,  avg # of iterations =  1.0

     total cpu time spent up to now is        1.4 secs

     total energy              =     -31.54372371 Ry
     Harris-Foulkes estimate   =     -31.55124093 Ry
     estimated scf accuracy    <       0.92370023 Ry

     iteration # 35     ecut=    30.00 Ry     beta=0.70
     Davidson diagonalization with overlap
     ethr =  6.59E-03,  avg # of iterations =  1.0

     negative rho (up, down):  2.235E-06 0.000E+00

     total cpu time spent up to now is        1.4 secs

     total energy              =     -31.55380542 Ry
     Harris-Foulkes estimate   =     -31.54485182 Ry
     estimated scf accuracy    <       0.73703609 Ry

     iteration # 36     ecut=    30.00 Ry     beta=0.70
     Davidson diagonalization with overlap
     ethr =  6.59E-03,  avg # of iterations =  1.0

     negative rho (up, down):  3.465E-07 0.000E+00

     total cpu time spent up to now is        1.5 secs

     total energy              =     -31.54291796 Ry
     Harris-Foulkes estimate   =     -31.55394324 Ry
     estimated scf accuracy    <       0.79137310 Ry

     iteration # 37     ecut=    30.00 Ry     beta=0.70
     Davidson diagonalization with overlap
     ethr =  6.59E-03,  avg # of iterations =  1.0

     negative rho (up, down):  2.724E-06 0.000E+00

     total cpu time spent up to now is        1.5 secs

     total energy              =     -31.57491035 Ry
     Harris-Foulkes estimate   =     -31.54307432 Ry
     estimated scf accuracy    <       0.72128923 Ry

     iteration # 38     ecut=    30.00 Ry     beta=0.70
     Davidson diagonalization with overlap
     ethr =  6.59E-03,  avg # of iterations =  1.0

     negative rho (up, down):  1.788E-03 0.000E+00

     total cpu time spent up to now is        1.5 secs

     total energy              =     -31.12093386 Ry
     Harris-Foulkes estimate   =     -31.57602990 Ry
     estimated scf accuracy    <       0.84326751 Ry

     iteration # 39     ecut=    30.00 Ry     beta=0.70
     Davidson diagonalization with overlap
     ethr =  6.59E-03,  avg # of iterations =  2.0

     negative rho (up, down):  4.151E-04 0.000E+00

     total cpu time spent up to now is        1.6 secs

     total energy              =     -31.88866566 Ry
     Harris-Foulkes estimate   =     -32.23794339 Ry
     estimated scf accuracy    <       2.36931675 Ry

     iteration # 40     ecut=    30.00 Ry     beta=0.70
     Davidson diagonalization with overlap
     ethr =  6.59E-03,  avg # of iterations =  1.0

     total cpu time spent up to now is        1.6 secs

     total energy              =     -31.55860835 Ry
     Harris-Foulkes estimate   =     -31.89470104 Ry
     estimated scf accuracy    <       1.86383428 Ry

     iteration # 41     ecut=    30.00 Ry     beta=0.70
     Davidson diagonalization with overlap
     ethr =  6.59E-03,  avg # of iterations =  1.0

     negative rho (up, down):  1.248E-06 0.000E+00

     total cpu time spent up to now is        1.7 secs

     total energy              =     -31.52926195 Ry
     Harris-Foulkes estimate   =     -31.56646768 Ry
     estimated scf accuracy    <       1.45066331 Ry

     iteration # 42     ecut=    30.00 Ry     beta=0.70
     Davidson diagonalization with overlap
     ethr =  6.59E-03,  avg # of iterations =  1.0

     negative rho (up, down):  7.045E-07 0.000E+00

     total cpu time spent up to now is        1.7 secs

     total energy              =     -31.50238625 Ry
     Harris-Foulkes estimate   =     -31.53055279 Ry
     estimated scf accuracy    <       0.75726787 Ry

     iteration # 43     ecut=    30.00 Ry     beta=0.70
     Davidson diagonalization with overlap
     ethr =  6.59E-03,  avg # of iterations =  1.0

     negative rho (up, down):  5.844E-07 0.000E+00

     total cpu time spent up to now is        1.7 secs

     total energy              =     -31.50597174 Ry
     Harris-Foulkes estimate   =     -31.52276486 Ry
     estimated scf accuracy    <       0.15480854 Ry

     iteration # 44     ecut=    30.00 Ry     beta=0.70
     Davidson diagonalization with overlap
     ethr =  1.94E-03,  avg # of iterations =  1.0

     negative rho (up, down):  7.693E-07 0.000E+00

     total cpu time spent up to now is        1.8 secs

     total energy              =     -31.52944933 Ry
     Harris-Foulkes estimate   =     -31.54437641 Ry
     estimated scf accuracy    <       1.43448855 Ry

     iteration # 45     ecut=    30.00 Ry     beta=0.70
     Davidson diagonalization with overlap
     ethr =  1.94E-03,  avg # of iterations =  1.0

     negative rho (up, down):  2.393E-08 0.000E+00

     total cpu time spent up to now is        1.8 secs

     total energy              =     -31.52529275 Ry
     Harris-Foulkes estimate   =     -31.53104481 Ry
     estimated scf accuracy    <       0.79897081 Ry

     iteration # 46     ecut=    30.00 Ry     beta=0.70
     Davidson diagonalization with overlap
     ethr =  1.94E-03,  avg # of iterations =  1.0

     total cpu time spent up to now is        1.8 secs

     total energy              =     -31.50593673 Ry
     Harris-Foulkes estimate   =     -31.52601893 Ry
     estimated scf accuracy    <       0.43373965 Ry

     iteration # 47     ecut=    30.00 Ry     beta=0.70
     Davidson diagonalization with overlap
     ethr =  1.94E-03,  avg # of iterations =  1.0

     total cpu time spent up to now is        1.9 secs

     total energy              =     -31.51725628 Ry
     Harris-Foulkes estimate   =     -31.52473304 Ry
     estimated scf accuracy    <       0.26953739 Ry

     iteration # 48     ecut=    30.00 Ry     beta=0.70
     Davidson diagonalization with overlap
     ethr =  1.94E-03,  avg # of iterations =  1.0

     total cpu time spent up to now is        1.9 secs

     total energy              =     -31.52070776 Ry
     Harris-Foulkes estimate   =     -31.52067194 Ry
     estimated scf accuracy    <       0.00019345 Ry

     iteration # 49     ecut=    30.00 Ry     beta=0.70
     Davidson diagonalization with overlap
     ethr =  2.42E-06,  avg # of iterations = 16.0

     total cpu time spent up to now is        1.9 secs

     total energy              =     -31.52040027 Ry
     Harris-Foulkes estimate   =     -31.52085260 Ry
     estimated scf accuracy    <       0.01426261 Ry

     iteration # 50     ecut=    30.00 Ry     beta=0.70
     Davidson diagonalization with overlap
     ethr =  2.42E-06,  avg # of iterations =  1.0

     total cpu time spent up to now is        2.0 secs

     total energy              =     -31.52067685 Ry
     Harris-Foulkes estimate   =     -31.52068405 Ry
     estimated scf accuracy    <       0.00107464 Ry

     iteration # 51     ecut=    30.00 Ry     beta=0.70
     Davidson diagonalization with overlap
     ethr =  2.42E-06,  avg # of iterations =  1.0

     total cpu time spent up to now is        2.0 secs

     total energy              =     -31.52068261 Ry
     Harris-Foulkes estimate   =     -31.52067787 Ry
     estimated scf accuracy    <       0.00056008 Ry

     iteration # 52     ecut=    30.00 Ry     beta=0.70
     Davidson diagonalization with overlap
     ethr =  2.42E-06,  avg # of iterations =  1.0

     total cpu time spent up to now is        2.0 secs

     total energy              =     -31.52066663 Ry
     Harris-Foulkes estimate   =     -31.52068336 Ry
     estimated scf accuracy    <       0.00100076 Ry

     iteration # 53     ecut=    30.00 Ry     beta=0.70
     Davidson diagonalization with overlap
     ethr =  2.42E-06,  avg # of iterations =  1.0

     total cpu time spent up to now is        2.1 secs

     total energy              =     -31.52067118 Ry
     Harris-Foulkes estimate   =     -31.52067269 Ry
     estimated scf accuracy    <       0.00008374 Ry

     iteration # 54     ecut=    30.00 Ry     beta=0.70
     Davidson diagonalization with overlap
     ethr =  1.05E-06,  avg # of iterations =  1.0

     total cpu time spent up to now is        2.1 secs

     total energy              =     -31.52067219 Ry
     Harris-Foulkes estimate   =     -31.52067202 Ry
     estimated scf accuracy    <       0.00000164 Ry

     iteration # 55     ecut=    30.00 Ry     beta=0.70
     Davidson diagonalization with overlap
     ethr =  2.05E-08,  avg # of iterations =  1.0

     total cpu time spent up to now is        2.1 secs

     total energy              =     -31.52067209 Ry
     Harris-Foulkes estimate   =     -31.52067220 Ry
     estimated scf accuracy    <       0.00000079 Ry

     iteration # 56     ecut=    30.00 Ry     beta=0.70
     Davidson diagonalization with overlap
     ethr =  9.91E-09,  avg # of iterations =  1.0

     total cpu time spent up to now is        2.2 secs

     End of self-consistent calculation

          k = 0.0000 0.0000 0.0000 ( 22119 PWs)   bands (ev):

   -23.6332  -7.3250  -7.0254  -7.0251  -6.9182  -6.6184  -0.1847   0.7187

     the Fermi energy is    -6.8875 ev

!    total energy              =     -31.52067207 Ry
     Harris-Foulkes estimate   =     -31.52067210 Ry
     estimated scf accuracy    <          4.4E-10 Ry

     convergence has been achieved in  56 iterations

     Forces acting on atoms (Ry/au):

     atom    1 type  1   force =     0.00058127   -0.00066687   -0.00029922
     atom    2 type  1   force =    -0.00123543    0.03802273    0.00722785
     atom    3 type  2   force =     0.00065416   -0.03735586   -0.00692863

     Total force =     0.054261     Total SCF correction =     0.000017

     Molecular Dynamics Calculation

     Starting temperature  =  1000.00 K

     temperature is controlled by Andersen thermostat
     Collision frequency = 1.0000/timestep
     mass H                =     1.01
     mass O                =    16.00
     Time step             =   100.00 a.u.,  4.8378 femto-seconds

     Entering Dynamics:    iteration =     1
                           time      =   0.0048 pico-seconds


     Andersen thermostat:    3 collisions

ATOMIC_POSITIONS (bohr)
H       17.559554061   1.266628360  10.647435103
H        8.199632160   7.484906802   3.012334388
O        7.721491459  12.527835150   3.613583943


     kinetic energy (Ekin) =     0.01593909 Ry
     temperature           =   838.86005210 K 
     Ekin + Etot (const)   =   -31.50473298 Ry

     Linear momentum :   -0.0000000000   -0.0000000000   -0.0000000000

     Writing output data file pwscf.save
     Check: negative starting charge=   -0.344145
     NEW-OLD atomic charge density approx. for the potential
     Check: negative starting charge=   -0.344191

     negative rho (up, down):  8.556E-02 0.000E+00

     total cpu time spent up to now is        2.4 secs

     per-process dynamical memory:    20.4 Mb

     Self-consistent Calculation

     iteration #  1     ecut=    30.00 Ry     beta=0.70
     Davidson diagonalization with overlap
     c_bands:  1 eigenvalues not converged
     ethr =  1.00E-06,  avg # of iterations = 20.0

     negative rho (up, down):  2.059E-02 0.000E+00

     total cpu time spent up to now is        2.5 secs

     total energy              =     -20.01806583 Ry
     Harris-Foulkes estimate   =     -35.86206372 Ry
     estimated scf accuracy    <       4.10878773 Ry

     iteration #  2     ecut=    30.00 Ry     beta=0.70
     Davidson diagonalization with overlap
     ethr =  1.00E-02,  avg # of iterations =  4.0

     negative rho (up, down):  1.413E-02 0.000E+00

     total cpu time spent up to now is        2.6 secs

     total energy              =     -31.38219391 Ry
     Harris-Foulkes estimate   =     -34.50725385 Ry
     estimated scf accuracy    <       6.91789346 Ry

     iteration #  3     ecut=    30.00 Ry     beta=0.70
     Davidson diagonalization with overlap
     ethr =  1.00E-02,  avg # of iterations =  2.0

     negative rho (up, down):  1.032E-02 0.000E+00

     total cpu time spent up to now is        2.6 secs

     total energy              =     -32.04800528 Ry
     Harris-Foulkes estimate   =     -33.07957125 Ry
     estimated scf accuracy    <       3.46344896 Ry

     iteration #  4     ecut=    30.00 Ry     beta=0.70
     Davidson diagonalization with overlap
     ethr =  1.00E-02,  avg # of iterations =  2.0

     negative rho (up, down):  1.002E-02 0.000E+00

     total cpu time spent up to now is        2.6 secs

     total energy              =     -31.99168827 Ry
     Harris-Foulkes estimate   =     -32.11607924 Ry
     estimated scf accuracy    <       1.85355500 Ry

     iteration #  5     ecut=    30.00 Ry     beta=0.70
     Davidson diagonalization with overlap
     ethr =  1.00E-02,  avg # of iterations =  1.0

     negative rho (up, down):  9.852E-03 0.000E+00

     total cpu time spent up to now is        2.7 secs

     total energy              =     -31.89231653 Ry
     Harris-Foulkes estimate   =     -31.99279971 Ry
     estimated scf accuracy    <       1.82892512 Ry

     iteration #  6     ecut=    30.00 Ry     beta=0.70
     Davidson diagonalization with overlap
     ethr =  1.00E-02,  avg # of iterations =  1.0

     negative rho (up, down):  4.426E-03 0.000E+00

     total cpu time spent up to now is        2.7 secs

     total energy              =     -31.70711541 Ry
     Harris-Foulkes estimate   =     -31.93786389 Ry
     estimated scf accuracy    <       2.04366265 Ry

     iteration #  7     ecut=    30.00 Ry     beta=0.70
     Davidson diagonalization with overlap
     ethr =  1.00E-02,  avg # of iterations =  3.0

     negative rho (up, down):  5.674E-03 0.000E+00

     total cpu time spent up to now is        2.7 secs

     total energy              =     -31.48444565 Ry
     Harris-Foulkes estimate   =     -32.05705616 Ry
     estimated scf accuracy    <       1.89625390 Ry

     iteration #  8     ecut=    30.00 Ry     beta=0.70
     Davidson diagonalization with overlap
     ethr =  1.00E-02,  avg # of iterations =  1.0

     negative rho (up, down):  3.836E-03 0.000E+00

     total cpu time spent up to now is        2.8 secs

     total energy              =     -31.67312181 Ry
     Harris-Foulkes estimate   =     -31.78287710 Ry
     estimated scf accuracy    <       2.38076328 Ry

     iteration #  9     ecut=    30.00 Ry     beta=0.70
     Davidson diagonalization with overlap
     ethr =  1.00E-02,  avg # of iterations =  1.0

     negative rho (up, down):  4.095E-03 0.000E+00

     total cpu time spent up to now is        2.8 secs

     total energy              =     -31.69486271 Ry
     Harris-Foulkes estimate   =     -31.69042827 Ry
     estimated scf accuracy    <       1.49986855 Ry

     iteration # 10     ecut=    30.00 Ry     beta=0.70
     Davidson diagonalization with overlap
     ethr =  1.00E-02,  avg # of iterations =  1.0

     negative rho (up, down):  7.153E-04 0.000E+00

     total cpu time spent up to now is        2.8 secs

     total energy              =     -31.83217752 Ry
     Harris-Foulkes estimate   =     -31.69577072 Ry
     estimated scf accuracy    <       1.66038857 Ry

     iteration # 11     ecut=    30.00 Ry     beta=0.70
     Davidson diagonalization with overlap
     ethr =  1.00E-02,  avg # of iterations =  2.0

     negative rho (up, down):  9.944E-04 0.000E+00

     total cpu time spent up to now is        2.9 secs

     total energy              =     -31.55470472 Ry
     Harris-Foulkes estimate   =     -32.21895814 Ry
     estimated scf accuracy    <       2.24646097 Ry

     iteration # 12     ecut=    30.00 Ry     beta=0.70
     Davidson diagonalization with overlap
     ethr =  1.00E-02,  avg # of iterations =  1.0

     negative rho (up, down):  3.698E-05 0.000E+00

     total cpu time spent up to now is        2.9 secs

     total energy              =     -31.56775399 Ry
     Harris-Foulkes estimate   =     -31.59093944 Ry
     estimated scf accuracy    <       0.80171036 Ry

     iteration # 13     ecut=    30.00 Ry     beta=0.70
     Davidson diagonalization with overlap
     ethr =  1.00E-02,  avg # of iterations =  1.0

     negative rho (up, down):  3.813E-06 0.000E+00

     total cpu time spent up to now is        2.9 secs

     total energy              =     -31.54306386 Ry
     Harris-Foulkes estimate   =     -31.57003277 Ry
     estimated scf accuracy    <       0.76064526 Ry

     iteration # 14     ecut=    30.00 Ry     beta=0.70
     Davidson diagonalization with overlap
     ethr =  9.51E-03,  avg # of iterations =  1.0

     negative rho (up, down):  2.741E-08 0.000E+00

     total cpu time spent up to now is        3.0 secs

     total energy              =     -31.54627001 Ry
     Harris-Foulkes estimate   =     -31.55027781 Ry
     estimated scf accuracy    <       0.06374937 Ry

     iteration # 15     ecut=    30.00 Ry     beta=0.70
     Davidson diagonalization with overlap
     ethr =  7.97E-04,  avg # of iterations =  1.0

     negative rho (up, down):  6.371E-08 0.000E+00

     total cpu time spent up to now is        3.0 secs

     total energy              =     -31.55259660 Ry
     Harris-Foulkes estimate   =     -31.54944042 Ry
     estimated scf accuracy    <       0.08622770 Ry

     iteration # 16     ecut=    30.00 Ry     beta=0.70
     Davidson diagonalization with overlap
     ethr =  7.97E-04,  avg # of iterations =  1.0

     negative rho (up, down):  4.223E-07 0.000E+00

     total cpu time spent up to now is        3.0 secs

     total energy              =     -31.53716680 Ry
     Harris-Foulkes estimate   =     -31.55698074 Ry
     estimated scf accuracy    <       0.53435506 Ry

     iteration # 17     ecut=    30.00 Ry     beta=0.70
     Davidson diagonalization with overlap
     ethr =  7.97E-04,  avg # of iterations =  1.0

     negative rho (up, down):  8.753E-07 0.000E+00

     total cpu time spent up to now is        3.1 secs

     total energy              =     -31.54823201 Ry
     Harris-Foulkes estimate   =     -31.54894400 Ry
     estimated scf accuracy    <       0.03361058 Ry

     iteration # 18     ecut=    30.00 Ry     beta=0.70
     Davidson diagonalization with overlap
     ethr =  4.20E-04,  avg # of iterations =  1.0

     negative rho (up, down):  2.378E-07 0.000E+00

     total cpu time spent up to now is        3.1 secs

     total energy              =     -31.55035792 Ry
     Harris-Foulkes estimate   =     -31.54963763 Ry
     estimated scf accuracy    <       0.03999105 Ry

     iteration # 19     ecut=    30.00 Ry     beta=0.70
     Davidson diagonalization with overlap
     ethr =  4.20E-04,  avg # of iterations =  1.0

     negative rho (up, down):  1.107E-08 0.000E+00

     total cpu time spent up to now is        3.1 secs

     total energy              =     -31.64276114 Ry
     Harris-Foulkes estimate   =     -31.59322022 Ry
     estimated scf accuracy    <       1.40793287 Ry

     iteration # 20     ecut=    30.00 Ry     beta=0.70
     Davidson diagonalization with overlap
     ethr =  4.20E-04,  avg # of iterations =  1.0

     negative rho (up, down):  3.415E-08 0.000E+00

     total cpu time spent up to now is        3.2 secs

     total energy              =     -31.66974913 Ry
     Harris-Foulkes estimate   =     -31.63887662 Ry
     estimated scf accuracy    <       1.13996189 Ry

     iteration # 21     ecut=    30.00 Ry     beta=0.70
     Davidson diagonalization with overlap
     ethr =  4.20E-04,  avg # of iterations =  1.0

     total cpu time spent up to now is        3.2 secs

     total energy              =     -31.66529648 Ry
     Harris-Foulkes estimate   =     -31.67522721 Ry
     estimated scf accuracy    <       1.38648283 Ry

     iteration # 22     ecut=    30.00 Ry     beta=0.70
     Davidson diagonalization with overlap
     ethr =  4.20E-04,  avg # of iterations =  1.0

     negative rho (up, down):  7.273E-06 0.000E+00

     total cpu time spent up to now is        3.2 secs

     total energy              =     -31.66419661 Ry
     Harris-Foulkes estimate   =     -31.66531680 Ry
     estimated scf accuracy    <       1.36355291 Ry

     iteration # 23     ecut=    30.00 Ry     beta=0.70
     Davidson diagonalization with overlap
     ethr =  4.20E-04,  avg # of iterations =  1.0

     negative rho (up, down):  5.753E-06 0.000E+00

     total cpu time spent up to now is        3.3 secs

     total energy              =     -31.66327834 Ry
     Harris-Foulkes estimate   =     -31.66421828 Ry
     estimated scf accuracy    <       1.33694350 Ry

     iteration # 24     ecut=    30.00 Ry     beta=0.70
     Davidson diagonalization with overlap
     ethr =  4.20E-04,  avg # of iterations =  1.0

     negative rho (up, down):  1.274E-06 0.000E+00

     total cpu time spent up to now is        3.3 secs

     total energy              =     -31.67085995 Ry
     Harris-Foulkes estimate   =     -31.66328055 Ry
     estimated scf accuracy    <       1.33935947 Ry

     iteration # 25     ecut=    30.00 Ry     beta=0.70
     Davidson diagonalization with overlap
     ethr =  4.20E-04,  avg # of iterations =  1.0

     negative rho (up, down):  1.185E-08 0.000E+00

     total cpu time spent up to now is        3.3 secs

     total energy              =     -31.64601406 Ry
     Harris-Foulkes estimate   =     -31.67094784 Ry
     estimated scf accuracy    <       1.32080671 Ry

     iteration # 26     ecut=    30.00 Ry     beta=0.70
     Davidson diagonalization with overlap
     ethr =  4.20E-04,  avg # of iterations =  1.0

     total cpu time spent up to now is        3.4 secs

     total energy              =     -31.64160473 Ry
     Harris-Foulkes estimate   =     -31.64671382 Ry
     estimated scf accuracy    <       1.35750366 Ry

     iteration # 27     ecut=    30.00 Ry     beta=0.70
     Davidson diagonalization with overlap
     ethr =  4.20E-04,  avg # of iterations =  1.0

     negative rho (up, down):  2.380E-03 0.000E+00

     total cpu time spent up to now is        3.4 secs

     total energy              =     -31.80737986 Ry
     Harris-Foulkes estimate   =     -31.64161756 Ry
     estimated scf accuracy    <       1.35469822 Ry

     iteration # 28     ecut=    30.00 Ry     beta=0.70
     Davidson diagonalization with overlap
     ethr =  4.20E-04,  avg # of iterations =  2.0

     negative rho (up, down):  2.607E-02 0.000E+00

     total cpu time spent up to now is        3.4 secs

     total energy              =     -30.78958312 Ry
     Harris-Foulkes estimate   =     -31.80958329 Ry
     estimated scf accuracy    <       1.72020932 Ry

     iteration # 29     ecut=    30.00 Ry     beta=0.70
     Davidson diagonalization with overlap
     ethr =  4.20E-04,  avg # of iterations =  7.0

     negative rho (up, down):  4.309E-05 0.000E+00

     total cpu time spent up to now is        3.5 secs

     total energy              =     -32.15411798 Ry
     Harris-Foulkes estimate   =     -33.08264913 Ry
     estimated scf accuracy    <       3.00355842 Ry

     iteration # 30     ecut=    30.00 Ry     beta=0.70
     Davidson diagonalization with overlap
     ethr =  4.20E-04,  avg # of iterations =  6.0

     negative rho (up, down):  1.426E-07 0.000E+00

     total cpu time spent up to now is        3.5 secs

     total energy              =     -31.68171093 Ry
     Harris-Foulkes estimate   =     -32.18244617 Ry
     estimated scf accuracy    <       1.90349583 Ry

     iteration # 31     ecut=    30.00 Ry     beta=0.70
     Davidson diagonalization with overlap
     ethr =  4.20E-04,  avg # of iterations =  4.0

     total cpu time spent up to now is        3.6 secs

     total energy              =     -31.61879608 Ry
     Harris-Foulkes estimate   =     -31.68805945 Ry
     estimated scf accuracy    <       1.20073383 Ry

     iteration # 32     ecut=    30.00 Ry     beta=0.70
     Davidson diagonalization with overlap
     ethr =  4.20E-04,  avg # of iterations =  1.0

     total cpu time spent up to now is        3.6 secs

     total energy              =     -31.58733964 Ry
     Harris-Foulkes estimate   =     -31.61888652 Ry
     estimated scf accuracy    <       1.06530681 Ry

     iteration # 33     ecut=    30.00 Ry     beta=0.70
     Davidson diagonalization with overlap
     ethr =  4.20E-04,  avg # of iterations =  1.0

     total cpu time spent up to now is        3.6 secs

     total energy              =     -31.49791355 Ry
     Harris-Foulkes estimate   =     -31.58745033 Ry
     estimated scf accuracy    <       0.98711062 Ry

     iteration # 34     ecut=    30.00 Ry     beta=0.70
     Davidson diagonalization with overlap
     ethr =  4.20E-04,  avg # of iterations =  2.0

     total cpu time spent up to now is        3.7 secs

     total energy              =     -31.50993701 Ry
     Harris-Foulkes estimate   =     -31.57327345 Ry
     estimated scf accuracy    <       1.55310227 Ry

     iteration # 35     ecut=    30.00 Ry     beta=0.70
     Davidson diagonalization with overlap
     ethr =  4.20E-04,  avg # of iterations =  1.0

     total cpu time spent up to now is        3.7 secs

     total energy              =     -31.55460539 Ry
     Harris-Foulkes estimate   =     -31.55113271 Ry
     estimated scf accuracy    <       0.27957206 Ry

     iteration # 36     ecut=    30.00 Ry     beta=0.70
     Davidson diagonalization with overlap
     ethr =  4.20E-04,  avg # of iterations =  1.0

     total cpu time spent up to now is        3.7 secs

     total energy              =     -31.55575900 Ry
     Harris-Foulkes estimate   =     -31.55524752 Ry
     estimated scf accuracy    <       0.48520125 Ry

     iteration # 37     ecut=    30.00 Ry     beta=0.70
     Davidson diagonalization with overlap
     ethr =  4.20E-04,  avg # of iterations =  1.0

     total cpu time spent up to now is        3.8 secs

     total energy              =     -31.54608439 Ry
     Harris-Foulkes estimate   =     -31.55576874 Ry
     estimated scf accuracy    <       0.51157425 Ry

     iteration # 38     ecut=    30.00 Ry     beta=0.70
     Davidson diagonalization with overlap
     ethr =  4.20E-04,  avg # of iterations =  1.0

     total cpu time spent up to now is        3.8 secs

     total energy              =     -31.54687027 Ry
     Harris-Foulkes estimate   =     -31.54847670 Ry
     estimated scf accuracy    <       0.10819705 Ry

     iteration # 39     ecut=    30.00 Ry     beta=0.70
     Davidson diagonalization with overlap
     ethr =  4.20E-04,  avg # of iterations =  1.0

     total cpu time spent up to now is        3.8 secs

     total energy              =     -31.54646398 Ry
     Harris-Foulkes estimate   =     -31.54730514 Ry
     estimated scf accuracy    <       0.02115510 Ry

     iteration # 40     ecut=    30.00 Ry     beta=0.70
     Davidson diagonalization with overlap
     ethr =  2.64E-04,  avg # of iterations =  1.0

     total cpu time spent up to now is        3.9 secs

     total energy              =     -31.54686017 Ry
     Harris-Foulkes estimate   =     -31.54715335 Ry
     estimated scf accuracy    <       0.00889867 Ry

     iteration # 41     ecut=    30.00 Ry     beta=0.70
     Davidson diagonalization with overlap
     ethr =  1.11E-04,  avg # of iterations =  1.0

     total cpu time spent up to now is        3.9 secs

     total energy              =     -31.54704502 Ry
     Harris-Foulkes estimate   =     -31.54705334 Ry
     estimated scf accuracy    <       0.00104324 Ry

     iteration # 42     ecut=    30.00 Ry     beta=0.70
     Davidson diagonalization with overlap
     ethr =  1.30E-05,  avg # of iterations =  8.0

     total cpu time spent up to now is        3.9 secs

     total energy              =     -31.54704610 Ry
     Harris-Foulkes estimate   =     -31.54704639 Ry
     estimated scf accuracy    <       0.00047500 Ry

     iteration # 43     ecut=    30.00 Ry     beta=0.70
     Davidson diagonalization with overlap
     ethr =  5.94E-06,  avg # of iterations =  1.0

     total cpu time spent up to now is        4.0 secs

     total energy              =     -31.54704046 Ry
     Harris-Foulkes estimate   =     -31.54704629 Ry
     estimated scf accuracy    <       0.00050034 Ry

     iteration # 44     ecut=    30.00 Ry     beta=0.70
     Davidson diagonalization with overlap
     ethr =  5.94E-06,  avg # of iterations =  1.0

     total cpu time spent up to now is        4.0 secs

     total energy              =     -31.54704110 Ry
     Harris-Foulkes estimate   =     -31.54704197 Ry
     estimated scf accuracy    <       0.00012413 Ry

     iteration # 45     ecut=    30.00 Ry     beta=0.70
     Davidson diagonalization with overlap
     ethr =  1.55E-06,  avg # of iterations =  1.0

     total cpu time spent up to now is        4.0 secs

     total energy              =     -31.54703988 Ry
     Harris-Foulkes estimate   =     -31.54704127 Ry
     estimated scf accuracy    <       0.00005530 Ry

     iteration # 46     ecut=    30.00 Ry     beta=0.70
     Davidson diagonalization with overlap
     ethr =  6.91E-07,  avg # of iterations =  1.0

     total cpu time spent up to now is        4.1 secs

     total energy              =     -31.54704072 Ry
     Harris-Foulkes estimate   =     -31.54704072 Ry
     estimated scf accuracy    <       0.00000095 Ry

     iteration # 47     ecut=    30.00 Ry     beta=0.70
     Davidson diagonalization with overlap
     ethr =  1.18E-08,  avg # of iterations =  1.0

     total cpu time spent up to now is        4.1 secs

     total energy              =     -31.54704073 Ry
     Harris-Foulkes estimate   =     -31.54704073 Ry
     estimated scf accuracy    <       0.00000008 Ry

     iteration # 48     ecut=    30.00 Ry     beta=0.70
     Davidson diagonalization with overlap
     ethr =  9.63E-10,  avg # of iterations =  1.0

     total cpu time spent up to now is        4.1 secs

     End of self-consistent calculation

          k = 0.0000 0.0000 0.0000 ( 22119 PWs)   bands (ev):

   -23.6246  -7.5825  -6.9702  -6.9696  -6.8466  -6.4897  -0.1720   0.7467

     the Fermi energy is    -6.8139 ev

!    total energy              =     -31.54704074 Ry
     Harris-Foulkes estimate   =     -31.54704073 Ry
     estimated scf accuracy    <          9.4E-10 Ry

     convergence has been achieved in  48 iterations

     Forces acting on atoms (Ry/au):

     atom    1 type  1   force =     0.00101893   -0.00028399   -0.00002245
     atom    2 type  1   force =    -0.00360835    0.05047149    0.00578053
     atom    3 type  2   force =     0.00258941   -0.05018750   -0.00575808

     Total force =     0.071788     Total SCF correction =     0.000044

     Entering Dynamics:    iteration =     2
                           time      =   0.0097 pico-seconds


     Andersen thermostat:    3 collisions

ATOMIC_POSITIONS (bohr)
H       17.760712759   0.859818115  10.840406333
H        7.953861292   7.955349155   2.897566275
O        7.724307602  12.523818374   3.608647372


     kinetic energy (Ekin) =     0.01811713 Ry
     temperature           =   953.48839140 K 
     Ekin + Etot (const)   =   -31.52892361 Ry
     Message from routine dynamics:
     Total linear momentum <> 0

     Linear momentum :   -0.1936809828   -0.0535360921    0.3317930799

     Writing output data file pwscf.save

     first order wave-functions extrapolation
     Check: negative starting charge=   -0.344191
     first order charge density extrapolation
     Check: negative starting charge=   -0.344338

     negative rho (up, down):  8.963E-02 0.000E+00

     total cpu time spent up to now is        4.4 secs

     per-process dynamical memory:    20.4 Mb

     Self-consistent Calculation

     iteration #  1     ecut=    30.00 Ry     beta=0.70
     Davidson diagonalization with overlap
     c_bands:  1 eigenvalues not converged
     ethr =  1.00E-06,  avg # of iterations = 20.0

     negative rho (up, down):  2.267E-02 0.000E+00

     total cpu time spent up to now is        4.5 secs

     total energy              =     -28.74046111 Ry
     Harris-Foulkes estimate   =     -32.74758863 Ry
     estimated scf accuracy    <       2.15230978 Ry

     iteration #  2     ecut=    30.00 Ry     beta=0.70
     Davidson diagonalization with overlap
     ethr =  1.00E-02,  avg # of iterations =  3.0

     negative rho (up, down):  1.530E-02 0.000E+00

     total cpu time spent up to now is        4.6 secs

     total energy              =     -31.86511122 Ry
     Harris-Foulkes estimate   =     -33.39825699 Ry
     estimated scf accuracy    <       3.98427292 Ry

     iteration #  3     ecut=    30.00 Ry     beta=0.70
     Davidson diagonalization with overlap
     ethr =  1.00E-02,  avg # of iterations =  3.0

     negative rho (up, down):  1.412E-02 0.000E+00

     total cpu time spent up to now is        4.6 secs

     total energy              =     -31.76048419 Ry
     Harris-Foulkes estimate   =     -32.28059015 Ry
     estimated scf accuracy    <       3.51265262 Ry

     iteration #  4     ecut=    30.00 Ry     beta=0.70
     Davidson diagonalization with overlap
     ethr =  1.00E-02,  avg # of iterations =  1.0

     negative rho (up, down):  1.251E-02 0.000E+00

     total cpu time spent up to now is        4.6 secs

     total energy              =     -31.80230141 Ry
     Harris-Foulkes estimate   =     -31.96159934 Ry
     estimated scf accuracy    <       1.60671970 Ry

     iteration #  5     ecut=    30.00 Ry     beta=0.70
     Davidson diagonalization with overlap
     ethr =  1.00E-02,  avg # of iterations =  1.0

     negative rho (up, down):  4.891E-03 0.000E+00

     total cpu time spent up to now is        4.7 secs

     total energy              =     -31.17515459 Ry
     Harris-Foulkes estimate   =     -31.80147400 Ry
     estimated scf accuracy    <       1.58218425 Ry

     iteration #  6     ecut=    30.00 Ry     beta=0.70
     Davidson diagonalization with overlap
     ethr =  1.00E-02,  avg # of iterations =  2.0

     negative rho (up, down):  6.752E-03 0.000E+00

     total cpu time spent up to now is        4.7 secs

     total energy              =     -31.48430785 Ry
     Harris-Foulkes estimate   =     -31.84864102 Ry
     estimated scf accuracy    <       1.23882866 Ry

     iteration #  7     ecut=    30.00 Ry     beta=0.70
     Davidson diagonalization with overlap
     ethr =  1.00E-02,  avg # of iterations =  1.0

     negative rho (up, down):  6.757E-03 0.000E+00

     total cpu time spent up to now is        4.7 secs

     total energy              =     -31.68798352 Ry
     Harris-Foulkes estimate   =     -31.68746119 Ry
     estimated scf accuracy    <       2.00431099 Ry

     iteration #  8     ecut=    30.00 Ry     beta=0.70
     Davidson diagonalization with overlap
     ethr =  1.00E-02,  avg # of iterations =  1.0

     negative rho (up, down):  6.043E-03 0.000E+00

     total cpu time spent up to now is        4.8 secs

     total energy              =     -31.64866773 Ry
     Harris-Foulkes estimate   =     -31.68809683 Ry
     estimated scf accuracy    <       2.01135198 Ry

     iteration #  9     ecut=    30.00 Ry     beta=0.70
     Davidson diagonalization with overlap
     ethr =  1.00E-02,  avg # of iterations =  1.0

     negative rho (up, down):  5.793E-03 0.000E+00

     total cpu time spent up to now is        4.8 secs

     total energy              =     -31.65689717 Ry
     Harris-Foulkes estimate   =     -31.65057020 Ry
     estimated scf accuracy    <       1.72224895 Ry

     iteration # 10     ecut=    30.00 Ry     beta=0.70
     Davidson diagonalization with overlap
     ethr =  1.00E-02,  avg # of iterations =  1.0

     negative rho (up, down):  1.988E-03 0.000E+00

     total cpu time spent up to now is        4.8 secs

     total energy              =     -31.72150789 Ry
     Harris-Foulkes estimate   =     -31.66720881 Ry
     estimated scf accuracy    <       1.37614563 Ry

     iteration # 11     ecut=    30.00 Ry     beta=0.70
     Davidson diagonalization with overlap
     ethr =  1.00E-02,  avg # of iterations =  2.0

     negative rho (up, down):  3.449E-02 0.000E+00

     total cpu time spent up to now is        4.9 secs

     total energy              =     -31.62696321 Ry
     Harris-Foulkes estimate   =     -32.12237824 Ry
     estimated scf accuracy    <       2.10500491 Ry

     iteration # 12     ecut=    30.00 Ry     beta=0.70
     Davidson diagonalization with overlap
     ethr =  1.00E-02,  avg # of iterations =  1.0

     negative rho (up, down):  8.844E-03 0.000E+00

     total cpu time spent up to now is        4.9 secs

     total energy              =     -31.96724282 Ry
     Harris-Foulkes estimate   =     -32.08923828 Ry
     estimated scf accuracy    <       4.22138025 Ry

     iteration # 13     ecut=    30.00 Ry     beta=0.70
     Davidson diagonalization with overlap
     ethr =  1.00E-02,  avg # of iterations =  1.0

     negative rho (up, down):  7.835E-03 0.000E+00

     total cpu time spent up to now is        4.9 secs

     total energy              =     -31.94324352 Ry
     Harris-Foulkes estimate   =     -31.97419544 Ry
     estimated scf accuracy    <       3.81923433 Ry

     iteration # 14     ecut=    30.00 Ry     beta=0.70
     Davidson diagonalization with overlap
     ethr =  1.00E-02,  avg # of iterations =  1.0

     negative rho (up, down):  6.937E-03 0.000E+00

     total cpu time spent up to now is        5.0 secs

     total energy              =     -31.92629407 Ry
     Harris-Foulkes estimate   =     -31.94641724 Ry
     estimated scf accuracy    <       3.56109063 Ry

     iteration # 15     ecut=    30.00 Ry     beta=0.70
     Davidson diagonalization with overlap
     ethr =  1.00E-02,  avg # of iterations =  1.0

     negative rho (up, down):  3.579E-02 0.000E+00

     total cpu time spent up to now is        5.0 secs

     total energy              =     -31.80992668 Ry
     Harris-Foulkes estimate   =     -31.92647162 Ry
     estimated scf accuracy    <       3.50838308 Ry

     iteration # 16     ecut=    30.00 Ry     beta=0.70
     Davidson diagonalization with overlap
     ethr =  1.00E-02,  avg # of iterations =  1.0

     negative rho (up, down):  4.967E-03 0.000E+00

     total cpu time spent up to now is        5.0 secs

     total energy              =     -31.46151192 Ry
     Harris-Foulkes estimate   =     -31.82708537 Ry
     estimated scf accuracy    <       2.52134946 Ry

     iteration # 17     ecut=    30.00 Ry     beta=0.70
     Davidson diagonalization with overlap
     ethr =  1.00E-02,  avg # of iterations =  1.0

     negative rho (up, down):  3.293E-05 0.000E+00

     total cpu time spent up to now is        5.1 secs

     total energy              =     -31.54676184 Ry
     Harris-Foulkes estimate   =     -31.66155578 Ry
     estimated scf accuracy    <       0.51589629 Ry

     iteration # 18     ecut=    30.00 Ry     beta=0.70
     Davidson diagonalization with overlap
     ethr =  6.45E-03,  avg # of iterations =  1.0

     negative rho (up, down):  2.013E-05 0.000E+00

     total cpu time spent up to now is        5.1 secs

     total energy              =     -31.57917819 Ry
     Harris-Foulkes estimate   =     -31.58661470 Ry
     estimated scf accuracy    <       0.41984007 Ry

     iteration # 19     ecut=    30.00 Ry     beta=0.70
     Davidson diagonalization with overlap
     ethr =  5.25E-03,  avg # of iterations =  1.0

     negative rho (up, down):  2.784E-05 0.000E+00

     total cpu time spent up to now is        5.1 secs

     total energy              =     -31.58150850 Ry
     Harris-Foulkes estimate   =     -31.58179470 Ry
     estimated scf accuracy    <       0.04680266 Ry

     iteration # 20     ecut=    30.00 Ry     beta=0.70
     Davidson diagonalization with overlap
     ethr =  5.85E-04,  avg # of iterations =  1.0

     negative rho (up, down):  1.331E-05 0.000E+00

     total cpu time spent up to now is        5.2 secs

     total energy              =     -31.58187998 Ry
     Harris-Foulkes estimate   =     -31.58159080 Ry
     estimated scf accuracy    <       0.02651011 Ry

     iteration # 21     ecut=    30.00 Ry     beta=0.70
     Davidson diagonalization with overlap
     ethr =  3.31E-04,  avg # of iterations =  1.0

     negative rho (up, down):  7.532E-07 0.000E+00

     total cpu time spent up to now is        5.2 secs

     total energy              =     -31.62059036 Ry
     Harris-Foulkes estimate   =     -31.61935760 Ry
     estimated scf accuracy    <       1.88425118 Ry

     iteration # 22     ecut=    30.00 Ry     beta=0.70
     Davidson diagonalization with overlap
     ethr =  3.31E-04,  avg # of iterations =  1.0

     negative rho (up, down):  5.305E-06 0.000E+00

     total cpu time spent up to now is        5.2 secs

     total energy              =     -31.64751960 Ry
     Harris-Foulkes estimate   =     -31.62085735 Ry
     estimated scf accuracy    <       1.97409713 Ry

     iteration # 23     ecut=    30.00 Ry     beta=0.70
     Davidson diagonalization with overlap
     ethr =  3.31E-04,  avg # of iterations =  1.0

     negative rho (up, down):  8.248E-07 0.000E+00

     total cpu time spent up to now is        5.3 secs

     total energy              =     -31.72277217 Ry
     Harris-Foulkes estimate   =     -31.65586734 Ry
     estimated scf accuracy    <       1.21022382 Ry

     iteration # 24     ecut=    30.00 Ry     beta=0.70
     Davidson diagonalization with overlap
     ethr =  3.31E-04,  avg # of iterations =  1.0

     negative rho (up, down):  8.456E-05 0.000E+00

     total cpu time spent up to now is        5.3 secs

     total energy              =     -31.79673178 Ry
     Harris-Foulkes estimate   =     -31.73950871 Ry
     estimated scf accuracy    <       1.89713896 Ry

     iteration # 25     ecut=    30.00 Ry     beta=0.70
     Davidson diagonalization with overlap
     ethr =  3.31E-04,  avg # of iterations =  3.0

     negative rho (up, down):  2.521E-02 0.000E+00

     total cpu time spent up to now is        5.3 secs

     total energy              =     -32.13880009 Ry
     Harris-Foulkes estimate   =     -31.85849977 Ry
     estimated scf accuracy    <       1.43976762 Ry

     iteration # 26     ecut=    30.00 Ry     beta=0.70
     Davidson diagonalization with overlap
     ethr =  3.31E-04,  avg # of iterations =  3.0

     negative rho (up, down):  6.164E-02 0.000E+00

     total cpu time spent up to now is        5.4 secs

     total energy              =     -32.32429286 Ry
     Harris-Foulkes estimate   =     -32.15130587 Ry
     estimated scf accuracy    <       1.99757494 Ry

     iteration # 27     ecut=    30.00 Ry     beta=0.70
     Davidson diagonalization with overlap
     ethr =  3.31E-04,  avg # of iterations =  2.0

     negative rho (up, down):  1.846E-02 0.000E+00

     total cpu time spent up to now is        5.4 secs

     total energy              =     -32.11808612 Ry
     Harris-Foulkes estimate   =     -32.33058327 Ry
     estimated scf accuracy    <       2.53360280 Ry

     iteration # 28     ecut=    30.00 Ry     beta=0.70
     Davidson diagonalization with overlap
     ethr =  3.31E-04,  avg # of iterations =  2.0

     negative rho (up, down):  2.398E-08 0.000E+00

     total cpu time spent up to now is        5.5 secs

     total energy              =     -31.46771357 Ry
     Harris-Foulkes estimate   =     -32.12113984 Ry
     estimated scf accuracy    <       2.07434760 Ry

     iteration # 29     ecut=    30.00 Ry     beta=0.70
     Davidson diagonalization with overlap
     ethr =  3.31E-04,  avg # of iterations =  5.0

     total cpu time spent up to now is        5.6 secs

     total energy              =     -31.43334027 Ry
     Harris-Foulkes estimate   =     -31.63200267 Ry
     estimated scf accuracy    <       1.21162694 Ry

     iteration # 30     ecut=    30.00 Ry     beta=0.70
     Davidson diagonalization with overlap
     ethr =  3.31E-04,  avg # of iterations =  3.0

     total cpu time spent up to now is        5.6 secs

     total energy              =     -31.73470286 Ry
     Harris-Foulkes estimate   =     -31.72584729 Ry
     estimated scf accuracy    <       1.43848343 Ry

     iteration # 31     ecut=    30.00 Ry     beta=0.70
     Davidson diagonalization with overlap
     ethr =  3.31E-04,  avg # of iterations =  1.0

     total cpu time spent up to now is        5.6 secs

     total energy              =     -31.75956418 Ry
     Harris-Foulkes estimate   =     -31.73474973 Ry
     estimated scf accuracy    <       1.45910765 Ry

     iteration # 32     ecut=    30.00 Ry     beta=0.70
     Davidson diagonalization with overlap
     ethr =  3.31E-04,  avg # of iterations =  1.0

     negative rho (up, down):  2.299E-04 0.000E+00

     total cpu time spent up to now is        5.7 secs

     total energy              =     -31.88477536 Ry
     Harris-Foulkes estimate   =     -31.75963712 Ry
     estimated scf accuracy    <       1.51634037 Ry

     iteration # 33     ecut=    30.00 Ry     beta=0.70
     Davidson diagonalization with overlap
     ethr =  3.31E-04,  avg # of iterations =  1.0

     negative rho (up, down):  1.807E-03 0.000E+00

     total cpu time spent up to now is        5.7 secs

     total energy              =     -31.94898186 Ry
     Harris-Foulkes estimate   =     -31.88600397 Ry
     estimated scf accuracy    <       1.71495050 Ry

     iteration # 34     ecut=    30.00 Ry     beta=0.70
     Davidson diagonalization with overlap
     ethr =  3.31E-04,  avg # of iterations =  1.0

     negative rho (up, down):  3.349E-08 0.000E+00

     total cpu time spent up to now is        5.7 secs

     total energy              =     -31.76390419 Ry
     Harris-Foulkes estimate   =     -31.94945059 Ry
     estimated scf accuracy    <       1.78948688 Ry

     iteration # 35     ecut=    30.00 Ry     beta=0.70
     Davidson diagonalization with overlap
     ethr =  3.31E-04,  avg # of iterations =  2.0

     total cpu time spent up to now is        5.8 secs

     total energy              =     -31.54503261 Ry
     Harris-Foulkes estimate   =     -31.76622036 Ry
     estimated scf accuracy    <       1.50733754 Ry

     iteration # 36     ecut=    30.00 Ry     beta=0.70
     Davidson diagonalization with overlap
     ethr =  3.31E-04,  avg # of iterations =  2.0

     total cpu time spent up to now is        5.8 secs

     total energy              =     -31.57920346 Ry
     Harris-Foulkes estimate   =     -31.58339018 Ry
     estimated scf accuracy    <       0.36116551 Ry

     iteration # 37     ecut=    30.00 Ry     beta=0.70
     Davidson diagonalization with overlap
     ethr =  3.31E-04,  avg # of iterations =  1.0

     total cpu time spent up to now is        5.8 secs

     total energy              =     -31.55024073 Ry
     Harris-Foulkes estimate   =     -31.57993384 Ry
     estimated scf accuracy    <       0.14614116 Ry

     iteration # 38     ecut=    30.00 Ry     beta=0.70
     Davidson diagonalization with overlap
     ethr =  3.31E-04,  avg # of iterations =  1.0

     total cpu time spent up to now is        5.9 secs

     total energy              =     -31.60095400 Ry
     Harris-Foulkes estimate   =     -31.65006822 Ry
     estimated scf accuracy    <       1.33096427 Ry

     iteration # 39     ecut=    30.00 Ry     beta=0.70
     Davidson diagonalization with overlap
     ethr =  3.31E-04,  avg # of iterations =  1.0

     total cpu time spent up to now is        5.9 secs

     total energy              =     -31.56932850 Ry
     Harris-Foulkes estimate   =     -31.59753280 Ry
     estimated scf accuracy    <       1.34235023 Ry

     iteration # 40     ecut=    30.00 Ry     beta=0.70
     Davidson diagonalization with overlap
     ethr =  3.31E-04,  avg # of iterations =  1.0

     total cpu time spent up to now is        5.9 secs

     total energy              =     -31.57642972 Ry
     Harris-Foulkes estimate   =     -31.57887876 Ry
     estimated scf accuracy    <       0.07917366 Ry

     iteration # 41     ecut=    30.00 Ry     beta=0.70
     Davidson diagonalization with overlap
     ethr =  3.31E-04,  avg # of iterations =  1.0

     total cpu time spent up to now is        6.0 secs

     total energy              =     -31.57920888 Ry
     Harris-Foulkes estimate   =     -31.57801623 Ry
     estimated scf accuracy    <       0.00654568 Ry

     iteration # 42     ecut=    30.00 Ry     beta=0.70
     Davidson diagonalization with overlap
     ethr =  8.18E-05,  avg # of iterations =  1.0

     total cpu time spent up to now is        6.0 secs

     total energy              =     -31.57503430 Ry
     Harris-Foulkes estimate   =     -31.58264086 Ry
     estimated scf accuracy    <       0.31102517 Ry

     iteration # 43     ecut=    30.00 Ry     beta=0.70
     Davidson diagonalization with overlap
     ethr =  8.18E-05,  avg # of iterations =  1.0

     total cpu time spent up to now is        6.1 secs

     total energy              =     -31.57791373 Ry
     Harris-Foulkes estimate   =     -31.57803006 Ry
     estimated scf accuracy    <       0.00765995 Ry

     iteration # 44     ecut=    30.00 Ry     beta=0.70
     Davidson diagonalization with overlap
     ethr =  8.18E-05,  avg # of iterations =  1.0

     total cpu time spent up to now is        6.1 secs

     total energy              =     -31.57791941 Ry
     Harris-Foulkes estimate   =     -31.57794959 Ry
     estimated scf accuracy    <       0.00117261 Ry

     iteration # 45     ecut=    30.00 Ry     beta=0.70
     Davidson diagonalization with overlap
     ethr =  1.47E-05,  avg # of iterations =  1.0

     total cpu time spent up to now is        6.1 secs

     total energy              =     -31.57793919 Ry
     Harris-Foulkes estimate   =     -31.57793564 Ry
     estimated scf accuracy    <       0.00000659 Ry

     iteration # 46     ecut=    30.00 Ry     beta=0.70
     Davidson diagonalization with overlap
     ethr =  8.24E-08,  avg # of iterations = 15.0

     total cpu time spent up to now is        6.2 secs

     total energy              =     -31.57797691 Ry
     Harris-Foulkes estimate   =     -31.57797055 Ry
     estimated scf accuracy    <       0.00281919 Ry

     iteration # 47     ecut=    30.00 Ry     beta=0.70
     Davidson diagonalization with overlap
     ethr =  8.24E-08,  avg # of iterations =  1.0

     total cpu time spent up to now is        6.2 secs

     total energy              =     -31.57789075 Ry
     Harris-Foulkes estimate   =     -31.57797719 Ry
     estimated scf accuracy    <       0.00334906 Ry

     iteration # 48     ecut=    30.00 Ry     beta=0.70
     Davidson diagonalization with overlap
     ethr =  8.24E-08,  avg # of iterations =  1.0

     total cpu time spent up to now is        6.3 secs

     total energy              =     -31.57793750 Ry
     Harris-Foulkes estimate   =     -31.57793643 Ry
     estimated scf accuracy    <       0.00001254 Ry

     iteration # 49     ecut=    30.00 Ry     beta=0.70
     Davidson diagonalization with overlap
     ethr =  8.24E-08,  avg # of iterations =  1.0

     total cpu time spent up to now is        6.3 secs

     total energy              =     -31.57793755 Ry
     Harris-Foulkes estimate   =     -31.57793755 Ry
     estimated scf accuracy    <       0.00001023 Ry

     iteration # 50     ecut=    30.00 Ry     beta=0.70
     Davidson diagonalization with overlap
     ethr =  8.24E-08,  avg # of iterations =  1.0

     total cpu time spent up to now is        6.3 secs

     total energy              =     -31.57793746 Ry
     Harris-Foulkes estimate   =     -31.57793757 Ry
     estimated scf accuracy    <       0.00000364 Ry

     iteration # 51     ecut=    30.00 Ry     beta=0.70
     Davidson diagonalization with overlap
     ethr =  4.54E-08,  avg # of iterations =  1.0

     total cpu time spent up to now is        6.4 secs

     total energy              =     -31.57793759 Ry
     Harris-Foulkes estimate   =     -31.57793752 Ry
     estimated scf accuracy    <       0.00000007 Ry

     iteration # 52     ecut=    30.00 Ry     beta=0.70
     Davidson diagonalization with overlap
     ethr =  8.88E-10,  avg # of iterations =  1.0

     total cpu time spent up to now is        6.4 secs

     total energy              =     -31.57793744 Ry
     Harris-Foulkes estimate   =     -31.57793759 Ry
     estimated scf accuracy    <       0.00000045 Ry

     iteration # 53     ecut=    30.00 Ry     beta=0.70
     Davidson diagonalization with overlap
     ethr =  8.88E-10,  avg # of iterations =  1.0

     total cpu time spent up to now is        6.4 secs

     total energy              =     -31.57793724 Ry
     Harris-Foulkes estimate   =     -31.57793745 Ry
     estimated scf accuracy    <       0.00000002 Ry

     iteration # 54     ecut=    30.00 Ry     beta=0.70
     Davidson diagonalization with overlap
     ethr =  2.24E-10,  avg # of iterations =  2.0

     total cpu time spent up to now is        6.4 secs

     End of self-consistent calculation

          k = 0.0000 0.0000 0.0000 ( 22119 PWs)   bands (ev):

   -23.6025  -7.8294  -6.9221  -6.9216  -6.7884  -6.2528  -0.1607   0.7449

     the Fermi energy is    -6.7543 ev

!    total energy              =     -31.57793714 Ry
     Harris-Foulkes estimate   =     -31.57793724 Ry
     estimated scf accuracy    <          5.9E-09 Ry

     convergence has been achieved in  54 iterations

     Forces acting on atoms (Ry/au):

     atom    1 type  1   force =     0.00114904   -0.00014450    0.00005780
     atom    2 type  1   force =    -0.00292069    0.07998650    0.01262437
     atom    3 type  2   force =     0.00177165   -0.07984200   -0.01268217

     Total force =     0.114481     Total SCF correction =     0.000178

     Entering Dynamics:    iteration =     3
                           time      =   0.0145 pico-seconds


     Andersen thermostat:    3 collisions

ATOMIC_POSITIONS (bohr)
H       17.340699364   1.359264151  10.721790895
H        7.583700217   8.676502652   3.226791556
O        7.774187365  12.446768028   3.595352625


     kinetic energy (Ekin) =     0.04145476 Ry
     temperature           =  2181.72696360 K 
     Ekin + Etot (const)   =   -31.53648238 Ry
     Message from routine dynamics:
     Total linear momentum <> 0

     Linear momentum :   -0.4367653566    0.0311068171   -0.4319516967

     Writing output data file pwscf.save

     second order wave-functions extrapolation
     Check: negative starting charge=   -0.344338
     second order charge density extrapolation
     Check: negative starting charge=   -0.345517

     negative rho (up, down):  1.839E-01 0.000E+00

     total cpu time spent up to now is        6.8 secs

     per-process dynamical memory:    20.4 Mb

     Self-consistent Calculation

     iteration #  1     ecut=    30.00 Ry     beta=0.70
     Davidson diagonalization with overlap
     c_bands:  1 eigenvalues not converged
     ethr =  1.00E-06,  avg # of iterations = 20.0

     negative rho (up, down):  4.745E-02 0.000E+00

     total cpu time spent up to now is        6.9 secs

     total energy              =     -28.19063759 Ry
     Harris-Foulkes estimate   =     -32.47242857 Ry
     estimated scf accuracy    <       1.94182719 Ry

     iteration #  2     ecut=    30.00 Ry     beta=0.70
     Davidson diagonalization with overlap
     ethr =  1.00E-02,  avg # of iterations =  4.0

     negative rho (up, down):  3.261E-02 0.000E+00

     total cpu time spent up to now is        6.9 secs

     total energy              =     -31.67081002 Ry
     Harris-Foulkes estimate   =     -33.07767868 Ry
     estimated scf accuracy    <       3.65869005 Ry

     iteration #  3     ecut=    30.00 Ry     beta=0.70
     Davidson diagonalization with overlap
     ethr =  1.00E-02,  avg # of iterations =  3.0

     negative rho (up, down):  2.965E-02 0.000E+00

     total cpu time spent up to now is        7.0 secs

     total energy              =     -31.80539228 Ry
     Harris-Foulkes estimate   =     -32.42605667 Ry
     estimated scf accuracy    <       3.49377033 Ry

     iteration #  4     ecut=    30.00 Ry     beta=0.70
     Davidson diagonalization with overlap
     ethr =  1.00E-02,  avg # of iterations =  1.0

     negative rho (up, down):  2.379E-02 0.000E+00

     total cpu time spent up to now is        7.0 secs

     total energy              =     -31.74469029 Ry
     Harris-Foulkes estimate   =     -31.86598473 Ry
     estimated scf accuracy    <       0.67846724 Ry

     iteration #  5     ecut=    30.00 Ry     beta=0.70
     Davidson diagonalization with overlap
     ethr =  8.48E-03,  avg # of iterations =  1.0

     negative rho (up, down):  1.718E-02 0.000E+00

     total cpu time spent up to now is        7.0 secs

     total energy              =     -31.59508471 Ry
     Harris-Foulkes estimate   =     -31.76604831 Ry
     estimated scf accuracy    <       1.20239683 Ry

     iteration #  6     ecut=    30.00 Ry     beta=0.70
     Davidson diagonalization with overlap
     ethr =  8.48E-03,  avg # of iterations =  1.0

     negative rho (up, down):  1.158E-02 0.000E+00

     total cpu time spent up to now is        7.1 secs

     total energy              =     -31.71303496 Ry
     Harris-Foulkes estimate   =     -31.80292520 Ry
     estimated scf accuracy    <       1.28085879 Ry

     iteration #  7     ecut=    30.00 Ry     beta=0.70
     Davidson diagonalization with overlap
     ethr =  8.48E-03,  avg # of iterations =  1.0

     negative rho (up, down):  9.513E-03 0.000E+00

     total cpu time spent up to now is        7.1 secs

     total energy              =     -31.60553934 Ry
     Harris-Foulkes estimate   =     -31.71768218 Ry
     estimated scf accuracy    <       1.31427847 Ry

     iteration #  8     ecut=    30.00 Ry     beta=0.70
     Davidson diagonalization with overlap
     ethr =  8.48E-03,  avg # of iterations =  1.0

     negative rho (up, down):  3.254E-03 0.000E+00

     total cpu time spent up to now is        7.1 secs

     total energy              =     -31.65070054 Ry
     Harris-Foulkes estimate   =     -31.69472838 Ry
     estimated scf accuracy    <       1.22771327 Ry

     iteration #  9     ecut=    30.00 Ry     beta=0.70
     Davidson diagonalization with overlap
     ethr =  8.48E-03,  avg # of iterations =  1.0

     negative rho (up, down):  2.915E-03 0.000E+00

     total cpu time spent up to now is        7.2 secs

     total energy              =     -31.65028752 Ry
     Harris-Foulkes estimate   =     -31.66238956 Ry
     estimated scf accuracy    <       0.30931497 Ry

     iteration # 10     ecut=    30.00 Ry     beta=0.70
     Davidson diagonalization with overlap
     ethr =  3.87E-03,  avg # of iterations =  1.0

     negative rho (up, down):  1.069E-07 0.000E+00

     total cpu time spent up to now is        7.2 secs

     total energy              =     -31.67013616 Ry
     Harris-Foulkes estimate   =     -31.66146433 Ry
     estimated scf accuracy    <       0.14157601 Ry

     iteration # 11     ecut=    30.00 Ry     beta=0.70
     Davidson diagonalization with overlap
     ethr =  1.77E-03,  avg # of iterations =  1.0

     negative rho (up, down):  1.693E-08 0.000E+00

     total cpu time spent up to now is        7.2 secs

     total energy              =     -31.65747423 Ry
     Harris-Foulkes estimate   =     -31.68331107 Ry
     estimated scf accuracy    <       1.45741201 Ry

     iteration # 12     ecut=    30.00 Ry     beta=0.70
     Davidson diagonalization with overlap
     ethr =  1.77E-03,  avg # of iterations =  1.0

     total cpu time spent up to now is        7.3 secs

     total energy              =     -31.65354467 Ry
     Harris-Foulkes estimate   =     -31.66420675 Ry
     estimated scf accuracy    <       0.23859344 Ry

     iteration # 13     ecut=    30.00 Ry     beta=0.70
     Davidson diagonalization with overlap
     ethr =  1.77E-03,  avg # of iterations =  1.0

     total cpu time spent up to now is        7.3 secs

     total energy              =     -31.66210398 Ry
     Harris-Foulkes estimate   =     -31.66353734 Ry
     estimated scf accuracy    <       0.15651000 Ry

     iteration # 14     ecut=    30.00 Ry     beta=0.70
     Davidson diagonalization with overlap
     ethr =  1.77E-03,  avg # of iterations =  1.0

     total cpu time spent up to now is        7.3 secs

     total energy              =     -31.66074560 Ry
     Harris-Foulkes estimate   =     -31.66232654 Ry
     estimated scf accuracy    <       0.07276962 Ry

     iteration # 15     ecut=    30.00 Ry     beta=0.70
     Davidson diagonalization with overlap
     ethr =  9.10E-04,  avg # of iterations =  1.0

     total cpu time spent up to now is        7.4 secs

     total energy              =     -31.66137408 Ry
     Harris-Foulkes estimate   =     -31.66138913 Ry
     estimated scf accuracy    <       0.00192040 Ry

     iteration # 16     ecut=    30.00 Ry     beta=0.70
     Davidson diagonalization with overlap
     ethr =  2.40E-05,  avg # of iterations =  3.0

     total cpu time spent up to now is        7.4 secs

     total energy              =     -31.66133992 Ry
     Harris-Foulkes estimate   =     -31.66137673 Ry
     estimated scf accuracy    <       0.00103515 Ry

     iteration # 17     ecut=    30.00 Ry     beta=0.70
     Davidson diagonalization with overlap
     ethr =  1.29E-05,  avg # of iterations =  1.0

     total cpu time spent up to now is        7.4 secs

     total energy              =     -31.66136391 Ry
     Harris-Foulkes estimate   =     -31.66136701 Ry
     estimated scf accuracy    <       0.00022705 Ry

     iteration # 18     ecut=    30.00 Ry     beta=0.70
     Davidson diagonalization with overlap
[...]

     total energy              =     142.29238910 Ry
     Harris-Foulkes estimate   =   -1347.91473241 Ry
     estimated scf accuracy    <      53.65814293 Ry

     iteration # 59     ecut=    30.00 Ry     beta=0.70
     Davidson diagonalization with overlap
     ethr =  1.00E-02,  avg # of iterations =  7.0

     negative rho (up, down):  2.887E-01 0.000E+00

     total cpu time spent up to now is       14.7 secs

     total energy              =     131.02279767 Ry
     Harris-Foulkes estimate   =    -607.52952980 Ry
     estimated scf accuracy    <      46.48426703 Ry

     iteration # 60     ecut=    30.00 Ry     beta=0.70
     Davidson diagonalization with overlap
     ethr =  1.00E-02,  avg # of iterations =  9.0

     negative rho (up, down):  2.847E-02 0.000E+00

     total cpu time spent up to now is       14.8 secs

     total energy              =     150.86806766 Ry
     Harris-Foulkes estimate   =   -1350.66744310 Ry
     estimated scf accuracy    <      39.08896940 Ry

     iteration # 61     ecut=    30.00 Ry     beta=0.70
     Davidson diagonalization with overlap
     ethr =  1.00E-02,  avg # of iterations = 11.0

     negative rho (up, down):  3.232E-02 0.000E+00

     total cpu time spent up to now is       14.8 secs

     total energy              =      36.02514072 Ry
     Harris-Foulkes estimate   =    -434.56554490 Ry
     estimated scf accuracy    <      22.67523191 Ry

     iteration # 62     ecut=    30.00 Ry     beta=0.70
     Davidson diagonalization with overlap
     ethr =  1.00E-02,  avg # of iterations =  7.0

     negative rho (up, down):  3.595E-03 0.000E+00

     total cpu time spent up to now is       14.9 secs

     total energy              =      39.78941134 Ry
     Harris-Foulkes estimate   =   -1255.44796611 Ry
     estimated scf accuracy    <      19.14957495 Ry

     iteration # 63     ecut=    30.00 Ry     beta=0.70
     Davidson diagonalization with overlap
     ethr =  1.00E-02,  avg # of iterations =  5.0

     negative rho (up, down):  1.042E-01 0.000E+00

     total cpu time spent up to now is       14.9 secs

     total energy              =     -52.53104629 Ry
     Harris-Foulkes estimate   =     -61.37840304 Ry
     estimated scf accuracy    <      42.01279124 Ry

     iteration # 64     ecut=    30.00 Ry     beta=0.70
     Davidson diagonalization with overlap
     ethr =  1.00E-02,  avg # of iterations =  7.0

     negative rho (up, down):  1.823E-02 0.000E+00

     total cpu time spent up to now is       15.0 secs

     total energy              =     131.65833508 Ry
     Harris-Foulkes estimate   =    -822.69617203 Ry
     estimated scf accuracy    <      27.57731808 Ry

     iteration # 65     ecut=    30.00 Ry     beta=0.70
     Davidson diagonalization with overlap
     ethr =  1.00E-02,  avg # of iterations =  7.0

     negative rho (up, down):  6.740E-01 0.000E+00

     total cpu time spent up to now is       15.1 secs

     total energy              =     -40.56639047 Ry
     Harris-Foulkes estimate   =     -54.98053567 Ry
     estimated scf accuracy    <      34.07209618 Ry

     iteration # 66     ecut=    30.00 Ry     beta=0.70
     Davidson diagonalization with overlap
     ethr =  1.00E-02,  avg # of iterations =  8.0

     negative rho (up, down):  3.011E-01 0.000E+00

     total cpu time spent up to now is       15.1 secs

     total energy              =      61.23973265 Ry
     Harris-Foulkes estimate   =    -130.26776262 Ry
     estimated scf accuracy    <      43.10846436 Ry

     iteration # 67     ecut=    30.00 Ry     beta=0.70
     Davidson diagonalization with overlap
     ethr =  1.00E-02,  avg # of iterations =  4.0

     negative rho (up, down):  2.890E-04 0.000E+00

     total cpu time spent up to now is       15.2 secs

     total energy              =      37.17798635 Ry
     Harris-Foulkes estimate   =   -1088.66424561 Ry
     estimated scf accuracy    <      12.99415356 Ry

     iteration # 68     ecut=    30.00 Ry     beta=0.70
     Davidson diagonalization with overlap
     ethr =  1.00E-02,  avg # of iterations =  6.0

     negative rho (up, down):  1.301E-04 0.000E+00

     total cpu time spent up to now is       15.3 secs

     total energy              =      -9.14232814 Ry
     Harris-Foulkes estimate   =     -81.56711955 Ry
     estimated scf accuracy    <      17.19799862 Ry

     iteration # 69     ecut=    30.00 Ry     beta=0.70
     Davidson diagonalization with overlap
     ethr =  1.00E-02,  avg # of iterations =  8.0

     negative rho (up, down):  2.283E-02 0.000E+00

     total cpu time spent up to now is       15.4 secs

     total energy              =      -7.38251459 Ry
     Harris-Foulkes estimate   =     -62.27882912 Ry
     estimated scf accuracy    <      15.37213807 Ry

     iteration # 70     ecut=    30.00 Ry     beta=0.70
     Davidson diagonalization with overlap
     ethr =  1.00E-02,  avg # of iterations =  6.0

     negative rho (up, down):  4.340E-03 0.000E+00

     total cpu time spent up to now is       15.5 secs

     total energy              =      78.34868000 Ry
     Harris-Foulkes estimate   =    -425.69835412 Ry
     estimated scf accuracy    <      17.56766643 Ry

     iteration # 71     ecut=    30.00 Ry     beta=0.70
     Davidson diagonalization with overlap
     ethr =  1.00E-02,  avg # of iterations =  4.0

     negative rho (up, down):  9.243E-03 0.000E+00

     total cpu time spent up to now is       15.5 secs

     total energy              =     -41.67337556 Ry
     Harris-Foulkes estimate   =     -44.94320679 Ry
     estimated scf accuracy    <      21.47439033 Ry

     iteration # 72     ecut=    30.00 Ry     beta=0.70
     Davidson diagonalization with overlap
     ethr =  1.00E-02,  avg # of iterations =  1.0

     negative rho (up, down):  5.095E-02 0.000E+00

     total cpu time spent up to now is       15.6 secs

     total energy              =     -38.68894676 Ry
     Harris-Foulkes estimate   =     -41.69363122 Ry
     estimated scf accuracy    <      17.31220104 Ry

     iteration # 73     ecut=    30.00 Ry     beta=0.70
     Davidson diagonalization with overlap
     ethr =  1.00E-02,  avg # of iterations =  9.0

     negative rho (up, down):  3.804E-02 0.000E+00

     total cpu time spent up to now is       15.7 secs

     total energy              =      56.61816453 Ry
     Harris-Foulkes estimate   =    -250.18272718 Ry
     estimated scf accuracy    <      21.68678251 Ry

     iteration # 74     ecut=    30.00 Ry     beta=0.70
     Davidson diagonalization with overlap
     ethr =  1.00E-02,  avg # of iterations =  6.0

     negative rho (up, down):  2.431E-01 0.000E+00

     total cpu time spent up to now is       15.8 secs

     total energy              =      46.54170061 Ry
     Harris-Foulkes estimate   =    -125.65041960 Ry
     estimated scf accuracy    <      31.38632036 Ry

     iteration # 75     ecut=    30.00 Ry     beta=0.70
     Davidson diagonalization with overlap
     ethr =  1.00E-02,  avg # of iterations = 10.0

     negative rho (up, down):  8.846E-02 0.000E+00

     total cpu time spent up to now is       15.9 secs

     total energy              =     208.95324591 Ry
     Harris-Foulkes estimate   =    -794.91921138 Ry
     estimated scf accuracy    <      46.72709574 Ry

     iteration # 76     ecut=    30.00 Ry     beta=0.70
     Davidson diagonalization with overlap
     ethr =  1.00E-02,  avg # of iterations =  7.0

     negative rho (up, down):  6.121E-02 0.000E+00

     total cpu time spent up to now is       15.9 secs

     total energy              =       0.46493032 Ry
     Harris-Foulkes estimate   =    -739.32118703 Ry
     estimated scf accuracy    <      43.94900115 Ry

     iteration # 77     ecut=    30.00 Ry     beta=0.70
     Davidson diagonalization with overlap
     ethr =  1.00E-02,  avg # of iterations = 11.0

     negative rho (up, down):  9.421E-02 0.000E+00

     total cpu time spent up to now is       16.0 secs

     total energy              =       5.17255675 Ry
     Harris-Foulkes estimate   =   -1082.87766234 Ry
     estimated scf accuracy    <      27.12127866 Ry

     iteration # 78     ecut=    30.00 Ry     beta=0.70
     Davidson diagonalization with overlap
     ethr =  1.00E-02,  avg # of iterations =  8.0

     negative rho (up, down):  2.129E-01 0.000E+00

     total cpu time spent up to now is       16.1 secs

     total energy              =      88.63793519 Ry
     Harris-Foulkes estimate   =   -1973.86217371 Ry
     estimated scf accuracy    <      36.87467666 Ry

     iteration # 79     ecut=    30.00 Ry     beta=0.70
     Davidson diagonalization with overlap
     ethr =  1.00E-02,  avg # of iterations = 10.0

     negative rho (up, down):  1.673E-02 0.000E+00

     total cpu time spent up to now is       16.1 secs

     total energy              =     108.35706322 Ry
     Harris-Foulkes estimate   =   -1929.59454245 Ry
     estimated scf accuracy    <      44.01748406 Ry

     iteration # 80     ecut=    30.00 Ry     beta=0.70
     Davidson diagonalization with overlap
     ethr =  1.00E-02,  avg # of iterations =  6.0

     negative rho (up, down):  2.106E-01 0.000E+00

     total cpu time spent up to now is       16.2 secs

     total energy              =      26.73862852 Ry
     Harris-Foulkes estimate   =    -301.78935275 Ry
     estimated scf accuracy    <      16.70235821 Ry

     iteration # 81     ecut=    30.00 Ry     beta=0.70
     Davidson diagonalization with overlap
     ethr =  1.00E-02,  avg # of iterations =  9.0

     negative rho (up, down):  9.264E-01 0.000E+00

     total cpu time spent up to now is       16.2 secs

     total energy              =      47.95740676 Ry
     Harris-Foulkes estimate   =   -1840.60052016 Ry
     estimated scf accuracy    <      45.62983156 Ry

     iteration # 82     ecut=    30.00 Ry     beta=0.70
     Davidson diagonalization with overlap
     ethr =  1.00E-02,  avg # of iterations = 11.0

     negative rho (up, down):  9.778E-01 0.000E+00

     total cpu time spent up to now is       16.3 secs

     total energy              =      52.39647329 Ry
     Harris-Foulkes estimate   =    -926.22783237 Ry
     estimated scf accuracy    <      36.48916204 Ry

     iteration # 83     ecut=    30.00 Ry     beta=0.70
     Davidson diagonalization with overlap
     ethr =  1.00E-02,  avg # of iterations =  7.0

     negative rho (up, down):  1.080E+00 0.000E+00

     total cpu time spent up to now is       16.4 secs

     total energy              =     -15.79966359 Ry
     Harris-Foulkes estimate   =  -15533.06197219 Ry
     estimated scf accuracy    <      35.64613230 Ry

     iteration # 84     ecut=    30.00 Ry     beta=0.70
     Davidson diagonalization with overlap
     ethr =  1.00E-02,  avg # of iterations =  7.0

     negative rho (up, down):  9.265E-01 0.000E+00

     total cpu time spent up to now is       16.4 secs

     total energy              =    -259.75662311 Ry
     Harris-Foulkes estimate   =   -4120.06131358 Ry
     estimated scf accuracy    <      37.11007855 Ry

     iteration # 85     ecut=    30.00 Ry     beta=0.70
     Davidson diagonalization with overlap
     ethr =  1.00E-02,  avg # of iterations =  7.0

     negative rho (up, down):  9.482E-01 0.000E+00

     total cpu time spent up to now is       16.5 secs

     total energy              =     126.90226742 Ry
     Harris-Foulkes estimate   =  -12761.77282563 Ry
     estimated scf accuracy    <      31.03716124 Ry

     iteration # 86     ecut=    30.00 Ry     beta=0.70
     Davidson diagonalization with overlap
     ethr =  1.00E-02,  avg # of iterations = 10.0

     negative rho (up, down):  9.631E-01 0.000E+00

     total cpu time spent up to now is       16.5 secs

     total energy              =   -1701.69330781 Ry
     Harris-Foulkes estimate   =    -109.02988691 Ry
     estimated scf accuracy    <      18.88954437 Ry

     iteration # 87     ecut=    30.00 Ry     beta=0.70
     Davidson diagonalization with overlap
     ethr =  1.00E-02,  avg # of iterations = 11.0

     negative rho (up, down):  1.348E+00 0.000E+00

     total cpu time spent up to now is       16.6 secs

     total energy              =      65.68882263 Ry
     Harris-Foulkes estimate   =  -44348.78566023 Ry
     estimated scf accuracy    <      29.27053511 Ry

     iteration # 88     ecut=    30.00 Ry     beta=0.70
     Davidson diagonalization with overlap
     ethr =  1.00E-02,  avg # of iterations = 11.0

     negative rho (up, down):  1.719E+00 0.000E+00

     total cpu time spent up to now is       16.6 secs

     total energy              =      41.96128827 Ry
     Harris-Foulkes estimate   =   -2410.54164940 Ry
     estimated scf accuracy    <      25.80477946 Ry

     iteration # 89     ecut=    30.00 Ry     beta=0.70
     Davidson diagonalization with overlap
     ethr =  1.00E-02,  avg # of iterations =  8.0

     negative rho (up, down):  1.896E+00 0.000E+00

     total cpu time spent up to now is       16.7 secs

     total energy              =     108.24077809 Ry
     Harris-Foulkes estimate   =    -788.19109166 Ry
     estimated scf accuracy    <      35.71055794 Ry

     iteration # 90     ecut=    30.00 Ry     beta=0.70
     Davidson diagonalization with overlap
     ethr =  1.00E-02,  avg # of iterations = 13.0

     negative rho (up, down):  2.405E-01 0.000E+00

     total cpu time spent up to now is       16.8 secs

     total energy              =   -1015.86643960 Ry
     Harris-Foulkes estimate   =   -2835.43213545 Ry
     estimated scf accuracy    <      28.26699160 Ry

     iteration # 91     ecut=    30.00 Ry     beta=0.70
     Davidson diagonalization with overlap
     ethr =  1.00E-02,  avg # of iterations =  7.0

     negative rho (up, down):  2.596E-01 0.000E+00

     total cpu time spent up to now is       16.8 secs

     total energy              =      18.08484015 Ry
     Harris-Foulkes estimate   =   -5745.35421540 Ry
     estimated scf accuracy    <      19.86356713 Ry

     iteration # 92     ecut=    30.00 Ry     beta=0.70
     Davidson diagonalization with overlap
     ethr =  1.00E-02,  avg # of iterations =  8.0

     negative rho (up, down):  4.064E-01 0.000E+00

     total cpu time spent up to now is       16.9 secs

     total energy              =     169.51698262 Ry
     Harris-Foulkes estimate   =   -2228.21723493 Ry
     estimated scf accuracy    <      16.53598679 Ry

     iteration # 93     ecut=    30.00 Ry     beta=0.70
     Davidson diagonalization with overlap
     ethr =  1.00E-02,  avg # of iterations =  9.0

     negative rho (up, down):  3.434E-01 0.000E+00

     total cpu time spent up to now is       16.9 secs

     total energy              =      52.42905312 Ry
     Harris-Foulkes estimate   =    -767.04325388 Ry
     estimated scf accuracy    <      23.63252896 Ry

     iteration # 94     ecut=    30.00 Ry     beta=0.70
     Davidson diagonalization with overlap
     ethr =  1.00E-02,  avg # of iterations = 10.0

     negative rho (up, down):  2.056E-01 0.000E+00

     total cpu time spent up to now is       17.0 secs

     total energy              =    -386.07794339 Ry
     Harris-Foulkes estimate   =   -3284.95440105 Ry
     estimated scf accuracy    <      20.12749764 Ry

     iteration # 95     ecut=    30.00 Ry     beta=0.70
     Davidson diagonalization with overlap
     ethr =  1.00E-02,  avg # of iterations =  5.0

     negative rho (up, down):  1.562E-01 0.000E+00

     total cpu time spent up to now is       17.1 secs

     total energy              =     -67.65914860 Ry
     Harris-Foulkes estimate   =   -2260.21271040 Ry
     estimated scf accuracy    <      19.81618803 Ry

     iteration # 96     ecut=    30.00 Ry     beta=0.70
     Davidson diagonalization with overlap
     ethr =  1.00E-02,  avg # of iterations =  7.0

     total cpu time spent up to now is       17.1 secs

     total energy              =     160.89074240 Ry
     Harris-Foulkes estimate   =   -2161.56577409 Ry
     estimated scf accuracy    <      16.75701527 Ry

     iteration # 97     ecut=    30.00 Ry     beta=0.70
     Davidson diagonalization with overlap
     ethr =  1.00E-02,  avg # of iterations =  6.0

     negative rho (up, down):  1.984E-05 0.000E+00

     total cpu time spent up to now is       17.1 secs

     total energy              =     -76.82149324 Ry
     Harris-Foulkes estimate   =     -85.85038805 Ry
     estimated scf accuracy    <      72.66165052 Ry

     iteration # 98     ecut=    30.00 Ry     beta=0.70
     Davidson diagonalization with overlap
     ethr =  1.00E-02,  avg # of iterations =  1.0

     negative rho (up, down):  5.273E-01 0.000E+00

     total cpu time spent up to now is       17.2 secs

     total energy              =     -62.00604432 Ry
     Harris-Foulkes estimate   =     -76.84769656 Ry
     estimated scf accuracy    <      61.12173486 Ry

     iteration # 99     ecut=    30.00 Ry     beta=0.70
     Davidson diagonalization with overlap
     ethr =  1.00E-02,  avg # of iterations = 12.0

     negative rho (up, down):  4.639E-01 0.000E+00

     total cpu time spent up to now is       17.2 secs

     total energy              =      80.29069480 Ry
     Harris-Foulkes estimate   =    -831.67419967 Ry
     estimated scf accuracy    <      33.95872088 Ry

     iteration #100     ecut=    30.00 Ry     beta=0.70
     Davidson diagonalization with overlap
     ethr =  1.00E-02,  avg # of iterations =  8.0

     negative rho (up, down):  3.990E-01 0.000E+00

     total cpu time spent up to now is       17.3 secs

     total energy              =     -53.80629134 Ry
     Harris-Foulkes estimate   =    -101.45401538 Ry
     estimated scf accuracy    <      23.25636434 Ry

     End of self-consistent calculation

     convergence NOT achieved after 100 iterations: stopping

     Writing output data file pwscf.save
 
     init_run     :      0.09s CPU      0.12s WALL (       1 calls)
     electrons    :     12.44s CPU     15.51s WALL (       7 calls)
     update_pot   :      0.73s CPU      1.04s WALL (       6 calls)
     forces       :      0.16s CPU      0.17s WALL (       6 calls)

     Called by init_run:
     wfcinit      :      0.01s CPU      0.03s WALL (       1 calls)
     potinit      :      0.02s CPU      0.03s WALL (       1 calls)

     Called by electrons:
     c_bands      :      5.98s CPU      6.29s WALL (     353 calls)
     sum_band     :      1.03s CPU      1.14s WALL (     353 calls)
     v_of_rho     :      2.61s CPU      2.80s WALL (     360 calls)
     mix_rho      :      2.47s CPU      4.32s WALL (     353 calls)

     Called by c_bands:
     init_us_2    :      0.03s CPU      0.04s WALL (     707 calls)
     cegterg      :      5.91s CPU      6.09s WALL (     354 calls)

     Called by sum_band:

     Called by *egterg:
     h_psi        :      4.95s CPU      5.09s WALL (    1661 calls)
     g_psi        :      0.05s CPU      0.05s WALL (    1306 calls)
     cdiaghg      :      0.33s CPU      0.34s WALL (    1653 calls)

     Called by h_psi:
     h_psi:pot    :      4.92s CPU      5.06s WALL (    1661 calls)
     h_psi:calbec :      0.23s CPU      0.24s WALL (    1661 calls)
     vloc_psi     :      4.67s CPU      4.80s WALL (    1661 calls)
     add_vuspsi   :      0.01s CPU      0.01s WALL (    1661 calls)

     General routines
     calbec       :      0.28s CPU      0.30s WALL (    1690 calls)
     fft          :      1.63s CPU      1.77s WALL (    3972 calls)
     fftw         :      4.86s CPU      5.07s WALL (   21802 calls)
     davcio       :      0.38s CPU      1.51s WALL (    6450 calls)
 
     Parallel routines
     fft_scatter  :      2.55s CPU      2.80s WALL (   25774 calls)
 
     PWSCF        :    13.67s CPU        17.38s WALL

 
   This run was terminated on:   2: 2:10  11Feb2018            

=------------------------------------------------------------------------------=
   JOB DONE.
=------------------------------------------------------------------------------=
