
     Program PWSCF v.6.0 (svn rev. 13079) starts on 11Feb2018 at  2: 4:17 

     This program is part of the open-source Quantum ESPRESSO suite
     for quantum simulation of materials; please cite
         "P. Giannozzi et al., J. Phys.:Condens. Matter 21 395502 (2009);
          URL http://www.quantum-espresso.org", 
     in publications or presentations arising from this work. More details at
     http://www.quantum-espresso.org/quote

     Parallel version (MPI), running on    28 processors
     R & G space division:  proc/nbgrp/npool/nimage =      28
     Reading input from inputs/water-1-md/440.in

     Current dimensions of program PWSCF are:
     Max number of different atomic species (ntypx) = 10
     Max number of k-points (npk) =  40000
     Max angular momentum in pseudopotentials (lmaxx) =  3

     Subspace diagonalization in iterative solution of the eigenvalue problem:
     a serial algorithm will be used

 
     Parallelization info
     --------------------
     sticks:   dense  smooth     PW     G-vecs:    dense   smooth      PW
     Min         136     136     33                 6338     6338     787
     Max         137     137     34                 6341     6341     792
     Sum        3809    3809    949               177509   177509   22119
 


     bravais-lattice index     =            1
     lattice parameter (alat)  =      20.0000  a.u.
     unit-cell volume          =    8000.0000 (a.u.)^3
     number of atoms/cell      =            3
     number of atomic types    =            2
     number of electrons       =         8.00
     number of Kohn-Sham states=            8
     kinetic-energy cutoff     =      30.0000  Ry
     charge density cutoff     =     120.0000  Ry
     convergence threshold     =      1.0E-08
     mixing beta               =       0.7000
     number of iterations used =            8  plain     mixing
     Exchange-correlation      = BLYP ( 1  3  1  3 0 0)
     nstep                     =         5000


     celldm(1)=  20.000000  celldm(2)=   0.000000  celldm(3)=   0.000000
     celldm(4)=   0.000000  celldm(5)=   0.000000  celldm(6)=   0.000000

     crystal axes: (cart. coord. in units of alat)
               a(1) = (   1.000000   0.000000   0.000000 )  
               a(2) = (   0.000000   1.000000   0.000000 )  
               a(3) = (   0.000000   0.000000   1.000000 )  

     reciprocal axes: (cart. coord. in units 2 pi/alat)
               b(1) = (  1.000000  0.000000  0.000000 )  
               b(2) = (  0.000000  1.000000  0.000000 )  
               b(3) = (  0.000000  0.000000  1.000000 )  


     PseudoPot. # 1 for  H read from file:
     ./H.blyp-hgh.UPF
     MD5 check sum: c576e69559cde411e611be972c763230
     Pseudo is Norm-conserving, Zval =  1.0
     Generated in analytical, separable form
     Using radial grid of  929 points,  0 beta functions with: 

     PseudoPot. # 2 for  O read from file:
     ./O.blyp-hgh.UPF
     MD5 check sum: d0b7156309aa9befef28faac7bc56342
     Pseudo is Norm-conserving, Zval =  6.0
     Generated in analytical, separable form
     Using radial grid of 1095 points,  1 beta functions with: 
                l(1) =   0

     atomic species   valence    mass     pseudopotential
        H              1.00     1.01000      H( 1.00)
        O              6.00    16.00000      O( 1.00)

     No symmetry found



   Cartesian axes

     site n.     atom                  positions (alat units)
         1           H   tau(   1) = (   0.7761476   0.9998919   0.5979870  )
         2           H   tau(   2) = (   0.2341429   0.9010896   0.6180344  )
         3           O   tau(   3) = (   0.4710629   0.0238261   0.1659058  )

     number of k points=     1  Marzari-Vanderbilt smearing, width (Ry)=  0.0250
                       cart. coord. in units 2pi/alat
        k(    1) = (   0.0000000   0.0000000   0.0000000), wk =   2.0000000

     Dense  grid:   177509 G-vectors     FFT dimensions: (  72,  72,  72)

     Estimated max dynamical RAM per process >       6.09Mb

     Estimated total allocated dynamical RAM >     170.64Mb

     Initial potential from superposition of free atoms
     Check: negative starting charge=   -0.348375

     starting charge    7.99998, renormalised to    8.00000

     negative rho (up, down):  3.484E-01 0.000E+00
     Starting wfc are    6 randomized atomic wfcs +    2 random wfc

     total cpu time spent up to now is        0.3 secs

     per-process dynamical memory:    18.8 Mb

     Self-consistent Calculation

     iteration #  1     ecut=    30.00 Ry     beta=0.70
     Davidson diagonalization with overlap
     ethr =  1.00E-02,  avg # of iterations =  7.0

     negative rho (up, down):  8.428E-02 0.000E+00

     total cpu time spent up to now is        0.3 secs

     total energy              =     -28.08170795 Ry
     Harris-Foulkes estimate   =     -32.07980697 Ry
     estimated scf accuracy    <       4.58779502 Ry

     iteration #  2     ecut=    30.00 Ry     beta=0.70
     Davidson diagonalization with overlap
     ethr =  1.00E-02,  avg # of iterations =  4.0

     negative rho (up, down):  6.173E-02 0.000E+00

     total cpu time spent up to now is        0.4 secs

     total energy              =     -32.65397592 Ry
     Harris-Foulkes estimate   =     -37.95042870 Ry
     estimated scf accuracy    <      12.90545997 Ry

     iteration #  3     ecut=    30.00 Ry     beta=0.70
     Davidson diagonalization with overlap
     ethr =  1.00E-02,  avg # of iterations =  2.0

     negative rho (up, down):  6.367E-02 0.000E+00

     total cpu time spent up to now is        0.4 secs

     total energy              =     -33.19719234 Ry
     Harris-Foulkes estimate   =     -32.99246586 Ry
     estimated scf accuracy    <       5.00134757 Ry

     iteration #  4     ecut=    30.00 Ry     beta=0.70
     Davidson diagonalization with overlap
     ethr =  1.00E-02,  avg # of iterations =  1.0

     negative rho (up, down):  2.524E-02 0.000E+00

     total cpu time spent up to now is        0.4 secs

     total energy              =     -30.19588207 Ry
     Harris-Foulkes estimate   =     -33.19773400 Ry
     estimated scf accuracy    <       5.30233163 Ry

     iteration #  5     ecut=    30.00 Ry     beta=0.70
     Davidson diagonalization with overlap
     ethr =  1.00E-02,  avg # of iterations =  5.0

     negative rho (up, down):  2.403E-02 0.000E+00

     total cpu time spent up to now is        0.5 secs

     total energy              =     -33.27081056 Ry
     Harris-Foulkes estimate   =     -33.29468306 Ry
     estimated scf accuracy    <      13.61122688 Ry

     iteration #  6     ecut=    30.00 Ry     beta=0.70
     Davidson diagonalization with overlap
     ethr =  1.00E-02,  avg # of iterations =  1.0

     negative rho (up, down):  3.582E-02 0.000E+00

     total cpu time spent up to now is        0.5 secs

     total energy              =     -33.23373507 Ry
     Harris-Foulkes estimate   =     -33.27747155 Ry
     estimated scf accuracy    <      13.54726583 Ry

     iteration #  7     ecut=    30.00 Ry     beta=0.70
     Davidson diagonalization with overlap
     ethr =  1.00E-02,  avg # of iterations =  1.0

     negative rho (up, down):  8.296E-02 0.000E+00

     total cpu time spent up to now is        0.5 secs

     total energy              =     -32.41774643 Ry
     Harris-Foulkes estimate   =     -33.23724674 Ry
     estimated scf accuracy    <      12.80229711 Ry

     iteration #  8     ecut=    30.00 Ry     beta=0.70
     Davidson diagonalization with overlap
     ethr =  1.00E-02,  avg # of iterations =  2.0

     negative rho (up, down):  1.428E-02 0.000E+00

     total cpu time spent up to now is        0.6 secs

     total energy              =     -32.41687234 Ry
     Harris-Foulkes estimate   =     -32.64941830 Ry
     estimated scf accuracy    <       5.49713705 Ry

     iteration #  9     ecut=    30.00 Ry     beta=0.70
     Davidson diagonalization with overlap
     ethr =  1.00E-02,  avg # of iterations =  1.0

     negative rho (up, down):  2.475E-02 0.000E+00

     total cpu time spent up to now is        0.6 secs

     total energy              =     -31.81099960 Ry
     Harris-Foulkes estimate   =     -32.41972216 Ry
     estimated scf accuracy    <       5.10720382 Ry

     iteration # 10     ecut=    30.00 Ry     beta=0.70
     Davidson diagonalization with overlap
     ethr =  1.00E-02,  avg # of iterations =  1.0

     negative rho (up, down):  4.717E-02 0.000E+00

     total cpu time spent up to now is        0.6 secs

     total energy              =     -31.56499843 Ry
     Harris-Foulkes estimate   =     -31.82187550 Ry
     estimated scf accuracy    <       4.12127671 Ry

     iteration # 11     ecut=    30.00 Ry     beta=0.70
     Davidson diagonalization with overlap
     ethr =  1.00E-02,  avg # of iterations =  1.0

     negative rho (up, down):  2.662E-02 0.000E+00

     total cpu time spent up to now is        0.7 secs

     total energy              =     -31.78386417 Ry
     Harris-Foulkes estimate   =     -31.56394740 Ry
     estimated scf accuracy    <       4.83804057 Ry

     iteration # 12     ecut=    30.00 Ry     beta=0.70
     Davidson diagonalization with overlap
     ethr =  1.00E-02,  avg # of iterations =  1.0

     negative rho (up, down):  2.166E-02 0.000E+00

     total cpu time spent up to now is        0.7 secs

     total energy              =     -32.60623114 Ry
     Harris-Foulkes estimate   =     -31.76276433 Ry
     estimated scf accuracy    <       4.00353950 Ry

     iteration # 13     ecut=    30.00 Ry     beta=0.70
     Davidson diagonalization with overlap
     ethr =  1.00E-02,  avg # of iterations =  1.0

     negative rho (up, down):  1.226E+00 0.000E+00

     total cpu time spent up to now is        0.7 secs

     total energy              =     -28.41926081 Ry
     Harris-Foulkes estimate   =     -32.62783233 Ry
     estimated scf accuracy    <       5.44423291 Ry

     iteration # 14     ecut=    30.00 Ry     beta=0.70
     Davidson diagonalization with overlap
     ethr =  1.00E-02,  avg # of iterations =  4.0

     negative rho (up, down):  6.125E-02 0.000E+00

     total cpu time spent up to now is        0.8 secs

     total energy              =     -30.03351498 Ry
     Harris-Foulkes estimate   =     -36.95569628 Ry
     estimated scf accuracy    <      10.61383135 Ry

     iteration # 15     ecut=    30.00 Ry     beta=0.70
     Davidson diagonalization with overlap
     ethr =  1.00E-02,  avg # of iterations =  6.0

     negative rho (up, down):  3.178E-02 0.000E+00

     total cpu time spent up to now is        0.8 secs

     total energy              =     -33.07169509 Ry
     Harris-Foulkes estimate   =     -32.83523303 Ry
     estimated scf accuracy    <       5.94737200 Ry

     iteration # 16     ecut=    30.00 Ry     beta=0.70
     Davidson diagonalization with overlap
     ethr =  1.00E-02,  avg # of iterations =  1.0

     negative rho (up, down):  2.847E-02 0.000E+00

     total cpu time spent up to now is        0.9 secs

     total energy              =     -32.54211364 Ry
     Harris-Foulkes estimate   =     -33.07564933 Ry
     estimated scf accuracy    <       6.46693592 Ry

     iteration # 17     ecut=    30.00 Ry     beta=0.70
     Davidson diagonalization with overlap
     ethr =  1.00E-02,  avg # of iterations =  1.0

     negative rho (up, down):  4.896E-02 0.000E+00

     total cpu time spent up to now is        0.9 secs

     total energy              =     -32.14069222 Ry
     Harris-Foulkes estimate   =     -32.55241442 Ry
     estimated scf accuracy    <       5.46266204 Ry

     iteration # 18     ecut=    30.00 Ry     beta=0.70
     Davidson diagonalization with overlap
     ethr =  1.00E-02,  avg # of iterations =  1.0

     negative rho (up, down):  1.042E-01 0.000E+00

     total cpu time spent up to now is        0.9 secs

     total energy              =     -30.71933192 Ry
     Harris-Foulkes estimate   =     -32.15042726 Ry
     estimated scf accuracy    <       4.69124260 Ry

     iteration # 19     ecut=    30.00 Ry     beta=0.70
     Davidson diagonalization with overlap
     ethr =  1.00E-02,  avg # of iterations =  2.0

     negative rho (up, down):  8.136E-02 0.000E+00

     total cpu time spent up to now is        1.0 secs

     total energy              =     -32.08101450 Ry
     Harris-Foulkes estimate   =     -32.15108284 Ry
     estimated scf accuracy    <       3.63688042 Ry

     iteration # 20     ecut=    30.00 Ry     beta=0.70
     Davidson diagonalization with overlap
     ethr =  1.00E-02,  avg # of iterations =  1.0

     negative rho (up, down):  3.532E-02 0.000E+00

     total cpu time spent up to now is        1.0 secs

     total energy              =     -31.81794041 Ry
     Harris-Foulkes estimate   =     -32.09398662 Ry
     estimated scf accuracy    <       3.58436416 Ry

     iteration # 21     ecut=    30.00 Ry     beta=0.70
     Davidson diagonalization with overlap
     ethr =  1.00E-02,  avg # of iterations =  1.0

     negative rho (up, down):  8.027E-03 0.000E+00

     total cpu time spent up to now is        1.0 secs

     total energy              =     -31.44509299 Ry
     Harris-Foulkes estimate   =     -31.80767115 Ry
     estimated scf accuracy    <       3.15515482 Ry

     iteration # 22     ecut=    30.00 Ry     beta=0.70
     Davidson diagonalization with overlap
     ethr =  1.00E-02,  avg # of iterations =  1.0

     negative rho (up, down):  4.168E-03 0.000E+00

     total cpu time spent up to now is        1.1 secs

     total energy              =     -31.56311260 Ry
     Harris-Foulkes estimate   =     -31.49166543 Ry
     estimated scf accuracy    <       0.10797043 Ry

     iteration # 23     ecut=    30.00 Ry     beta=0.70
     Davidson diagonalization with overlap
     ethr =  1.35E-03,  avg # of iterations =  1.0

     negative rho (up, down):  2.650E-03 0.000E+00

     total cpu time spent up to now is        1.1 secs

     total energy              =     -31.48156386 Ry
     Harris-Foulkes estimate   =     -31.85295721 Ry
     estimated scf accuracy    <       4.12467608 Ry

     iteration # 24     ecut=    30.00 Ry     beta=0.70
     Davidson diagonalization with overlap
     ethr =  1.35E-03,  avg # of iterations =  1.0

     negative rho (up, down):  2.614E-03 0.000E+00

     total cpu time spent up to now is        1.2 secs

     total energy              =     -31.51169483 Ry
     Harris-Foulkes estimate   =     -31.49346671 Ry
     estimated scf accuracy    <       0.34015631 Ry

     iteration # 25     ecut=    30.00 Ry     beta=0.70
     Davidson diagonalization with overlap
     ethr =  1.35E-03,  avg # of iterations =  1.0

     negative rho (up, down):  1.440E-03 0.000E+00

     total cpu time spent up to now is        1.2 secs

     total energy              =     -31.51537435 Ry
     Harris-Foulkes estimate   =     -31.53594823 Ry
     estimated scf accuracy    <       4.01193465 Ry

     iteration # 26     ecut=    30.00 Ry     beta=0.70
     Davidson diagonalization with overlap
     ethr =  1.35E-03,  avg # of iterations =  1.0

     negative rho (up, down):  1.756E-05 0.000E+00

     total cpu time spent up to now is        1.2 secs

     total energy              =     -31.36048665 Ry
     Harris-Foulkes estimate   =     -31.51714793 Ry
     estimated scf accuracy    <       2.67869790 Ry

     iteration # 27     ecut=    30.00 Ry     beta=0.70
     Davidson diagonalization with overlap
     ethr =  1.35E-03,  avg # of iterations =  1.0

     negative rho (up, down):  2.516E-05 0.000E+00

     total cpu time spent up to now is        1.3 secs

     total energy              =     -31.55530792 Ry
     Harris-Foulkes estimate   =     -31.56748952 Ry
     estimated scf accuracy    <       2.74630379 Ry

     iteration # 28     ecut=    30.00 Ry     beta=0.70
     Davidson diagonalization with overlap
     ethr =  1.35E-03,  avg # of iterations =  1.0

     negative rho (up, down):  8.182E-05 0.000E+00

     total cpu time spent up to now is        1.3 secs

     total energy              =     -31.53130121 Ry
     Harris-Foulkes estimate   =     -31.55538128 Ry
     estimated scf accuracy    <       2.68649853 Ry

     iteration # 29     ecut=    30.00 Ry     beta=0.70
     Davidson diagonalization with overlap
     ethr =  1.35E-03,  avg # of iterations =  1.0

     negative rho (up, down):  1.890E-04 0.000E+00

     total cpu time spent up to now is        1.3 secs

     total energy              =     -31.48177356 Ry
     Harris-Foulkes estimate   =     -31.53184058 Ry
     estimated scf accuracy    <       2.35421270 Ry

     iteration # 30     ecut=    30.00 Ry     beta=0.70
     Davidson diagonalization with overlap
     ethr =  1.35E-03,  avg # of iterations =  1.0

     negative rho (up, down):  5.756E-04 0.000E+00

     total cpu time spent up to now is        1.4 secs

     total energy              =     -31.42144039 Ry
     Harris-Foulkes estimate   =     -31.49399100 Ry
     estimated scf accuracy    <       0.33385335 Ry

     iteration # 31     ecut=    30.00 Ry     beta=0.70
     Davidson diagonalization with overlap
     ethr =  1.35E-03,  avg # of iterations =  1.0

     negative rho (up, down):  1.896E-04 0.000E+00

     total cpu time spent up to now is        1.4 secs

     total energy              =     -31.52530997 Ry
     Harris-Foulkes estimate   =     -31.70167092 Ry
     estimated scf accuracy    <       3.89671655 Ry

     iteration # 32     ecut=    30.00 Ry     beta=0.70
     Davidson diagonalization with overlap
     ethr =  1.35E-03,  avg # of iterations =  1.0

     negative rho (up, down):  2.197E-05 0.000E+00

     total cpu time spent up to now is        1.4 secs

     total energy              =     -31.45928366 Ry
     Harris-Foulkes estimate   =     -31.51871203 Ry
     estimated scf accuracy    <       2.82901768 Ry

     iteration # 33     ecut=    30.00 Ry     beta=0.70
     Davidson diagonalization with overlap
     ethr =  1.35E-03,  avg # of iterations =  1.0

     total cpu time spent up to now is        1.5 secs

     total energy              =     -31.49701662 Ry
     Harris-Foulkes estimate   =     -31.49098747 Ry
     estimated scf accuracy    <       0.03124740 Ry

     iteration # 34     ecut=    30.00 Ry     beta=0.70
     Davidson diagonalization with overlap
     ethr =  3.91E-04,  avg # of iterations =  1.0

     negative rho (up, down):  8.621E-08 0.000E+00

     total cpu time spent up to now is        1.5 secs

     total energy              =     -31.52681608 Ry
     Harris-Foulkes estimate   =     -31.51833244 Ry
     estimated scf accuracy    <       1.88979531 Ry

     iteration # 35     ecut=    30.00 Ry     beta=0.70
     Davidson diagonalization with overlap
     ethr =  3.91E-04,  avg # of iterations =  1.0

     negative rho (up, down):  1.408E-04 0.000E+00

     total cpu time spent up to now is        1.5 secs

     total energy              =     -31.57894052 Ry
     Harris-Foulkes estimate   =     -31.52717674 Ry
     estimated scf accuracy    <       2.21081513 Ry

     iteration # 36     ecut=    30.00 Ry     beta=0.70
     Davidson diagonalization with overlap
     ethr =  3.91E-04,  avg # of iterations =  1.0

     negative rho (up, down):  1.432E-04 0.000E+00

     total cpu time spent up to now is        1.6 secs

     total energy              =     -31.57364998 Ry
     Harris-Foulkes estimate   =     -31.58294321 Ry
     estimated scf accuracy    <       2.77649888 Ry

     iteration # 37     ecut=    30.00 Ry     beta=0.70
     Davidson diagonalization with overlap
     ethr =  3.91E-04,  avg # of iterations =  1.0

     negative rho (up, down):  3.781E-05 0.000E+00

     total cpu time spent up to now is        1.6 secs

     total energy              =     -31.55114431 Ry
     Harris-Foulkes estimate   =     -31.57366089 Ry
     estimated scf accuracy    <       2.75592914 Ry

     iteration # 38     ecut=    30.00 Ry     beta=0.70
     Davidson diagonalization with overlap
     ethr =  3.91E-04,  avg # of iterations =  1.0

     negative rho (up, down):  4.523E-05 0.000E+00

     total cpu time spent up to now is        1.6 secs

     total energy              =     -31.45935373 Ry
     Harris-Foulkes estimate   =     -31.55129672 Ry
     estimated scf accuracy    <       2.63290190 Ry

     iteration # 39     ecut=    30.00 Ry     beta=0.70
     Davidson diagonalization with overlap
     ethr =  3.91E-04,  avg # of iterations =  1.0

     negative rho (up, down):  9.125E-06 0.000E+00

     total cpu time spent up to now is        1.7 secs

     total energy              =     -31.50020516 Ry
     Harris-Foulkes estimate   =     -31.49070923 Ry
     estimated scf accuracy    <       0.00365398 Ry

     iteration # 40     ecut=    30.00 Ry     beta=0.70
     Davidson diagonalization with overlap
     ethr =  4.57E-05,  avg # of iterations =  4.0

     total cpu time spent up to now is        1.7 secs

     total energy              =     -31.53010667 Ry
     Harris-Foulkes estimate   =     -31.70669525 Ry
     estimated scf accuracy    <       3.90302733 Ry

     iteration # 41     ecut=    30.00 Ry     beta=0.70
     Davidson diagonalization with overlap
     ethr =  4.57E-05,  avg # of iterations =  3.0

     total cpu time spent up to now is        1.7 secs

     total energy              =     -31.51191722 Ry
     Harris-Foulkes estimate   =     -31.52326733 Ry
     estimated scf accuracy    <       3.15348486 Ry

     iteration # 42     ecut=    30.00 Ry     beta=0.70
     Davidson diagonalization with overlap
     ethr =  4.57E-05,  avg # of iterations =  1.0

     negative rho (up, down):  1.016E-08 0.000E+00

     total cpu time spent up to now is        1.8 secs

     total energy              =     -31.50451531 Ry
     Harris-Foulkes estimate   =     -31.51272722 Ry
     estimated scf accuracy    <       2.28308611 Ry

     iteration # 43     ecut=    30.00 Ry     beta=0.70
     Davidson diagonalization with overlap
     ethr =  4.57E-05,  avg # of iterations =  1.0

     negative rho (up, down):  5.316E-07 0.000E+00

     total cpu time spent up to now is        1.8 secs

     total energy              =     -31.50083029 Ry
     Harris-Foulkes estimate   =     -31.50520014 Ry
     estimated scf accuracy    <       1.56871751 Ry

     iteration # 44     ecut=    30.00 Ry     beta=0.70
     Davidson diagonalization with overlap
     ethr =  4.57E-05,  avg # of iterations =  1.0

     negative rho (up, down):  3.489E-06 0.000E+00

     total cpu time spent up to now is        1.8 secs

     total energy              =     -31.50277921 Ry
     Harris-Foulkes estimate   =     -31.50114927 Ry
     estimated scf accuracy    <       1.15035579 Ry

     iteration # 45     ecut=    30.00 Ry     beta=0.70
     Davidson diagonalization with overlap
     ethr =  4.57E-05,  avg # of iterations =  1.0

     negative rho (up, down):  2.076E-08 0.000E+00

     total cpu time spent up to now is        1.9 secs

     total energy              =     -31.50096715 Ry
     Harris-Foulkes estimate   =     -31.50284745 Ry
     estimated scf accuracy    <       1.31436906 Ry

     iteration # 46     ecut=    30.00 Ry     beta=0.70
     Davidson diagonalization with overlap
     ethr =  4.57E-05,  avg # of iterations =  1.0

     negative rho (up, down):  1.530E-06 0.000E+00

     total cpu time spent up to now is        1.9 secs

     total energy              =     -31.51517759 Ry
     Harris-Foulkes estimate   =     -31.50106308 Ry
     estimated scf accuracy    <       1.14941448 Ry

     iteration # 47     ecut=    30.00 Ry     beta=0.70
     Davidson diagonalization with overlap
     ethr =  4.57E-05,  avg # of iterations =  1.0

     negative rho (up, down):  4.081E-07 0.000E+00

     total cpu time spent up to now is        1.9 secs

     total energy              =     -31.51260766 Ry
     Harris-Foulkes estimate   =     -31.51959168 Ry
     estimated scf accuracy    <       2.90004674 Ry

     iteration # 48     ecut=    30.00 Ry     beta=0.70
     Davidson diagonalization with overlap
     ethr =  4.57E-05,  avg # of iterations =  1.0

     negative rho (up, down):  1.490E-08 0.000E+00

     total cpu time spent up to now is        2.0 secs

     total energy              =     -31.50416713 Ry
     Harris-Foulkes estimate   =     -31.51301661 Ry
     estimated scf accuracy    <       2.33722493 Ry

     iteration # 49     ecut=    30.00 Ry     beta=0.70
     Davidson diagonalization with overlap
     ethr =  4.57E-05,  avg # of iterations =  1.0

     negative rho (up, down):  9.750E-07 0.000E+00

     total cpu time spent up to now is        2.0 secs

     total energy              =     -31.47333477 Ry
     Harris-Foulkes estimate   =     -31.50496550 Ry
     estimated scf accuracy    <       1.56784771 Ry

     iteration # 50     ecut=    30.00 Ry     beta=0.70
     Davidson diagonalization with overlap
     ethr =  4.57E-05,  avg # of iterations =  1.0

     negative rho (up, down):  5.566E-07 0.000E+00

     total cpu time spent up to now is        2.0 secs

     total energy              =     -31.49051299 Ry
     Harris-Foulkes estimate   =     -31.49063593 Ry
     estimated scf accuracy    <       0.01941900 Ry

     iteration # 51     ecut=    30.00 Ry     beta=0.70
     Davidson diagonalization with overlap
     ethr =  4.57E-05,  avg # of iterations =  1.0

     negative rho (up, down):  4.422E-08 0.000E+00

     total cpu time spent up to now is        2.1 secs

     total energy              =     -31.49033587 Ry
     Harris-Foulkes estimate   =     -31.49053358 Ry
     estimated scf accuracy    <       0.01084277 Ry

     iteration # 52     ecut=    30.00 Ry     beta=0.70
     Davidson diagonalization with overlap
     ethr =  4.57E-05,  avg # of iterations =  1.0

     total cpu time spent up to now is        2.1 secs

     total energy              =     -31.49040559 Ry
     Harris-Foulkes estimate   =     -31.49042268 Ry
     estimated scf accuracy    <       0.00058101 Ry

     iteration # 53     ecut=    30.00 Ry     beta=0.70
     Davidson diagonalization with overlap
     ethr =  7.26E-06,  avg # of iterations =  1.0

     total cpu time spent up to now is        2.2 secs

     total energy              =     -31.49041356 Ry
     Harris-Foulkes estimate   =     -31.49041348 Ry
     estimated scf accuracy    <       0.00000774 Ry

     iteration # 54     ecut=    30.00 Ry     beta=0.70
     Davidson diagonalization with overlap
     ethr =  9.68E-08,  avg # of iterations = 17.0

     total cpu time spent up to now is        2.2 secs

     total energy              =     -31.49041369 Ry
     Harris-Foulkes estimate   =     -31.49041362 Ry
     estimated scf accuracy    <       0.00000776 Ry

     iteration # 55     ecut=    30.00 Ry     beta=0.70
     Davidson diagonalization with overlap
     ethr =  9.68E-08,  avg # of iterations =  1.0

     total cpu time spent up to now is        2.2 secs

     total energy              =     -31.49041371 Ry
     Harris-Foulkes estimate   =     -31.49041372 Ry
     estimated scf accuracy    <       0.00000238 Ry

     iteration # 56     ecut=    30.00 Ry     beta=0.70
     Davidson diagonalization with overlap
     ethr =  2.98E-08,  avg # of iterations =  1.0

     total cpu time spent up to now is        2.3 secs

     total energy              =     -31.49041356 Ry
     Harris-Foulkes estimate   =     -31.49041372 Ry
     estimated scf accuracy    <       0.00000193 Ry

     iteration # 57     ecut=    30.00 Ry     beta=0.70
     Davidson diagonalization with overlap
     ethr =  2.41E-08,  avg # of iterations =  1.0

     total cpu time spent up to now is        2.3 secs

     total energy              =     -31.49041356 Ry
     Harris-Foulkes estimate   =     -31.49041359 Ry
     estimated scf accuracy    <       0.00000001 Ry

     iteration # 58     ecut=    30.00 Ry     beta=0.70
     Davidson diagonalization with overlap
     ethr =  1.74E-10,  avg # of iterations =  2.0

     total cpu time spent up to now is        2.3 secs

     End of self-consistent calculation

          k = 0.0000 0.0000 0.0000 ( 22119 PWs)   bands (ev):

   -23.6301  -7.0410  -7.0399  -7.0395  -6.9589  -6.9091  -0.2282   0.4829

     the Fermi energy is    -6.9052 ev

!    total energy              =     -31.49041353 Ry
     Harris-Foulkes estimate   =     -31.49041356 Ry
     estimated scf accuracy    <          9.4E-10 Ry

     convergence has been achieved in  58 iterations

     Forces acting on atoms (Ry/au):

     atom    1 type  1   force =     0.00025527    0.00076456    0.00011870
     atom    2 type  1   force =     0.00027451    0.00084456    0.00014339
     atom    3 type  2   force =    -0.00052978   -0.00160912   -0.00026209

     Total force =     0.002100     Total SCF correction =     0.000053

     Molecular Dynamics Calculation

     Starting temperature  =  1000.00 K

     temperature is controlled by Andersen thermostat
     Collision frequency = 1.0000/timestep
     mass H                =     1.01
     mass O                =    16.00
     Time step             =   100.00 a.u.,  4.8378 femto-seconds

     Entering Dynamics:    iteration =     1
                           time      =   0.0048 pico-seconds


     Andersen thermostat:    3 collisions

ATOMIC_POSITIONS (bohr)
H       15.707775216  20.466117913  12.096672178
H        4.686326535  17.633436135  12.518730463
O        9.409372083   0.471476794   3.299495726


     kinetic energy (Ekin) =     0.02092923 Ry
     temperature           =  1101.48646819 K 
     Ekin + Etot (const)   =   -31.46948430 Ry

     Linear momentum :   -0.0000000000    0.0000000000    0.0000000000

     Writing output data file pwscf.save
     Check: negative starting charge=   -0.348375
     NEW-OLD atomic charge density approx. for the potential
     Check: negative starting charge=   -0.349124

     negative rho (up, down):  4.317E-02 0.000E+00

     total cpu time spent up to now is        2.6 secs

     per-process dynamical memory:    20.4 Mb

     Self-consistent Calculation

     iteration #  1     ecut=    30.00 Ry     beta=0.70
     Davidson diagonalization with overlap
     c_bands:  1 eigenvalues not converged
     ethr =  1.00E-06,  avg # of iterations = 20.0

     negative rho (up, down):  9.285E-03 0.000E+00

     total cpu time spent up to now is        2.7 secs

     total energy              =     -31.42592082 Ry
     Harris-Foulkes estimate   =     -31.44840503 Ry
     estimated scf accuracy    <       0.06849313 Ry

     iteration #  2     ecut=    30.00 Ry     beta=0.70
     Davidson diagonalization with overlap
     ethr =  8.56E-04,  avg # of iterations =  2.0

     negative rho (up, down):  8.350E-03 0.000E+00

     total cpu time spent up to now is        2.7 secs

     total energy              =     -31.50566250 Ry
     Harris-Foulkes estimate   =     -32.10314808 Ry
     estimated scf accuracy    <       4.59448808 Ry

     iteration #  3     ecut=    30.00 Ry     beta=0.70
     Davidson diagonalization with overlap
     ethr =  8.56E-04,  avg # of iterations =  2.0

     negative rho (up, down):  8.233E-03 0.000E+00

     total cpu time spent up to now is        2.8 secs

     total energy              =     -31.49066481 Ry
     Harris-Foulkes estimate   =     -31.51293295 Ry
     estimated scf accuracy    <       2.46320290 Ry

     iteration #  4     ecut=    30.00 Ry     beta=0.70
     Davidson diagonalization with overlap
     ethr =  8.56E-04,  avg # of iterations =  1.0

     negative rho (up, down):  7.149E-03 0.000E+00

     total cpu time spent up to now is        2.8 secs

     total energy              =     -31.43782831 Ry
     Harris-Foulkes estimate   =     -31.49477055 Ry
     estimated scf accuracy    <       1.35757607 Ry

     iteration #  5     ecut=    30.00 Ry     beta=0.70
     Davidson diagonalization with overlap
     ethr =  8.56E-04,  avg # of iterations =  1.0

     negative rho (up, down):  1.240E-03 0.000E+00

     total cpu time spent up to now is        2.8 secs

     total energy              =     -31.46785054 Ry
     Harris-Foulkes estimate   =     -31.50374419 Ry
     estimated scf accuracy    <       1.55915882 Ry

     iteration #  6     ecut=    30.00 Ry     beta=0.70
     Davidson diagonalization with overlap
     ethr =  8.56E-04,  avg # of iterations =  3.0

     negative rho (up, down):  9.108E-05 0.000E+00

     total cpu time spent up to now is        2.9 secs

     total energy              =     -31.48924812 Ry
     Harris-Foulkes estimate   =     -31.49059951 Ry
     estimated scf accuracy    <       0.06929375 Ry

     iteration #  7     ecut=    30.00 Ry     beta=0.70
     Davidson diagonalization with overlap
     ethr =  8.56E-04,  avg # of iterations =  1.0

     negative rho (up, down):  3.048E-05 0.000E+00

     total cpu time spent up to now is        2.9 secs

     total energy              =     -31.49067286 Ry
     Harris-Foulkes estimate   =     -31.49047996 Ry
     estimated scf accuracy    <       0.01005463 Ry

     iteration #  8     ecut=    30.00 Ry     beta=0.70
     Davidson diagonalization with overlap
     ethr =  1.26E-04,  avg # of iterations =  4.0

     total cpu time spent up to now is        2.9 secs

     total energy              =     -31.49070093 Ry
     Harris-Foulkes estimate   =     -31.49076561 Ry
     estimated scf accuracy    <       0.03925715 Ry

     iteration #  9     ecut=    30.00 Ry     beta=0.70
     Davidson diagonalization with overlap
     ethr =  1.26E-04,  avg # of iterations =  1.0

     total cpu time spent up to now is        3.0 secs

     total energy              =     -31.49002475 Ry
     Harris-Foulkes estimate   =     -31.49070694 Ry
     estimated scf accuracy    <       0.03191718 Ry

     iteration # 10     ecut=    30.00 Ry     beta=0.70
     Davidson diagonalization with overlap
     ethr =  1.26E-04,  avg # of iterations =  1.0

     total cpu time spent up to now is        3.0 secs

     total energy              =     -31.49042195 Ry
     Harris-Foulkes estimate   =     -31.49041198 Ry
     estimated scf accuracy    <       0.00069811 Ry

     iteration # 11     ecut=    30.00 Ry     beta=0.70
     Davidson diagonalization with overlap
     ethr =  8.73E-06,  avg # of iterations =  8.0

     total cpu time spent up to now is        3.0 secs

     total energy              =     -31.49038805 Ry
     Harris-Foulkes estimate   =     -31.49042673 Ry
     estimated scf accuracy    <       0.00236698 Ry

     iteration # 12     ecut=    30.00 Ry     beta=0.70
     Davidson diagonalization with overlap
     ethr =  8.73E-06,  avg # of iterations =  1.0

     total cpu time spent up to now is        3.1 secs

     total energy              =     -31.49040451 Ry
     Harris-Foulkes estimate   =     -31.49040514 Ry
     estimated scf accuracy    <       0.00003010 Ry

     iteration # 13     ecut=    30.00 Ry     beta=0.70
     Davidson diagonalization with overlap
     ethr =  3.76E-07,  avg # of iterations =  1.0

     total cpu time spent up to now is        3.1 secs

     End of self-consistent calculation

          k = 0.0000 0.0000 0.0000 ( 22119 PWs)   bands (ev):

   -23.6284  -7.0391  -7.0383  -7.0377  -6.9554  -6.9097  -0.2311   0.5026

     the Fermi energy is    -6.9035 ev

!    total energy              =     -31.49040473 Ry
     Harris-Foulkes estimate   =     -31.49040480 Ry
     estimated scf accuracy    <          8.1E-09 Ry

     convergence has been achieved in  13 iterations

     Forces acting on atoms (Ry/au):

     atom    1 type  1   force =     0.00036612    0.00063544    0.00035382
     atom    2 type  1   force =     0.00039800    0.00070983    0.00037170
     atom    3 type  2   force =    -0.00076412   -0.00134527   -0.00072552

     Total force =     0.002094     Total SCF correction =     0.000232
     SCF correction compared to forces is large: reduce conv_thr to get better values

     Entering Dynamics:    iteration =     2
                           time      =   0.0097 pico-seconds


     Andersen thermostat:    3 collisions

ATOMIC_POSITIONS (bohr)
H       15.995556386  20.308930380  12.067515577
H        4.890253687  17.731073490  12.730663533
O        9.378332995   0.475235899   3.287957961


     kinetic energy (Ekin) =     0.01486088 Ry
     temperature           =   782.11464836 K 
     Ekin + Etot (const)   =   -31.47554385 Ry
     Message from routine dynamics:
     Total linear momentum <> 0

     Linear momentum :   -0.0340015260    0.2452520522    0.5745218896

     Writing output data file pwscf.save

     first order wave-functions extrapolation
     Check: negative starting charge=   -0.349124
     first order charge density extrapolation
     Check: negative starting charge=   -0.349649

     negative rho (up, down):  5.973E-02 0.000E+00

     total cpu time spent up to now is        3.5 secs

     per-process dynamical memory:    20.4 Mb

     Self-consistent Calculation

     iteration #  1     ecut=    30.00 Ry     beta=0.70
     Davidson diagonalization with overlap
     c_bands:  1 eigenvalues not converged
     ethr =  1.00E-06,  avg # of iterations = 20.0

     negative rho (up, down):  1.320E-02 0.000E+00

     total cpu time spent up to now is        3.6 secs

     total energy              =     -31.45971027 Ry
     Harris-Foulkes estimate   =     -31.43551337 Ry
     estimated scf accuracy    <       0.02257415 Ry

     iteration #  2     ecut=    30.00 Ry     beta=0.70
     Davidson diagonalization with overlap
     ethr =  2.82E-04,  avg # of iterations =  2.0

     negative rho (up, down):  1.254E-02 0.000E+00

     total cpu time spent up to now is        3.7 secs

     total energy              =     -31.44395565 Ry
     Harris-Foulkes estimate   =     -31.71765935 Ry
     estimated scf accuracy    <       4.09692692 Ry

     iteration #  3     ecut=    30.00 Ry     beta=0.70
     Davidson diagonalization with overlap
     ethr =  2.82E-04,  avg # of iterations =  2.0

     negative rho (up, down):  1.187E-02 0.000E+00

     total cpu time spent up to now is        3.7 secs

     total energy              =     -31.46624469 Ry
     Harris-Foulkes estimate   =     -31.55845677 Ry
     estimated scf accuracy    <       1.22170911 Ry

     iteration #  4     ecut=    30.00 Ry     beta=0.70
     Davidson diagonalization with overlap
     ethr =  2.82E-04,  avg # of iterations =  1.0

     negative rho (up, down):  2.222E-03 0.000E+00

     total cpu time spent up to now is        3.8 secs

     total energy              =     -31.47356390 Ry
     Harris-Foulkes estimate   =     -31.48010061 Ry
     estimated scf accuracy    <       0.13996134 Ry

     iteration #  5     ecut=    30.00 Ry     beta=0.70
     Davidson diagonalization with overlap
     ethr =  2.82E-04,  avg # of iterations =  4.0

     negative rho (up, down):  7.246E-04 0.000E+00

     total cpu time spent up to now is        3.8 secs

     total energy              =     -31.49278279 Ry
     Harris-Foulkes estimate   =     -31.50827317 Ry
     estimated scf accuracy    <       0.57865628 Ry

     iteration #  6     ecut=    30.00 Ry     beta=0.70
     Davidson diagonalization with overlap
     ethr =  2.82E-04,  avg # of iterations =  3.0

     negative rho (up, down):  3.538E-04 0.000E+00

     total cpu time spent up to now is        3.9 secs

     total energy              =     -31.48272797 Ry
     Harris-Foulkes estimate   =     -31.49597591 Ry
     estimated scf accuracy    <       0.31356091 Ry

     iteration #  7     ecut=    30.00 Ry     beta=0.70
     Davidson diagonalization with overlap
     ethr =  2.82E-04,  avg # of iterations =  1.0

     negative rho (up, down):  4.624E-05 0.000E+00

     total cpu time spent up to now is        3.9 secs

     total energy              =     -31.49023074 Ry
     Harris-Foulkes estimate   =     -31.49131296 Ry
     estimated scf accuracy    <       0.08972951 Ry

     iteration #  8     ecut=    30.00 Ry     beta=0.70
     Davidson diagonalization with overlap
     ethr =  2.82E-04,  avg # of iterations =  1.0

     total cpu time spent up to now is        4.0 secs

     total energy              =     -31.49009657 Ry
     Harris-Foulkes estimate   =     -31.49056852 Ry
     estimated scf accuracy    <       0.01241012 Ry

     iteration #  9     ecut=    30.00 Ry     beta=0.70
     Davidson diagonalization with overlap
     ethr =  1.55E-04,  avg # of iterations =  1.0

     total cpu time spent up to now is        4.0 secs

     total energy              =     -31.49047320 Ry
     Harris-Foulkes estimate   =     -31.49057384 Ry
     estimated scf accuracy    <       0.01312136 Ry

     iteration # 10     ecut=    30.00 Ry     beta=0.70
     Davidson diagonalization with overlap
     ethr =  1.55E-04,  avg # of iterations =  1.0

     total cpu time spent up to now is        4.1 secs

     total energy              =     -31.49041093 Ry
     Harris-Foulkes estimate   =     -31.49053617 Ry
     estimated scf accuracy    <       0.00651515 Ry

     iteration # 11     ecut=    30.00 Ry     beta=0.70
     Davidson diagonalization with overlap
     ethr =  8.14E-05,  avg # of iterations =  1.0

     total cpu time spent up to now is        4.1 secs

     total energy              =     -31.49045217 Ry
     Harris-Foulkes estimate   =     -31.49045619 Ry
     estimated scf accuracy    <       0.00055189 Ry

     iteration # 12     ecut=    30.00 Ry     beta=0.70
     Davidson diagonalization with overlap
     ethr =  6.90E-06,  avg # of iterations = 10.0

     total cpu time spent up to now is        4.1 secs

     total energy              =     -31.49045195 Ry
     Harris-Foulkes estimate   =     -31.49045282 Ry
     estimated scf accuracy    <       0.00026955 Ry

     iteration # 13     ecut=    30.00 Ry     beta=0.70
     Davidson diagonalization with overlap
     ethr =  3.37E-06,  avg # of iterations =  1.0

     total cpu time spent up to now is        4.2 secs

     total energy              =     -31.49044786 Ry
     Harris-Foulkes estimate   =     -31.49045219 Ry
     estimated scf accuracy    <       0.00020150 Ry

     iteration # 14     ecut=    30.00 Ry     beta=0.70
     Davidson diagonalization with overlap
     ethr =  2.52E-06,  avg # of iterations =  1.0

     total cpu time spent up to now is        4.2 secs

     total energy              =     -31.49044927 Ry
     Harris-Foulkes estimate   =     -31.49044944 Ry
     estimated scf accuracy    <       0.00001032 Ry

     iteration # 15     ecut=    30.00 Ry     beta=0.70
     Davidson diagonalization with overlap
     ethr =  1.29E-07,  avg # of iterations =  1.0

     total cpu time spent up to now is        4.2 secs

     total energy              =     -31.49044939 Ry
     Harris-Foulkes estimate   =     -31.49044933 Ry
     estimated scf accuracy    <       0.00000159 Ry

     iteration # 16     ecut=    30.00 Ry     beta=0.70
     Davidson diagonalization with overlap
     ethr =  1.99E-08,  avg # of iterations =  1.0

     total cpu time spent up to now is        4.3 secs

     End of self-consistent calculation

          k = 0.0000 0.0000 0.0000 ( 22119 PWs)   bands (ev):

   -23.6299  -7.0408  -7.0399  -7.0392  -6.9589  -6.9096  -0.2311   0.5030

     the Fermi energy is    -6.9052 ev

!    total energy              =     -31.49044951 Ry
     Harris-Foulkes estimate   =     -31.49044942 Ry
     estimated scf accuracy    <          8.9E-10 Ry

     convergence has been achieved in  16 iterations

     Forces acting on atoms (Ry/au):

     atom    1 type  1   force =     0.00050708    0.00042435    0.00029986
     atom    2 type  1   force =     0.00044692    0.00052656    0.00030012
     atom    3 type  2   force =    -0.00095399   -0.00095091   -0.00059998

     Total force =     0.001808     Total SCF correction =     0.000145

     Entering Dynamics:    iteration =     3
                           time      =   0.0145 pico-seconds


     Andersen thermostat:    3 collisions

ATOMIC_POSITIONS (bohr)
H       15.975346502  20.096880152  12.273475029
H        4.907377406  17.891782727  12.628268004
O        9.378527810   0.478476799   3.281420489


     kinetic energy (Ekin) =     0.00606136 Ry
     temperature           =   319.00400998 K 
     Ekin + Etot (const)   =   -31.48438815 Ry
     Message from routine dynamics:
     Total linear momentum <> 0

     Linear momentum :   -0.0518524890   -0.1492093663    0.0158224244

     Writing output data file pwscf.save

     second order wave-functions extrapolation
     Check: negative starting charge=   -0.349649
     second order charge density extrapolation
     Check: negative starting charge=   -0.349671

     negative rho (up, down):  2.258E-02 0.000E+00

     total cpu time spent up to now is        4.6 secs

     per-process dynamical memory:    20.4 Mb

     Self-consistent Calculation

     iteration #  1     ecut=    30.00 Ry     beta=0.70
     Davidson diagonalization with overlap
     c_bands:  1 eigenvalues not converged
     ethr =  1.00E-06,  avg # of iterations = 20.0

     negative rho (up, down):  4.785E-03 0.000E+00

     total cpu time spent up to now is        4.7 secs

     total energy              =     -31.47188660 Ry
     Harris-Foulkes estimate   =     -31.46742905 Ry
     estimated scf accuracy    <       0.01759741 Ry

     iteration #  2     ecut=    30.00 Ry     beta=0.70
     Davidson diagonalization with overlap
     ethr =  2.20E-04,  avg # of iterations =  3.0

     negative rho (up, down):  4.515E-03 0.000E+00

     total cpu time spent up to now is        4.8 secs

     total energy              =     -31.47304105 Ry
     Harris-Foulkes estimate   =     -31.77234506 Ry
     estimated scf accuracy    <       4.04049604 Ry

     iteration #  3     ecut=    30.00 Ry     beta=0.70
     Davidson diagonalization with overlap
     ethr =  2.20E-04,  avg # of iterations =  2.0

     negative rho (up, down):  4.402E-03 0.000E+00

     total cpu time spent up to now is        4.8 secs

     total energy              =     -31.47888649 Ry
     Harris-Foulkes estimate   =     -31.50148758 Ry
     estimated scf accuracy    <       0.77708596 Ry

     iteration #  4     ecut=    30.00 Ry     beta=0.70
     Davidson diagonalization with overlap
     ethr =  2.20E-04,  avg # of iterations =  1.0

     negative rho (up, down):  1.445E-03 0.000E+00

     total cpu time spent up to now is        4.8 secs

     total energy              =     -31.47833881 Ry
     Harris-Foulkes estimate   =     -31.48820977 Ry
     estimated scf accuracy    <       0.17217147 Ry

     iteration #  5     ecut=    30.00 Ry     beta=0.70
     Davidson diagonalization with overlap
     ethr =  2.20E-04,  avg # of iterations =  3.0

     negative rho (up, down):  2.039E-04 0.000E+00

     total cpu time spent up to now is        4.9 secs

     total energy              =     -31.48006050 Ry
     Harris-Foulkes estimate   =     -31.50416142 Ry
     estimated scf accuracy    <       1.15386706 Ry

     iteration #  6     ecut=    30.00 Ry     beta=0.70
     Davidson diagonalization with overlap
     ethr =  2.20E-04,  avg # of iterations =  1.0

     negative rho (up, down):  9.064E-06 0.000E+00

     total cpu time spent up to now is        4.9 secs

     total energy              =     -31.49046869 Ry
     Harris-Foulkes estimate   =     -31.49052582 Ry
     estimated scf accuracy    <       0.00538503 Ry

     iteration #  7     ecut=    30.00 Ry     beta=0.70
     Davidson diagonalization with overlap
     ethr =  6.73E-05,  avg # of iterations =  9.0

     negative rho (up, down):  2.525E-07 0.000E+00

     total cpu time spent up to now is        4.9 secs

     total energy              =     -31.49044326 Ry
     Harris-Foulkes estimate   =     -31.49048374 Ry
     estimated scf accuracy    <       0.00248408 Ry

     iteration #  8     ecut=    30.00 Ry     beta=0.70
     Davidson diagonalization with overlap
     ethr =  3.11E-05,  avg # of iterations =  4.0

     total cpu time spent up to now is        5.0 secs

     total energy              =     -31.49047199 Ry
     Harris-Foulkes estimate   =     -31.49046290 Ry
     estimated scf accuracy    <       0.00003412 Ry

     iteration #  9     ecut=    30.00 Ry     beta=0.70
     Davidson diagonalization with overlap
     ethr =  4.26E-07,  avg # of iterations =  9.0

     total cpu time spent up to now is        5.0 secs

     total energy              =     -31.49043098 Ry
     Harris-Foulkes estimate   =     -31.49050545 Ry
     estimated scf accuracy    <       0.00419638 Ry

     iteration # 10     ecut=    30.00 Ry     beta=0.70
     Davidson diagonalization with overlap
     ethr =  4.26E-07,  avg # of iterations =  1.0

     total cpu time spent up to now is        5.0 secs

     total energy              =     -31.49046487 Ry
     Harris-Foulkes estimate   =     -31.49046542 Ry
     estimated scf accuracy    <       0.00003098 Ry

     iteration # 11     ecut=    30.00 Ry     beta=0.70
     Davidson diagonalization with overlap
     ethr =  3.87E-07,  avg # of iterations =  1.0

     total cpu time spent up to now is        5.1 secs

     total energy              =     -31.49046523 Ry
     Harris-Foulkes estimate   =     -31.49046524 Ry
     estimated scf accuracy    <       0.00000170 Ry

     iteration # 12     ecut=    30.00 Ry     beta=0.70
     Davidson diagonalization with overlap
     ethr =  2.12E-08,  avg # of iterations =  1.0

     total cpu time spent up to now is        5.1 secs

     total energy              =     -31.49046497 Ry
     Harris-Foulkes estimate   =     -31.49046526 Ry
     estimated scf accuracy    <       0.00000575 Ry

     iteration # 13     ecut=    30.00 Ry     beta=0.70
     Davidson diagonalization with overlap
     ethr =  2.12E-08,  avg # of iterations =  1.0

     total cpu time spent up to now is        5.1 secs

     total energy              =     -31.49046508 Ry
     Harris-Foulkes estimate   =     -31.49046521 Ry
     estimated scf accuracy    <       0.00000582 Ry

     iteration # 14     ecut=    30.00 Ry     beta=0.70
     Davidson diagonalization with overlap
     ethr =  2.12E-08,  avg # of iterations =  1.0

     total cpu time spent up to now is        5.2 secs

     End of self-consistent calculation

          k = 0.0000 0.0000 0.0000 ( 22119 PWs)   bands (ev):

   -23.6318  -7.0429  -7.0417  -7.0410  -6.9623  -6.9098  -0.2308   0.4947

     the Fermi energy is    -6.9071 ev

!    total energy              =     -31.49046509 Ry
     Harris-Foulkes estimate   =     -31.49046513 Ry
     estimated scf accuracy    <          8.6E-09 Ry

     convergence has been achieved in  14 iterations

     Forces acting on atoms (Ry/au):

     atom    1 type  1   force =     0.00048043    0.00042569    0.00034630
     atom    2 type  1   force =     0.00037638    0.00056336    0.00036899
     atom    3 type  2   force =    -0.00085681   -0.00098904   -0.00071529

     Total force =     0.001831     Total SCF correction =     0.000057

     Entering Dynamics:    iteration =     4
                           time      =   0.0194 pico-seconds


     Andersen thermostat:    3 collisions

ATOMIC_POSITIONS (bohr)
H       16.123142957  19.995297072  12.163576833
H        4.471868700  17.925204304  12.671536434
O        9.396689645   0.482779494   3.285626493


     kinetic energy (Ekin) =     0.01417146 Ry
     temperature           =   745.83112480 K 
     Ekin + Etot (const)   =   -31.47629363 Ry
     Message from routine dynamics:
     Total linear momentum <> 0

     Linear momentum :    0.2719470072   -0.3875370745    0.1243894856

     Writing output data file pwscf.save

     second order wave-functions extrapolation
     Check: negative starting charge=   -0.349671
     second order charge density extrapolation
     Check: negative starting charge=   -0.349908

     negative rho (up, down):  3.335E-02 0.000E+00

     total cpu time spent up to now is        5.5 secs

     per-process dynamical memory:    20.4 Mb

     Self-consistent Calculation

     iteration #  1     ecut=    30.00 Ry     beta=0.70
     Davidson diagonalization with overlap
     ethr =  1.00E-06,  avg # of iterations = 14.0

     negative rho (up, down):  7.173E-03 0.000E+00

     total cpu time spent up to now is        5.6 secs

     total energy              =     -31.46524410 Ry
     Harris-Foulkes estimate   =     -31.45757670 Ry
     estimated scf accuracy    <       0.02331849 Ry

     iteration #  2     ecut=    30.00 Ry     beta=0.70
     Davidson diagonalization with overlap
     ethr =  2.91E-04,  avg # of iterations =  2.0

     negative rho (up, down):  6.744E-03 0.000E+00

     total cpu time spent up to now is        5.6 secs

     total energy              =     -31.46774111 Ry
     Harris-Foulkes estimate   =     -31.79555797 Ry
     estimated scf accuracy    <       4.09628580 Ry

     iteration #  3     ecut=    30.00 Ry     beta=0.70
     Davidson diagonalization with overlap
     ethr =  2.91E-04,  avg # of iterations =  2.0

     negative rho (up, down):  6.509E-03 0.000E+00

     total cpu time spent up to now is        5.7 secs

     total energy              =     -31.46920642 Ry
     Harris-Foulkes estimate   =     -31.52540694 Ry
     estimated scf accuracy    <       1.19078461 Ry

     iteration #  4     ecut=    30.00 Ry     beta=0.70
     Davidson diagonalization with overlap
     ethr =  2.91E-04,  avg # of iterations =  1.0

     negative rho (up, down):  2.233E-03 0.000E+00

     total cpu time spent up to now is        5.7 secs

     total energy              =     -31.47190967 Ry
     Harris-Foulkes estimate   =     -31.48654071 Ry
     estimated scf accuracy    <       0.21590349 Ry

     iteration #  5     ecut=    30.00 Ry     beta=0.70
     Davidson diagonalization with overlap
     ethr =  2.91E-04,  avg # of iterations =  4.0

     negative rho (up, down):  6.788E-04 0.000E+00

     total cpu time spent up to now is        5.7 secs

     total energy              =     -31.47576988 Ry
     Harris-Foulkes estimate   =     -31.51159953 Ry
     estimated scf accuracy    <       1.43927607 Ry

     iteration #  6     ecut=    30.00 Ry     beta=0.70
     Davidson diagonalization with overlap
     ethr =  2.91E-04,  avg # of iterations =  3.0

     negative rho (up, down):  1.185E-04 0.000E+00

     total cpu time spent up to now is        5.8 secs

     total energy              =     -31.49049352 Ry
     Harris-Foulkes estimate   =     -31.49065455 Ry
     estimated scf accuracy    <       0.00959111 Ry

     iteration #  7     ecut=    30.00 Ry     beta=0.70
     Davidson diagonalization with overlap
     ethr =  1.20E-04,  avg # of iterations =  1.0

     negative rho (up, down):  7.346E-06 0.000E+00

     total cpu time spent up to now is        5.8 secs

     total energy              =     -31.49037494 Ry
     Harris-Foulkes estimate   =     -31.49075290 Ry
     estimated scf accuracy    <       0.02348814 Ry

     iteration #  8     ecut=    30.00 Ry     beta=0.70
     Davidson diagonalization with overlap
     ethr =  1.20E-04,  avg # of iterations =  1.0

     negative rho (up, down):  1.409E-06 0.000E+00

     total cpu time spent up to now is        5.8 secs

     total energy              =     -31.49045948 Ry
     Harris-Foulkes estimate   =     -31.49055541 Ry
     estimated scf accuracy    <       0.00158667 Ry

     iteration #  9     ecut=    30.00 Ry     beta=0.70
     Davidson diagonalization with overlap
     ethr =  1.98E-05,  avg # of iterations =  5.0

     total cpu time spent up to now is        5.9 secs

     total energy              =     -31.49046642 Ry
     Harris-Foulkes estimate   =     -31.49060227 Ry
     estimated scf accuracy    <       0.00590298 Ry

     iteration # 10     ecut=    30.00 Ry     beta=0.70
     Davidson diagonalization with overlap
     ethr =  1.98E-05,  avg # of iterations =  1.0

     total cpu time spent up to now is        5.9 secs

     total energy              =     -31.49055454 Ry
     Harris-Foulkes estimate   =     -31.49055408 Ry
     estimated scf accuracy    <       0.00077259 Ry

     iteration # 11     ecut=    30.00 Ry     beta=0.70
     Davidson diagonalization with overlap
     ethr =  9.66E-06,  avg # of iterations =  1.0

     total cpu time spent up to now is        5.9 secs

     total energy              =     -31.49053033 Ry
     Harris-Foulkes estimate   =     -31.49055728 Ry
     estimated scf accuracy    <       0.00127843 Ry

     iteration # 12     ecut=    30.00 Ry     beta=0.70
     Davidson diagonalization with overlap
     ethr =  9.66E-06,  avg # of iterations =  1.0

     total cpu time spent up to now is        6.0 secs

     total energy              =     -31.49054513 Ry
     Harris-Foulkes estimate   =     -31.49054534 Ry
     estimated scf accuracy    <       0.00001934 Ry

     iteration # 13     ecut=    30.00 Ry     beta=0.70
     Davidson diagonalization with overlap
     ethr =  2.42E-07,  avg # of iterations =  8.0

     total cpu time spent up to now is        6.0 secs

     total energy              =     -31.49054502 Ry
     Harris-Foulkes estimate   =     -31.49054517 Ry
     estimated scf accuracy    <       0.00000704 Ry

     iteration # 14     ecut=    30.00 Ry     beta=0.70
     Davidson diagonalization with overlap
     ethr =  8.79E-08,  avg # of iterations =  1.0

     total cpu time spent up to now is        6.1 secs

     total energy              =     -31.49054507 Ry
     Harris-Foulkes estimate   =     -31.49054508 Ry
     estimated scf accuracy    <       0.00000026 Ry

     iteration # 15     ecut=    30.00 Ry     beta=0.70
     Davidson diagonalization with overlap
     ethr =  3.29E-09,  avg # of iterations =  1.0

     total cpu time spent up to now is        6.1 secs

     End of self-consistent calculation

          k = 0.0000 0.0000 0.0000 ( 22119 PWs)   bands (ev):

   -23.6408  -7.0508  -7.0495  -7.0489  -6.9816  -6.9053  -0.2327   0.5166

     the Fermi energy is    -6.9150 ev

!    total energy              =     -31.49054507 Ry
     Harris-Foulkes estimate   =     -31.49054507 Ry
     estimated scf accuracy    <          3.5E-10 Ry

     convergence has been achieved in  15 iterations

     Forces acting on atoms (Ry/au):

     atom    1 type  1   force =     0.00080410    0.00049141    0.00043969
     atom    2 type  1   force =     0.00016436    0.00073327    0.00041650
     atom    3 type  2   force =    -0.00096847   -0.00122468   -0.00085619

     Total force =     0.002234     Total SCF correction =     0.000165

     Entering Dynamics:    iteration =     5
                           time      =   0.0242 pico-seconds


     Andersen thermostat:    3 collisions

ATOMIC_POSITIONS (bohr)
H       16.316298647  19.697325288  12.127793783
H        4.387069048  18.013269954  12.413344123
O        9.389849670   0.496029819   3.304183687


     kinetic energy (Ekin) =     0.01063508 Ry
     temperature           =   559.71488947 K 
     Ekin + Etot (const)   =   -31.47990999 Ry
     Message from routine dynamics:
     Total linear momentum <> 0

     Linear momentum :   -0.0059949398   -0.1661434874   -0.1340149270

     Writing output data file pwscf.save

     second order wave-functions extrapolation
     Check: negative starting charge=   -0.349908
     second order charge density extrapolation
     Check: negative starting charge=   -0.350093

     negative rho (up, down):  5.892E-02 0.000E+00

     total cpu time spent up to now is        6.4 secs

     per-process dynamical memory:    20.4 Mb

     Self-consistent Calculation

     iteration #  1     ecut=    30.00 Ry     beta=0.70
     Davidson diagonalization with overlap
     c_bands:  1 eigenvalues not converged
     ethr =  1.00E-06,  avg # of iterations = 20.0

     negative rho (up, down):  1.310E-02 0.000E+00

     total cpu time spent up to now is        6.5 secs

     total energy              =     -31.44950292 Ry
     Harris-Foulkes estimate   =     -31.43550275 Ry
     estimated scf accuracy    <       0.03437294 Ry

     iteration #  2     ecut=    30.00 Ry     beta=0.70
     Davidson diagonalization with overlap
     ethr =  4.30E-04,  avg # of iterations =  2.0

     negative rho (up, down):  1.215E-02 0.000E+00

     total cpu time spent up to now is        6.5 secs

     total energy              =     -31.48025293 Ry
     Harris-Foulkes estimate   =     -31.90220294 Ry
     estimated scf accuracy    <       4.29362314 Ry

     iteration #  3     ecut=    30.00 Ry     beta=0.70
     Davidson diagonalization with overlap
     ethr =  4.30E-04,  avg # of iterations =  2.0

     negative rho (up, down):  1.193E-02 0.000E+00

     total cpu time spent up to now is        6.6 secs

     total energy              =     -31.48053982 Ry
     Harris-Foulkes estimate   =     -31.49165997 Ry
     estimated scf accuracy    <       1.05906517 Ry

     iteration #  4     ecut=    30.00 Ry     beta=0.70
     Davidson diagonalization with overlap
     ethr =  4.30E-04,  avg # of iterations =  1.0

     negative rho (up, down):  6.467E-03 0.000E+00

     total cpu time spent up to now is        6.6 secs

     total energy              =     -31.43448323 Ry
     Harris-Foulkes estimate   =     -31.48455559 Ry
     estimated scf accuracy    <       0.64246339 Ry

     iteration #  5     ecut=    30.00 Ry     beta=0.70
     Davidson diagonalization with overlap
     ethr =  4.30E-04,  avg # of iterations =  1.0

     negative rho (up, down):  2.446E-03 0.000E+00

     total cpu time spent up to now is        6.6 secs

     total energy              =     -31.47052632 Ry
     Harris-Foulkes estimate   =     -31.54656133 Ry
     estimated scf accuracy    <       2.71907292 Ry

     iteration #  6     ecut=    30.00 Ry     beta=0.70
     Davidson diagonalization with overlap
     ethr =  4.30E-04,  avg # of iterations =  3.0

     negative rho (up, down):  5.369E-04 0.000E+00

     total cpu time spent up to now is        6.7 secs

     total energy              =     -31.49093238 Ry
     Harris-Foulkes estimate   =     -31.49066800 Ry
     estimated scf accuracy    <       0.16775350 Ry

     iteration #  7     ecut=    30.00 Ry     beta=0.70
     Davidson diagonalization with overlap
     ethr =  4.30E-04,  avg # of iterations =  3.0

     negative rho (up, down):  2.341E-04 0.000E+00

     total cpu time spent up to now is        6.7 secs

     total energy              =     -31.49045352 Ry
     Harris-Foulkes estimate   =     -31.49123373 Ry
     estimated scf accuracy    <       0.05995211 Ry

     iteration #  8     ecut=    30.00 Ry     beta=0.70
     Davidson diagonalization with overlap
     ethr =  4.30E-04,  avg # of iterations =  1.0

     negative rho (up, down):  3.373E-07 0.000E+00

     total cpu time spent up to now is        6.7 secs

     total energy              =     -31.49059582 Ry
     Harris-Foulkes estimate   =     -31.49072698 Ry
     estimated scf accuracy    <       0.00574883 Ry

     iteration #  9     ecut=    30.00 Ry     beta=0.70
     Davidson diagonalization with overlap
     ethr =  7.19E-05,  avg # of iterations =  6.0

     total cpu time spent up to now is        6.8 secs

     total energy              =     -31.49070022 Ry
     Harris-Foulkes estimate   =     -31.49069638 Ry
     estimated scf accuracy    <       0.00076552 Ry

     iteration # 10     ecut=    30.00 Ry     beta=0.70
     Davidson diagonalization with overlap
     ethr =  9.57E-06,  avg # of iterations = 10.0

     total cpu time spent up to now is        6.8 secs

     total energy              =     -31.49065170 Ry
     Harris-Foulkes estimate   =     -31.49070080 Ry
     estimated scf accuracy    <       0.00106884 Ry

     iteration # 11     ecut=    30.00 Ry     beta=0.70
     Davidson diagonalization with overlap
     ethr =  9.57E-06,  avg # of iterations =  1.0

     total cpu time spent up to now is        6.9 secs

     total energy              =     -31.49067433 Ry
     Harris-Foulkes estimate   =     -31.49071371 Ry
     estimated scf accuracy    <       0.00241388 Ry

     iteration # 12     ecut=    30.00 Ry     beta=0.70
     Davidson diagonalization with overlap
     ethr =  9.57E-06,  avg # of iterations =  1.0

     total cpu time spent up to now is        6.9 secs

     total energy              =     -31.49069001 Ry
     Harris-Foulkes estimate   =     -31.49069135 Ry
     estimated scf accuracy    <       0.00003972 Ry

     iteration # 13     ecut=    30.00 Ry     beta=0.70
     Davidson diagonalization with overlap
     ethr =  4.96E-07,  avg # of iterations =  1.0

     total cpu time spent up to now is        6.9 secs

     total energy              =     -31.49069109 Ry
     Harris-Foulkes estimate   =     -31.49069110 Ry
     estimated scf accuracy    <       0.00002027 Ry

     iteration # 14     ecut=    30.00 Ry     beta=0.70
     Davidson diagonalization with overlap
     ethr =  2.53E-07,  avg # of iterations =  1.0

     total cpu time spent up to now is        7.0 secs

     total energy              =     -31.49069049 Ry
     Harris-Foulkes estimate   =     -31.49069110 Ry
     estimated scf accuracy    <       0.00003255 Ry

     iteration # 15     ecut=    30.00 Ry     beta=0.70
     Davidson diagonalization with overlap
     ethr =  2.53E-07,  avg # of iterations =  1.0

     total cpu time spent up to now is        7.0 secs

     End of self-consistent calculation

          k = 0.0000 0.0000 0.0000 ( 22119 PWs)   bands (ev):

   -23.6488  -7.0577  -7.0569  -7.0560  -6.9988  -6.9014  -0.2330   0.5270

     the Fermi energy is    -6.9222 ev

!    total energy              =     -31.49069080 Ry
     Harris-Foulkes estimate   =     -31.49069080 Ry
     estimated scf accuracy    <          6.7E-10 Ry

     convergence has been achieved in  15 iterations

     Forces acting on atoms (Ry/au):

     atom    1 type  1   force =     0.00118341    0.00048175    0.00036629
     atom    2 type  1   force =    -0.00007855    0.00082821    0.00027973
     atom    3 type  2   force =    -0.00110486   -0.00130996   -0.00064601

     Total force =     0.002427     Total SCF correction =     0.000130

     Entering Dynamics:    iteration =     6
                           time      =   0.0290 pico-seconds


     Andersen thermostat:    3 collisions

ATOMIC_POSITIONS (bohr)
H       16.255774894  19.715174910  12.311723132
H        4.569503915  18.076267429  12.404856300
O        9.382154031   0.490926346   3.293108941


     kinetic energy (Ekin) =     0.00514382 Ry
     temperature           =   270.71449742 K 
     Ekin + Etot (const)   =   -31.48554698 Ry
     Message from routine dynamics:
     Total linear momentum <> 0

     Linear momentum :    0.1856909766   -0.1654337698   -0.2576090032

     Writing output data file pwscf.save

     second order wave-functions extrapolation
     Check: negative starting charge=   -0.350093
     second order charge density extrapolation
     Check: negative starting charge=   -0.349986

     negative rho (up, down):  2.506E-02 0.000E+00

     total cpu time spent up to now is        7.3 secs

     per-process dynamical memory:    20.4 Mb

     Self-consistent Calculation

     iteration #  1     ecut=    30.00 Ry     beta=0.70
     Davidson diagonalization with overlap
     ethr =  1.00E-06,  avg # of iterations = 19.0

     negative rho (up, down):  5.217E-03 0.000E+00

     total cpu time spent up to now is        7.4 secs

     total energy              =     -31.47519721 Ry
     Harris-Foulkes estimate   =     -31.46555423 Ry
     estimated scf accuracy    <       0.01291120 Ry

     iteration #  2     ecut=    30.00 Ry     beta=0.70
     Davidson diagonalization with overlap
     ethr =  1.61E-04,  avg # of iterations =  3.0

     negative rho (up, down):  4.956E-03 0.000E+00

     total cpu time spent up to now is        7.4 secs

     total energy              =     -31.47001748 Ry
     Harris-Foulkes estimate   =     -31.73289826 Ry
     estimated scf accuracy    <       3.99634934 Ry

     iteration #  3     ecut=    30.00 Ry     beta=0.70
     Davidson diagonalization with overlap
     ethr =  1.61E-04,  avg # of iterations =  2.0

     negative rho (up, down):  4.803E-03 0.000E+00

     total cpu time spent up to now is        7.5 secs

     total energy              =     -31.48665320 Ry
     Harris-Foulkes estimate   =     -31.48744202 Ry
     estimated scf accuracy    <       0.13634273 Ry

     iteration #  4     ecut=    30.00 Ry     beta=0.70
     Davidson diagonalization with overlap
     ethr =  1.61E-04,  avg # of iterations =  1.0

     negative rho (up, down):  1.319E-03 0.000E+00

     total cpu time spent up to now is        7.5 secs

     total energy              =     -31.48465440 Ry
     Harris-Foulkes estimate   =     -31.48707256 Ry
     estimated scf accuracy    <       0.08938669 Ry

     iteration #  5     ecut=    30.00 Ry     beta=0.70
     Davidson diagonalization with overlap
     ethr =  1.61E-04,  avg # of iterations =  4.0

     negative rho (up, down):  5.146E-04 0.000E+00

     total cpu time spent up to now is        7.5 secs

     total energy              =     -31.48365039 Ry
     Harris-Foulkes estimate   =     -31.49654153 Ry
     estimated scf accuracy    <       0.60468598 Ry

     iteration #  6     ecut=    30.00 Ry     beta=0.70
     Davidson diagonalization with overlap
     ethr =  1.61E-04,  avg # of iterations =  1.0

     negative rho (up, down):  1.102E-04 0.000E+00

     total cpu time spent up to now is        7.6 secs

     total energy              =     -31.49045233 Ry
     Harris-Foulkes estimate   =     -31.49063265 Ry
     estimated scf accuracy    <       0.00548975 Ry

     iteration #  7     ecut=    30.00 Ry     beta=0.70
     Davidson diagonalization with overlap
     ethr =  6.86E-05,  avg # of iterations =  4.0

     negative rho (up, down):  4.482E-06 0.000E+00

     total cpu time spent up to now is        7.6 secs

     total energy              =     -31.49052572 Ry
     Harris-Foulkes estimate   =     -31.49064415 Ry
     estimated scf accuracy    <       0.00471566 Ry

     iteration #  8     ecut=    30.00 Ry     beta=0.70
     Davidson diagonalization with overlap
     ethr =  5.89E-05,  avg # of iterations =  1.0

     total cpu time spent up to now is        7.6 secs

     total energy              =     -31.49059459 Ry
     Harris-Foulkes estimate   =     -31.49060787 Ry
     estimated scf accuracy    <       0.00064864 Ry

     iteration #  9     ecut=    30.00 Ry     beta=0.70
     Davidson diagonalization with overlap
     ethr =  8.11E-06,  avg # of iterations = 10.0

     total cpu time spent up to now is        7.7 secs

     total energy              =     -31.49060516 Ry
     Harris-Foulkes estimate   =     -31.49060439 Ry
     estimated scf accuracy    <       0.00004834 Ry

     iteration # 10     ecut=    30.00 Ry     beta=0.70
     Davidson diagonalization with overlap
     ethr =  6.04E-07,  avg # of iterations =  1.0

     total cpu time spent up to now is        7.7 secs

     total energy              =     -31.49060372 Ry
     Harris-Foulkes estimate   =     -31.49060543 Ry
     estimated scf accuracy    <       0.00014967 Ry

     iteration # 11     ecut=    30.00 Ry     beta=0.70
     Davidson diagonalization with overlap
     ethr =  6.04E-07,  avg # of iterations =  1.0

     total cpu time spent up to now is        7.7 secs

     total energy              =     -31.49060370 Ry
     Harris-Foulkes estimate   =     -31.49060420 Ry
     estimated scf accuracy    <       0.00002519 Ry

     iteration # 12     ecut=    30.00 Ry     beta=0.70
     Davidson diagonalization with overlap
     ethr =  3.15E-07,  avg # of iterations =  1.0

     total cpu time spent up to now is        7.8 secs

     total energy              =     -31.49060385 Ry
     Harris-Foulkes estimate   =     -31.49060395 Ry
     estimated scf accuracy    <       0.00000002 Ry

     iteration # 13     ecut=    30.00 Ry     beta=0.70
     Davidson diagonalization with overlap
     ethr =  1.99E-10,  avg # of iterations =  1.0

     total cpu time spent up to now is        7.8 secs

     End of self-consistent calculation

          k = 0.0000 0.0000 0.0000 ( 22119 PWs)   bands (ev):

   -23.6440  -7.0537  -7.0527  -7.0518  -6.9884  -6.9042  -0.2320   0.5136

     the Fermi energy is    -6.9180 ev

!    total energy              =     -31.49060385 Ry
     Harris-Foulkes estimate   =     -31.49060386 Ry
     estimated scf accuracy    <          8.4E-10 Ry

     convergence has been achieved in  13 iterations

     Forces acting on atoms (Ry/au):

     atom    1 type  1   force =     0.00096401    0.00045661    0.00032476
     atom    2 type  1   force =     0.00010426    0.00066554    0.00031534
     atom    3 type  2   force =    -0.00106826   -0.00112215   -0.00064011

     Total force =     0.002146     Total SCF correction =     0.000035

     Entering Dynamics:    iteration =     7
                           time      =   0.0339 pico-seconds


     Andersen thermostat:    3 collisions

ATOMIC_POSITIONS (bohr)
H       16.622387874  19.452401033  12.517468632
H        4.220325857  18.083547319  12.367562510
O        9.381053452   0.507054404   3.282475427


     kinetic energy (Ekin) =     0.02255902 Ry
     temperature           =  1187.26134176 K 
     Ekin + Etot (const)   =   -31.46804483 Ry
     Message from routine dynamics:
     Total linear momentum <> 0

     Linear momentum :   -0.5972715755   -0.1699602882    0.2430843535

     Writing output data file pwscf.save

     second order wave-functions extrapolation
     Check: negative starting charge=   -0.349986
     second order charge density extrapolation
     Check: negative starting charge=   -0.351209

     negative rho (up, down):  5.887E-02 0.000E+00

     total cpu time spent up to now is        8.1 secs

     per-process dynamical memory:    20.4 Mb

     Self-consistent Calculation

     iteration #  1     ecut=    30.00 Ry     beta=0.70
     Davidson diagonalization with overlap
     c_bands:  1 eigenvalues not converged
     ethr =  1.00E-06,  avg # of iterations = 20.0

     negative rho (up, down):  1.276E-02 0.000E+00

     total cpu time spent up to now is        8.3 secs

     total energy              =     -31.47356047 Ry
     Harris-Foulkes estimate   =     -31.44081350 Ry
     estimated scf accuracy    <       0.00706366 Ry

     iteration #  2     ecut=    30.00 Ry     beta=0.70
     Davidson diagonalization with overlap
     ethr =  8.83E-05,  avg # of iterations =  3.0

     negative rho (up, down):  1.234E-02 0.000E+00

     total cpu time spent up to now is        8.3 secs

     total energy              =     -31.45447301 Ry
     Harris-Foulkes estimate   =     -31.56182032 Ry
     estimated scf accuracy    <       2.40859737 Ry

     iteration #  3     ecut=    30.00 Ry     beta=0.70
     Davidson diagonalization with overlap
     ethr =  8.83E-05,  avg # of iterations =  2.0

     negative rho (up, down):  1.181E-02 0.000E+00

     total cpu time spent up to now is        8.3 secs

     total energy              =     -31.46673195 Ry
     Harris-Foulkes estimate   =     -31.50872887 Ry
     estimated scf accuracy    <       0.73123387 Ry

     iteration #  4     ecut=    30.00 Ry     beta=0.70
     Davidson diagonalization with overlap
     ethr =  8.83E-05,  avg # of iterations =  1.0

     negative rho (up, down):  2.387E-03 0.000E+00

     total cpu time spent up to now is        8.4 secs

     total energy              =     -31.48895325 Ry
     Harris-Foulkes estimate   =     -31.47959877 Ry
     estimated scf accuracy    <       0.01155674 Ry

     iteration #  5     ecut=    30.00 Ry     beta=0.70
     Davidson diagonalization with overlap
     ethr =  8.83E-05,  avg # of iterations =  7.0

     negative rho (up, down):  1.019E-03 0.000E+00

     total cpu time spent up to now is        8.4 secs

     total energy              =     -31.49102319 Ry
     Harris-Foulkes estimate   =     -31.48992805 Ry
     estimated scf accuracy    <       0.01906062 Ry

     iteration #  6     ecut=    30.00 Ry     beta=0.70
     Davidson diagonalization with overlap
     ethr =  8.83E-05,  avg # of iterations =  3.0

     negative rho (up, down):  2.736E-05 0.000E+00

     total cpu time spent up to now is        8.5 secs

     total energy              =     -31.49105622 Ry
     Harris-Foulkes estimate   =     -31.49115835 Ry
     estimated scf accuracy    <       0.00557005 Ry

     iteration #  7     ecut=    30.00 Ry     beta=0.70
     Davidson diagonalization with overlap
     ethr =  6.96E-05,  avg # of iterations =  1.0

     negative rho (up, down):  6.145E-06 0.000E+00

     total cpu time spent up to now is        8.5 secs

     total energy              =     -31.49126761 Ry
     Harris-Foulkes estimate   =     -31.49140028 Ry
     estimated scf accuracy    <       0.00616906 Ry

     iteration #  8     ecut=    30.00 Ry     beta=0.70
     Davidson diagonalization with overlap
     ethr =  6.96E-05,  avg # of iterations =  1.0

     negative rho (up, down):  6.262E-08 0.000E+00

     total cpu time spent up to now is        8.6 secs

     total energy              =     -31.49128069 Ry
     Harris-Foulkes estimate   =     -31.49133777 Ry
     estimated scf accuracy    <       0.00112929 Ry

     iteration #  9     ecut=    30.00 Ry     beta=0.70
     Davidson diagonalization with overlap
     ethr =  1.41E-05,  avg # of iterations = 12.0

     total cpu time spent up to now is        8.7 secs

     total energy              =     -31.49130013 Ry
     Harris-Foulkes estimate   =     -31.49133630 Ry
     estimated scf accuracy    <       0.00130433 Ry

     iteration # 10     ecut=    30.00 Ry     beta=0.70
     Davidson diagonalization with overlap
     ethr =  1.41E-05,  avg # of iterations =  1.0

     total cpu time spent up to now is        8.7 secs

     total energy              =     -31.49132158 Ry
     Harris-Foulkes estimate   =     -31.49132294 Ry
     estimated scf accuracy    <       0.00011111 Ry

     iteration # 11     ecut=    30.00 Ry     beta=0.70
     Davidson diagonalization with overlap
     ethr =  1.39E-06,  avg # of iterations =  3.0

     total cpu time spent up to now is        8.8 secs

     total energy              =     -31.49132073 Ry
     Harris-Foulkes estimate   =     -31.49132182 Ry
     estimated scf accuracy    <       0.00004798 Ry

     iteration # 12     ecut=    30.00 Ry     beta=0.70
     Davidson diagonalization with overlap
     ethr =  6.00E-07,  avg # of iterations =  1.0

     total cpu time spent up to now is        8.8 secs

     total energy              =     -31.49132115 Ry
     Harris-Foulkes estimate   =     -31.49132122 Ry
     estimated scf accuracy    <       0.00000052 Ry

     iteration # 13     ecut=    30.00 Ry     beta=0.70
     Davidson diagonalization with overlap
     ethr =  6.53E-09,  avg # of iterations =  1.0

     total cpu time spent up to now is        8.8 secs

     End of self-consistent calculation

          k = 0.0000 0.0000 0.0000 ( 22119 PWs)   bands (ev):

   -23.6645  -7.0720  -7.0714  -7.0702  -7.0344  -6.8917  -0.2366   0.5549

     the Fermi energy is    -6.9368 ev

!    total energy              =     -31.49132112 Ry
     Harris-Foulkes estimate   =     -31.49132116 Ry
     estimated scf accuracy    <          2.1E-09 Ry

     convergence has been achieved in  13 iterations

     Forces acting on atoms (Ry/au):

     atom    1 type  1   force =     0.00237365    0.00010717    0.00045779
     atom    2 type  1   force =    -0.00126246    0.00085080    0.00055417
     atom    3 type  2   force =    -0.00111119   -0.00095796   -0.00101196

     Total force =     0.003414     Total SCF correction =     0.000174

[...]
     Harris-Foulkes estimate   =    -305.44149584 Ry
     estimated scf accuracy    <      14.15743708 Ry

     iteration # 59     ecut=    30.00 Ry     beta=0.70
     Davidson diagonalization with overlap
     ethr =  1.00E-02,  avg # of iterations = 16.0

     negative rho (up, down):  3.063E-01 0.000E+00

     total cpu time spent up to now is       81.4 secs

     total energy              =     117.65225409 Ry
     Harris-Foulkes estimate   =    -970.28403451 Ry
     estimated scf accuracy    <      35.52549305 Ry

     iteration # 60     ecut=    30.00 Ry     beta=0.70
     Davidson diagonalization with overlap
     ethr =  1.00E-02,  avg # of iterations = 11.0

     negative rho (up, down):  2.690E-01 0.000E+00

     total cpu time spent up to now is       81.4 secs

     total energy              =   -1320.73554046 Ry
     Harris-Foulkes estimate   =    -475.44771608 Ry
     estimated scf accuracy    <      26.26806266 Ry

     iteration # 61     ecut=    30.00 Ry     beta=0.70
     Davidson diagonalization with overlap
     ethr =  1.00E-02,  avg # of iterations =  8.0

     negative rho (up, down):  2.614E-01 0.000E+00

     total cpu time spent up to now is       81.5 secs

     total energy              =      46.94513704 Ry
     Harris-Foulkes estimate   =   -4633.83906415 Ry
     estimated scf accuracy    <      38.57244299 Ry

     iteration # 62     ecut=    30.00 Ry     beta=0.70
     Davidson diagonalization with overlap
     ethr =  1.00E-02,  avg # of iterations =  8.0

     negative rho (up, down):  3.740E-01 0.000E+00

     total cpu time spent up to now is       81.5 secs

     total energy              =     344.50948926 Ry
     Harris-Foulkes estimate   =    -907.13255106 Ry
     estimated scf accuracy    <      33.64272384 Ry

     iteration # 63     ecut=    30.00 Ry     beta=0.70
     Davidson diagonalization with overlap
     ethr =  1.00E-02,  avg # of iterations = 11.0

     negative rho (up, down):  5.091E-01 0.000E+00

     total cpu time spent up to now is       81.6 secs

     total energy              =  -12070.70506695 Ry
     Harris-Foulkes estimate   =   -3407.31398701 Ry
     estimated scf accuracy    <      28.85708334 Ry

     iteration # 64     ecut=    30.00 Ry     beta=0.70
     Davidson diagonalization with overlap
     ethr =  1.00E-02,  avg # of iterations =  6.0

     negative rho (up, down):  3.807E-01 0.000E+00

     total cpu time spent up to now is       81.6 secs

     total energy              =   -1645.94346941 Ry
     Harris-Foulkes estimate   =  -20059.40187660 Ry
     estimated scf accuracy    <      31.75063016 Ry

     iteration # 65     ecut=    30.00 Ry     beta=0.70
     Davidson diagonalization with overlap
     ethr =  1.00E-02,  avg # of iterations =  6.0

     negative rho (up, down):  3.796E-01 0.000E+00

     total cpu time spent up to now is       81.7 secs

     total energy              =     -86.36877902 Ry
     Harris-Foulkes estimate   =  -24305.28154156 Ry
     estimated scf accuracy    <      22.73586013 Ry

     iteration # 66     ecut=    30.00 Ry     beta=0.70
     Davidson diagonalization with overlap
     ethr =  1.00E-02,  avg # of iterations = 12.0

     negative rho (up, down):  3.192E-01 0.000E+00

     total cpu time spent up to now is       81.8 secs

     total energy              =    -258.48586459 Ry
     Harris-Foulkes estimate   =   -1395.17564283 Ry
     estimated scf accuracy    <      28.15336240 Ry

     iteration # 67     ecut=    30.00 Ry     beta=0.70
     Davidson diagonalization with overlap
     ethr =  1.00E-02,  avg # of iterations =  5.0

     negative rho (up, down):  1.599E-01 0.000E+00

     total cpu time spent up to now is       81.8 secs

     total energy              =    2039.70986809 Ry
     Harris-Foulkes estimate   =   -1919.71059551 Ry
     estimated scf accuracy    <      30.41342745 Ry

     iteration # 68     ecut=    30.00 Ry     beta=0.70
     Davidson diagonalization with overlap
     ethr =  1.00E-02,  avg # of iterations =  4.0

     negative rho (up, down):  1.288E-01 0.000E+00

     total cpu time spent up to now is       81.8 secs

     total energy              =       3.31940155 Ry
     Harris-Foulkes estimate   =    -591.23336272 Ry
     estimated scf accuracy    <      19.10999544 Ry

     iteration # 69     ecut=    30.00 Ry     beta=0.70
     Davidson diagonalization with overlap
     ethr =  1.00E-02,  avg # of iterations =  7.0

     negative rho (up, down):  1.655E-01 0.000E+00

     total cpu time spent up to now is       81.9 secs

     total energy              =     -63.12315829 Ry
     Harris-Foulkes estimate   =   -1264.97936512 Ry
     estimated scf accuracy    <      16.84936527 Ry

     iteration # 70     ecut=    30.00 Ry     beta=0.70
     Davidson diagonalization with overlap
     ethr =  1.00E-02,  avg # of iterations =  5.0

     negative rho (up, down):  1.380E-04 0.000E+00

     total cpu time spent up to now is       81.9 secs

     total energy              =      82.71523468 Ry
     Harris-Foulkes estimate   =    -534.51531667 Ry
     estimated scf accuracy    <      15.73021866 Ry

     iteration # 71     ecut=    30.00 Ry     beta=0.70
     Davidson diagonalization with overlap
     ethr =  1.00E-02,  avg # of iterations =  4.0

     negative rho (up, down):  3.480E-06 0.000E+00

     total cpu time spent up to now is       82.0 secs

     total energy              =     -63.03667507 Ry
     Harris-Foulkes estimate   =     -71.05904192 Ry
     estimated scf accuracy    <      52.74089684 Ry

     iteration # 72     ecut=    30.00 Ry     beta=0.70
     Davidson diagonalization with overlap
     ethr =  1.00E-02,  avg # of iterations =  1.0

     negative rho (up, down):  5.145E-01 0.000E+00

     total cpu time spent up to now is       82.0 secs

     total energy              =     -42.26726035 Ry
     Harris-Foulkes estimate   =     -63.07087927 Ry
     estimated scf accuracy    <      42.86191030 Ry

     iteration # 73     ecut=    30.00 Ry     beta=0.70
     Davidson diagonalization with overlap
     ethr =  1.00E-02,  avg # of iterations =  8.0

     negative rho (up, down):  2.986E-01 0.000E+00

     total cpu time spent up to now is       82.1 secs

     total energy              =      48.57311271 Ry
     Harris-Foulkes estimate   =    -831.31238423 Ry
     estimated scf accuracy    <      42.43585345 Ry

     iteration # 74     ecut=    30.00 Ry     beta=0.70
     Davidson diagonalization with overlap
     ethr =  1.00E-02,  avg # of iterations =  4.0

     negative rho (up, down):  5.126E-01 0.000E+00

     total cpu time spent up to now is       82.1 secs

     total energy              =      -5.84793059 Ry
     Harris-Foulkes estimate   =    -140.91440195 Ry
     estimated scf accuracy    <       8.95139996 Ry

     iteration # 75     ecut=    30.00 Ry     beta=0.70
     Davidson diagonalization with overlap
     ethr =  1.00E-02,  avg # of iterations =  8.0

     negative rho (up, down):  4.066E-01 0.000E+00

     total cpu time spent up to now is       82.2 secs

     total energy              =     101.90057031 Ry
     Harris-Foulkes estimate   =   -1607.28987350 Ry
     estimated scf accuracy    <      45.61770149 Ry

     iteration # 76     ecut=    30.00 Ry     beta=0.70
     Davidson diagonalization with overlap
     ethr =  1.00E-02,  avg # of iterations =  7.0

     negative rho (up, down):  7.102E-02 0.000E+00

     total cpu time spent up to now is       82.3 secs

     total energy              =      97.00444737 Ry
     Harris-Foulkes estimate   =   -3011.64935094 Ry
     estimated scf accuracy    <      44.88714104 Ry

     iteration # 77     ecut=    30.00 Ry     beta=0.70
     Davidson diagonalization with overlap
     ethr =  1.00E-02,  avg # of iterations = 11.0

     negative rho (up, down):  7.351E-02 0.000E+00

     total cpu time spent up to now is       82.3 secs

     total energy              =      18.82173602 Ry
     Harris-Foulkes estimate   =    -106.15550497 Ry
     estimated scf accuracy    <      13.17240812 Ry

     iteration # 78     ecut=    30.00 Ry     beta=0.70
     Davidson diagonalization with overlap
     ethr =  1.00E-02,  avg # of iterations =  7.0

     negative rho (up, down):  2.327E-02 0.000E+00

     total cpu time spent up to now is       82.4 secs

     total energy              =     -51.15553696 Ry
     Harris-Foulkes estimate   =     -57.10907726 Ry
     estimated scf accuracy    <      35.35993749 Ry

     iteration # 79     ecut=    30.00 Ry     beta=0.70
     Davidson diagonalization with overlap
     ethr =  1.00E-02,  avg # of iterations =  1.0

     negative rho (up, down):  3.036E-02 0.000E+00

     total cpu time spent up to now is       82.4 secs

     total energy              =     -42.31923161 Ry
     Harris-Foulkes estimate   =     -51.18370498 Ry
     estimated scf accuracy    <      28.29106612 Ry

     iteration # 80     ecut=    30.00 Ry     beta=0.70
     Davidson diagonalization with overlap
     ethr =  1.00E-02,  avg # of iterations =  2.0

     negative rho (up, down):  1.590E-02 0.000E+00

     total cpu time spent up to now is       82.5 secs

     total energy              =     -35.98930124 Ry
     Harris-Foulkes estimate   =     -42.46240766 Ry
     estimated scf accuracy    <      16.98550451 Ry

     iteration # 81     ecut=    30.00 Ry     beta=0.70
     Davidson diagonalization with overlap
     ethr =  1.00E-02,  avg # of iterations =  4.0

     negative rho (up, down):  8.599E-02 0.000E+00

     total cpu time spent up to now is       82.5 secs

     total energy              =     -31.78428010 Ry
     Harris-Foulkes estimate   =     -36.09959361 Ry
     estimated scf accuracy    <       8.78339555 Ry

     iteration # 82     ecut=    30.00 Ry     beta=0.70
     Davidson diagonalization with overlap
     ethr =  1.00E-02,  avg # of iterations = 12.0

     negative rho (up, down):  1.144E-03 0.000E+00

     total cpu time spent up to now is       82.6 secs

     total energy              =      83.70651060 Ry
     Harris-Foulkes estimate   =    -142.61991471 Ry
     estimated scf accuracy    <      58.10767759 Ry

     iteration # 83     ecut=    30.00 Ry     beta=0.70
     Davidson diagonalization with overlap
     ethr =  1.00E-02,  avg # of iterations = 11.0

     negative rho (up, down):  5.388E-02 0.000E+00

     total cpu time spent up to now is       82.7 secs

     total energy              =     -31.33345793 Ry
     Harris-Foulkes estimate   =     -36.89392905 Ry
     estimated scf accuracy    <       9.90691848 Ry

     iteration # 84     ecut=    30.00 Ry     beta=0.70
     Davidson diagonalization with overlap
     ethr =  1.00E-02,  avg # of iterations =  6.0

     negative rho (up, down):  2.141E-02 0.000E+00

     total cpu time spent up to now is       82.7 secs

     total energy              =      74.00916149 Ry
     Harris-Foulkes estimate   =    -218.48477177 Ry
     estimated scf accuracy    <      61.39571068 Ry

     iteration # 85     ecut=    30.00 Ry     beta=0.70
     Davidson diagonalization with overlap
     ethr =  1.00E-02,  avg # of iterations =  7.0

     negative rho (up, down):  1.252E-02 0.000E+00

     total cpu time spent up to now is       82.8 secs

     total energy              =     -27.55345312 Ry
     Harris-Foulkes estimate   =     -33.21851658 Ry
     estimated scf accuracy    <      15.63966884 Ry

     iteration # 86     ecut=    30.00 Ry     beta=0.70
     Davidson diagonalization with overlap
     ethr =  1.00E-02,  avg # of iterations =  6.0

     negative rho (up, down):  1.271E-02 0.000E+00

     total cpu time spent up to now is       82.8 secs

     total energy              =     -21.97128542 Ry
     Harris-Foulkes estimate   =     -34.22780359 Ry
     estimated scf accuracy    <      16.98048532 Ry

     iteration # 87     ecut=    30.00 Ry     beta=0.70
     Davidson diagonalization with overlap
     ethr =  1.00E-02,  avg # of iterations =  5.0

     negative rho (up, down):  4.263E-05 0.000E+00

     total cpu time spent up to now is       82.8 secs

     total energy              =     -33.16544558 Ry
     Harris-Foulkes estimate   =     -33.57308143 Ry
     estimated scf accuracy    <       8.13380123 Ry

     iteration # 88     ecut=    30.00 Ry     beta=0.70
     Davidson diagonalization with overlap
     ethr =  1.00E-02,  avg # of iterations =  1.0

     negative rho (up, down):  1.489E-01 0.000E+00

     total cpu time spent up to now is       82.9 secs

     total energy              =     -33.93877701 Ry
     Harris-Foulkes estimate   =     -33.19610614 Ry
     estimated scf accuracy    <       7.60747444 Ry

     iteration # 89     ecut=    30.00 Ry     beta=0.70
     Davidson diagonalization with overlap
     ethr =  1.00E-02,  avg # of iterations =  9.0

     negative rho (up, down):  2.582E-02 0.000E+00

     total cpu time spent up to now is       82.9 secs

     total energy              =      50.15425624 Ry
     Harris-Foulkes estimate   =    -101.11882762 Ry
     estimated scf accuracy    <      38.11658556 Ry

     iteration # 90     ecut=    30.00 Ry     beta=0.70
     Davidson diagonalization with overlap
     ethr =  1.00E-02,  avg # of iterations =  7.0

     negative rho (up, down):  5.088E-02 0.000E+00

     total cpu time spent up to now is       83.0 secs

     total energy              =     -33.89985589 Ry
     Harris-Foulkes estimate   =     -34.42443025 Ry
     estimated scf accuracy    <       5.36401481 Ry

     iteration # 91     ecut=    30.00 Ry     beta=0.70
     Davidson diagonalization with overlap
     ethr =  1.00E-02,  avg # of iterations =  1.0

     negative rho (up, down):  2.505E-01 0.000E+00

     total cpu time spent up to now is       83.0 secs

     total energy              =     -33.60455834 Ry
     Harris-Foulkes estimate   =     -33.90613877 Ry
     estimated scf accuracy    <       4.67431314 Ry

     iteration # 92     ecut=    30.00 Ry     beta=0.70
     Davidson diagonalization with overlap
     ethr =  1.00E-02,  avg # of iterations =  9.0

     negative rho (up, down):  8.223E-01 0.000E+00

     total cpu time spent up to now is       83.1 secs

     total energy              =      73.70216849 Ry
     Harris-Foulkes estimate   =    -726.73772695 Ry
     estimated scf accuracy    <      64.00694463 Ry

     iteration # 93     ecut=    30.00 Ry     beta=0.70
     Davidson diagonalization with overlap
     ethr =  1.00E-02,  avg # of iterations =  7.0

     negative rho (up, down):  6.796E-01 0.000E+00

     total cpu time spent up to now is       83.1 secs

     total energy              =     121.74179719 Ry
     Harris-Foulkes estimate   =    -543.22886611 Ry
     estimated scf accuracy    <      53.66954219 Ry

     iteration # 94     ecut=    30.00 Ry     beta=0.70
     Davidson diagonalization with overlap
     ethr =  1.00E-02,  avg # of iterations =  8.0

     negative rho (up, down):  5.668E-01 0.000E+00

     total cpu time spent up to now is       83.2 secs

     total energy              =     117.99990135 Ry
     Harris-Foulkes estimate   =    -454.23398251 Ry
     estimated scf accuracy    <      58.44991138 Ry

     iteration # 95     ecut=    30.00 Ry     beta=0.70
     Davidson diagonalization with overlap
     ethr =  1.00E-02,  avg # of iterations = 15.0

     negative rho (up, down):  8.518E-02 0.000E+00

     total cpu time spent up to now is       83.3 secs

     total energy              =     -34.82271146 Ry
     Harris-Foulkes estimate   =     -40.11070292 Ry
     estimated scf accuracy    <      14.37561743 Ry

     iteration # 96     ecut=    30.00 Ry     beta=0.70
     Davidson diagonalization with overlap
     ethr =  1.00E-02,  avg # of iterations =  2.0

     negative rho (up, down):  2.494E-02 0.000E+00

     total cpu time spent up to now is       83.3 secs

     total energy              =     -32.34447631 Ry
     Harris-Foulkes estimate   =     -34.93931859 Ry
     estimated scf accuracy    <       7.36327436 Ry

     iteration # 97     ecut=    30.00 Ry     beta=0.70
     Davidson diagonalization with overlap
     ethr =  1.00E-02,  avg # of iterations =  5.0

     negative rho (up, down):  3.373E-02 0.000E+00

     total cpu time spent up to now is       83.4 secs

     total energy              =     -15.39735336 Ry
     Harris-Foulkes estimate   =     -48.60474826 Ry
     estimated scf accuracy    <      10.00259871 Ry

     iteration # 98     ecut=    30.00 Ry     beta=0.70
     Davidson diagonalization with overlap
     ethr =  1.00E-02,  avg # of iterations =  4.0

     negative rho (up, down):  6.900E-02 0.000E+00

     total cpu time spent up to now is       83.4 secs

     total energy              =     -16.98894558 Ry
     Harris-Foulkes estimate   =     -41.38458956 Ry
     estimated scf accuracy    <       9.63404396 Ry

     iteration # 99     ecut=    30.00 Ry     beta=0.70
     Davidson diagonalization with overlap
     ethr =  1.00E-02,  avg # of iterations =  8.0

     negative rho (up, down):  8.738E-02 0.000E+00

     total cpu time spent up to now is       83.4 secs

     total energy              =   -1326.29902353 Ry
     Harris-Foulkes estimate   =    -744.66294996 Ry
     estimated scf accuracy    <      65.93151531 Ry

     iteration #100     ecut=    30.00 Ry     beta=0.70
     Davidson diagonalization with overlap
     ethr =  1.00E-02,  avg # of iterations =  4.0

     negative rho (up, down):  1.004E-01 0.000E+00

     total cpu time spent up to now is       83.5 secs

     total energy              =     -91.24511818 Ry
     Harris-Foulkes estimate   =   -1438.96096269 Ry
     estimated scf accuracy    <      29.77129625 Ry

     End of self-consistent calculation

     convergence NOT achieved after 100 iterations: stopping

     Writing output data file pwscf.save
 
     init_run     :      0.09s CPU      0.11s WALL (       1 calls)
     electrons    :     48.55s CPU     63.97s WALL (      69 calls)
     update_pot   :      9.09s CPU     12.91s WALL (      68 calls)
     forces       :      1.86s CPU      2.02s WALL (      68 calls)

     Called by init_run:
     wfcinit      :      0.01s CPU      0.02s WALL (       1 calls)
     potinit      :      0.02s CPU      0.03s WALL (       1 calls)

     Called by electrons:
     c_bands      :     20.38s CPU     21.87s WALL (    1529 calls)
     sum_band     :      4.64s CPU      5.05s WALL (    1529 calls)
     v_of_rho     :     11.22s CPU     11.94s WALL (    1598 calls)
     mix_rho      :      9.64s CPU     16.97s WALL (    1529 calls)

     Called by c_bands:
     init_us_2    :      0.14s CPU      0.17s WALL (    3059 calls)
     cegterg      :     20.02s CPU     20.99s WALL (    1529 calls)

     Called by sum_band:

     Called by *egterg:
     h_psi        :     16.87s CPU     17.52s WALL (    6120 calls)
     g_psi        :      0.14s CPU      0.14s WALL (    4590 calls)
     cdiaghg      :      1.16s CPU      1.23s WALL (    6051 calls)

     Called by h_psi:
     h_psi:pot    :     16.78s CPU     17.42s WALL (    6120 calls)
     h_psi:calbec :      0.43s CPU      0.56s WALL (    6120 calls)
     vloc_psi     :     16.27s CPU     16.78s WALL (    6120 calls)
     add_vuspsi   :      0.05s CPU      0.05s WALL (    6120 calls)

     General routines
     calbec       :      1.05s CPU      1.40s WALL (    6459 calls)
     fft          :      8.00s CPU      8.56s WALL (   17714 calls)
     fftw         :     17.65s CPU     18.44s WALL (   76072 calls)
     davcio       :      1.52s CPU      6.21s WALL (   24452 calls)
 
     Parallel routines
     fft_scatter  :     10.60s CPU     11.49s WALL (   93786 calls)
 
     PWSCF        :  1m 1.31s CPU     1m23.57s WALL

 
   This run was terminated on:   2: 5:41  11Feb2018            

=------------------------------------------------------------------------------=
   JOB DONE.
=------------------------------------------------------------------------------=
