
     Program PWSCF v.6.0 (svn rev. 13079) starts on 11Feb2018 at  2: 9:37 

     This program is part of the open-source Quantum ESPRESSO suite
     for quantum simulation of materials; please cite
         "P. Giannozzi et al., J. Phys.:Condens. Matter 21 395502 (2009);
          URL http://www.quantum-espresso.org", 
     in publications or presentations arising from this work. More details at
     http://www.quantum-espresso.org/quote

     Parallel version (MPI), running on    28 processors
     R & G space division:  proc/nbgrp/npool/nimage =      28
     Reading input from inputs/water-1-md/454.in

     Current dimensions of program PWSCF are:
     Max number of different atomic species (ntypx) = 10
     Max number of k-points (npk) =  40000
     Max angular momentum in pseudopotentials (lmaxx) =  3

     Subspace diagonalization in iterative solution of the eigenvalue problem:
     a serial algorithm will be used

 
     Parallelization info
     --------------------
     sticks:   dense  smooth     PW     G-vecs:    dense   smooth      PW
     Min         136     136     33                 6338     6338     787
     Max         137     137     34                 6341     6341     792
     Sum        3809    3809    949               177509   177509   22119
 


     bravais-lattice index     =            1
     lattice parameter (alat)  =      20.0000  a.u.
     unit-cell volume          =    8000.0000 (a.u.)^3
     number of atoms/cell      =            3
     number of atomic types    =            2
     number of electrons       =         8.00
     number of Kohn-Sham states=            8
     kinetic-energy cutoff     =      30.0000  Ry
     charge density cutoff     =     120.0000  Ry
     convergence threshold     =      1.0E-08
     mixing beta               =       0.7000
     number of iterations used =            8  plain     mixing
     Exchange-correlation      = BLYP ( 1  3  1  3 0 0)
     nstep                     =         5000


     celldm(1)=  20.000000  celldm(2)=   0.000000  celldm(3)=   0.000000
     celldm(4)=   0.000000  celldm(5)=   0.000000  celldm(6)=   0.000000

     crystal axes: (cart. coord. in units of alat)
               a(1) = (   1.000000   0.000000   0.000000 )  
               a(2) = (   0.000000   1.000000   0.000000 )  
               a(3) = (   0.000000   0.000000   1.000000 )  

     reciprocal axes: (cart. coord. in units 2 pi/alat)
               b(1) = (  1.000000  0.000000  0.000000 )  
               b(2) = (  0.000000  1.000000  0.000000 )  
               b(3) = (  0.000000  0.000000  1.000000 )  


     PseudoPot. # 1 for  H read from file:
     ./H.blyp-hgh.UPF
     MD5 check sum: c576e69559cde411e611be972c763230
     Pseudo is Norm-conserving, Zval =  1.0
     Generated in analytical, separable form
     Using radial grid of  929 points,  0 beta functions with: 

     PseudoPot. # 2 for  O read from file:
     ./O.blyp-hgh.UPF
     MD5 check sum: d0b7156309aa9befef28faac7bc56342
     Pseudo is Norm-conserving, Zval =  6.0
     Generated in analytical, separable form
     Using radial grid of 1095 points,  1 beta functions with: 
                l(1) =   0

     atomic species   valence    mass     pseudopotential
        H              1.00     1.01000      H( 1.00)
        O              6.00    16.00000      O( 1.00)

     No symmetry found



   Cartesian axes

     site n.     atom                  positions (alat units)
         1           H   tau(   1) = (   0.3590287   0.3682673   0.4835250  )
         2           H   tau(   2) = (   0.5292239   0.7852501   0.3005174  )
         3           O   tau(   3) = (   0.0148592   0.2501033   0.9990263  )

     number of k points=     1  Marzari-Vanderbilt smearing, width (Ry)=  0.0250
                       cart. coord. in units 2pi/alat
        k(    1) = (   0.0000000   0.0000000   0.0000000), wk =   2.0000000

     Dense  grid:   177509 G-vectors     FFT dimensions: (  72,  72,  72)

     Estimated max dynamical RAM per process >       6.09Mb

     Estimated total allocated dynamical RAM >     170.64Mb

     Initial potential from superposition of free atoms
     Check: negative starting charge=   -0.351802

     starting charge    7.99998, renormalised to    8.00000

     negative rho (up, down):  3.518E-01 0.000E+00
     Starting wfc are    6 randomized atomic wfcs +    2 random wfc

     total cpu time spent up to now is        0.2 secs

     per-process dynamical memory:    18.8 Mb

     Self-consistent Calculation

     iteration #  1     ecut=    30.00 Ry     beta=0.70
     Davidson diagonalization with overlap
     ethr =  1.00E-02,  avg # of iterations =  8.0

     negative rho (up, down):  8.542E-02 0.000E+00

     total cpu time spent up to now is        0.3 secs

     total energy              =     -28.01287267 Ry
     Harris-Foulkes estimate   =     -32.08923026 Ry
     estimated scf accuracy    <       4.66365681 Ry

     iteration #  2     ecut=    30.00 Ry     beta=0.70
     Davidson diagonalization with overlap
     ethr =  1.00E-02,  avg # of iterations =  4.0

     negative rho (up, down):  6.259E-02 0.000E+00

     total cpu time spent up to now is        0.3 secs

     total energy              =     -32.69762421 Ry
     Harris-Foulkes estimate   =     -38.09452067 Ry
     estimated scf accuracy    <      13.12819164 Ry

     iteration #  3     ecut=    30.00 Ry     beta=0.70
     Davidson diagonalization with overlap
     ethr =  1.00E-02,  avg # of iterations =  2.0

     negative rho (up, down):  6.452E-02 0.000E+00

     total cpu time spent up to now is        0.4 secs

     total energy              =     -33.24661040 Ry
     Harris-Foulkes estimate   =     -33.03596630 Ry
     estimated scf accuracy    <       5.12411524 Ry

     iteration #  4     ecut=    30.00 Ry     beta=0.70
     Davidson diagonalization with overlap
     ethr =  1.00E-02,  avg # of iterations =  1.0

     negative rho (up, down):  2.542E-02 0.000E+00

     total cpu time spent up to now is        0.4 secs

     total energy              =     -30.13498975 Ry
     Harris-Foulkes estimate   =     -33.24713552 Ry
     estimated scf accuracy    <       5.43003630 Ry

     iteration #  5     ecut=    30.00 Ry     beta=0.70
     Davidson diagonalization with overlap
     ethr =  1.00E-02,  avg # of iterations =  6.0

     negative rho (up, down):  2.506E-02 0.000E+00

     total cpu time spent up to now is        0.5 secs

     total energy              =     -33.43806199 Ry
     Harris-Foulkes estimate   =     -33.44509572 Ry
     estimated scf accuracy    <      14.09124036 Ry

     iteration #  6     ecut=    30.00 Ry     beta=0.70
     Davidson diagonalization with overlap
     ethr =  1.00E-02,  avg # of iterations =  1.0

     negative rho (up, down):  3.710E-02 0.000E+00

     total cpu time spent up to now is        0.6 secs

     total energy              =     -33.39931642 Ry
     Harris-Foulkes estimate   =     -33.44176125 Ry
     estimated scf accuracy    <      14.11862279 Ry

     iteration #  7     ecut=    30.00 Ry     beta=0.70
     Davidson diagonalization with overlap
     ethr =  1.00E-02,  avg # of iterations =  1.0

     negative rho (up, down):  5.351E-02 0.000E+00

     total cpu time spent up to now is        0.6 secs

     total energy              =     -33.28814432 Ry
     Harris-Foulkes estimate   =     -33.40195306 Ry
     estimated scf accuracy    <      14.09941141 Ry

     iteration #  8     ecut=    30.00 Ry     beta=0.70
     Davidson diagonalization with overlap
     ethr =  1.00E-02,  avg # of iterations =  1.0

     negative rho (up, down):  1.826E-01 0.000E+00

     total cpu time spent up to now is        0.7 secs

     total energy              =     -31.82354617 Ry
     Harris-Foulkes estimate   =     -33.29189931 Ry
     estimated scf accuracy    <      13.54680206 Ry

     iteration #  9     ecut=    30.00 Ry     beta=0.70
     Davidson diagonalization with overlap
     ethr =  1.00E-02,  avg # of iterations =  3.0

     negative rho (up, down):  1.050E-01 0.000E+00

     total cpu time spent up to now is        0.7 secs

     total energy              =     -32.06011031 Ry
     Harris-Foulkes estimate   =     -32.24492141 Ry
     estimated scf accuracy    <       4.90506258 Ry

     iteration # 10     ecut=    30.00 Ry     beta=0.70
     Davidson diagonalization with overlap
     ethr =  1.00E-02,  avg # of iterations =  1.0

     negative rho (up, down):  1.490E-02 0.000E+00

     total cpu time spent up to now is        0.7 secs

     total energy              =     -31.83947004 Ry
     Harris-Foulkes estimate   =     -32.06239273 Ry
     estimated scf accuracy    <       4.58367895 Ry

     iteration # 11     ecut=    30.00 Ry     beta=0.70
     Davidson diagonalization with overlap
     ethr =  1.00E-02,  avg # of iterations =  1.0

     negative rho (up, down):  6.326E-03 0.000E+00

     total cpu time spent up to now is        0.8 secs

     total energy              =     -31.61231569 Ry
     Harris-Foulkes estimate   =     -31.84151014 Ry
     estimated scf accuracy    <       4.21257880 Ry

     iteration # 12     ecut=    30.00 Ry     beta=0.70
     Davidson diagonalization with overlap
     ethr =  1.00E-02,  avg # of iterations =  1.0

     negative rho (up, down):  3.868E-02 0.000E+00

     total cpu time spent up to now is        0.8 secs

     total energy              =     -30.85886951 Ry
     Harris-Foulkes estimate   =     -31.61354940 Ry
     estimated scf accuracy    <       4.07402648 Ry

     iteration # 13     ecut=    30.00 Ry     beta=0.70
     Davidson diagonalization with overlap
     ethr =  1.00E-02,  avg # of iterations =  1.0

     negative rho (up, down):  7.060E-04 0.000E+00

     total cpu time spent up to now is        0.8 secs

     total energy              =     -31.41897581 Ry
     Harris-Foulkes estimate   =     -32.00522844 Ry
     estimated scf accuracy    <       3.53000949 Ry

     iteration # 14     ecut=    30.00 Ry     beta=0.70
     Davidson diagonalization with overlap
     ethr =  1.00E-02,  avg # of iterations =  1.0

     negative rho (up, down):  1.783E-03 0.000E+00

     total cpu time spent up to now is        0.9 secs

     total energy              =     -31.53904577 Ry
     Harris-Foulkes estimate   =     -31.49841569 Ry
     estimated scf accuracy    <       1.03983576 Ry

     iteration # 15     ecut=    30.00 Ry     beta=0.70
     Davidson diagonalization with overlap
     ethr =  1.00E-02,  avg # of iterations =  1.0

     total cpu time spent up to now is        0.9 secs

     total energy              =     -31.57681364 Ry
     Harris-Foulkes estimate   =     -31.57595572 Ry
     estimated scf accuracy    <       4.80988389 Ry

     iteration # 16     ecut=    30.00 Ry     beta=0.70
     Davidson diagonalization with overlap
     ethr =  1.00E-02,  avg # of iterations =  1.0

     total cpu time spent up to now is        0.9 secs

     total energy              =     -31.60984900 Ry
     Harris-Foulkes estimate   =     -31.57687175 Ry
     estimated scf accuracy    <       4.83727598 Ry

     iteration # 17     ecut=    30.00 Ry     beta=0.70
     Davidson diagonalization with overlap
     ethr =  1.00E-02,  avg # of iterations =  1.0

     negative rho (up, down):  2.738E-04 0.000E+00

     total cpu time spent up to now is        1.0 secs

     total energy              =     -31.37888566 Ry
     Harris-Foulkes estimate   =     -31.60855312 Ry
     estimated scf accuracy    <       4.16496251 Ry

     iteration # 18     ecut=    30.00 Ry     beta=0.70
     Davidson diagonalization with overlap
     ethr =  1.00E-02,  avg # of iterations =  1.0

     negative rho (up, down):  8.353E-04 0.000E+00

     total cpu time spent up to now is        1.0 secs

     total energy              =     -31.43499463 Ry
     Harris-Foulkes estimate   =     -31.52499013 Ry
     estimated scf accuracy    <       2.18192783 Ry

     iteration # 19     ecut=    30.00 Ry     beta=0.70
     Davidson diagonalization with overlap
     ethr =  1.00E-02,  avg # of iterations =  1.0

     negative rho (up, down):  4.082E-04 0.000E+00

     total cpu time spent up to now is        1.0 secs

     total energy              =     -31.35973093 Ry
     Harris-Foulkes estimate   =     -31.50412496 Ry
     estimated scf accuracy    <       1.50792478 Ry

     iteration # 20     ecut=    30.00 Ry     beta=0.70
     Davidson diagonalization with overlap
     ethr =  1.00E-02,  avg # of iterations =  1.0

     negative rho (up, down):  6.137E-04 0.000E+00

     total cpu time spent up to now is        1.1 secs

     total energy              =     -31.62441490 Ry
     Harris-Foulkes estimate   =     -31.62259433 Ry
     estimated scf accuracy    <       2.93868812 Ry

     iteration # 21     ecut=    30.00 Ry     beta=0.70
     Davidson diagonalization with overlap
     ethr =  1.00E-02,  avg # of iterations =  1.0

     negative rho (up, down):  1.732E-04 0.000E+00

     total cpu time spent up to now is        1.1 secs

     total energy              =     -31.53018945 Ry
     Harris-Foulkes estimate   =     -31.62451000 Ry
     estimated scf accuracy    <       2.94664143 Ry

     iteration # 22     ecut=    30.00 Ry     beta=0.70
     Davidson diagonalization with overlap
     ethr =  1.00E-02,  avg # of iterations =  1.0

     negative rho (up, down):  2.931E-04 0.000E+00

     total cpu time spent up to now is        1.1 secs

     total energy              =     -31.48336146 Ry
     Harris-Foulkes estimate   =     -31.53143305 Ry
     estimated scf accuracy    <       2.40855760 Ry

     iteration # 23     ecut=    30.00 Ry     beta=0.70
     Davidson diagonalization with overlap
     ethr =  1.00E-02,  avg # of iterations =  1.0

     negative rho (up, down):  9.852E-05 0.000E+00

     total cpu time spent up to now is        1.2 secs

     total energy              =     -31.50659411 Ry
     Harris-Foulkes estimate   =     -31.49469687 Ry
     estimated scf accuracy    <       0.43074230 Ry

     iteration # 24     ecut=    30.00 Ry     beta=0.70
     Davidson diagonalization with overlap
     ethr =  5.38E-03,  avg # of iterations =  1.0

     negative rho (up, down):  9.287E-05 0.000E+00

     total cpu time spent up to now is        1.2 secs

     total energy              =     -31.50473369 Ry
     Harris-Foulkes estimate   =     -31.51333240 Ry
     estimated scf accuracy    <       1.71440780 Ry

     iteration # 25     ecut=    30.00 Ry     beta=0.70
     Davidson diagonalization with overlap
     ethr =  5.38E-03,  avg # of iterations =  1.0

     negative rho (up, down):  1.171E-04 0.000E+00

     total cpu time spent up to now is        1.2 secs

     total energy              =     -31.50074893 Ry
     Harris-Foulkes estimate   =     -31.50538307 Ry
     estimated scf accuracy    <       1.23806365 Ry

     iteration # 26     ecut=    30.00 Ry     beta=0.70
     Davidson diagonalization with overlap
     ethr =  5.38E-03,  avg # of iterations =  1.0

     negative rho (up, down):  2.027E-04 0.000E+00

     total cpu time spent up to now is        1.3 secs

     total energy              =     -31.50143902 Ry
     Harris-Foulkes estimate   =     -31.50103691 Ry
     estimated scf accuracy    <       0.94064406 Ry

     iteration # 27     ecut=    30.00 Ry     beta=0.70
     Davidson diagonalization with overlap
     ethr =  5.38E-03,  avg # of iterations =  1.0

     negative rho (up, down):  4.338E-04 0.000E+00

     total cpu time spent up to now is        1.3 secs

     total energy              =     -31.47398017 Ry
     Harris-Foulkes estimate   =     -31.50144238 Ry
     estimated scf accuracy    <       0.97045137 Ry

     iteration # 28     ecut=    30.00 Ry     beta=0.70
     Davidson diagonalization with overlap
     ethr =  5.38E-03,  avg # of iterations =  1.0

     negative rho (up, down):  2.544E-04 0.000E+00

     total cpu time spent up to now is        1.3 secs

     total energy              =     -31.46097298 Ry
     Harris-Foulkes estimate   =     -31.49170702 Ry
     estimated scf accuracy    <       0.19367445 Ry

     iteration # 29     ecut=    30.00 Ry     beta=0.70
     Davidson diagonalization with overlap
     ethr =  2.42E-03,  avg # of iterations =  1.0

     negative rho (up, down):  3.431E-05 0.000E+00

     total cpu time spent up to now is        1.4 secs

     total energy              =     -31.52699050 Ry
     Harris-Foulkes estimate   =     -31.58010831 Ry
     estimated scf accuracy    <       2.87801152 Ry

     iteration # 30     ecut=    30.00 Ry     beta=0.70
     Davidson diagonalization with overlap
     ethr =  2.42E-03,  avg # of iterations =  1.0

     negative rho (up, down):  2.952E-05 0.000E+00

     total cpu time spent up to now is        1.4 secs

     total energy              =     -31.52544919 Ry
     Harris-Foulkes estimate   =     -31.52816888 Ry
     estimated scf accuracy    <       2.36270486 Ry

     iteration # 31     ecut=    30.00 Ry     beta=0.70
     Davidson diagonalization with overlap
     ethr =  2.42E-03,  avg # of iterations =  1.0

     negative rho (up, down):  3.095E-05 0.000E+00

     total cpu time spent up to now is        1.4 secs

     total energy              =     -31.52587464 Ry
     Harris-Foulkes estimate   =     -31.52548018 Ry
     estimated scf accuracy    <       2.27581814 Ry

     iteration # 32     ecut=    30.00 Ry     beta=0.70
     Davidson diagonalization with overlap
     ethr =  2.42E-03,  avg # of iterations =  1.0

     negative rho (up, down):  2.444E-05 0.000E+00

     total cpu time spent up to now is        1.5 secs

     total energy              =     -31.52655635 Ry
     Harris-Foulkes estimate   =     -31.52587781 Ry
     estimated scf accuracy    <       2.28932567 Ry

     iteration # 33     ecut=    30.00 Ry     beta=0.70
     Davidson diagonalization with overlap
     ethr =  2.42E-03,  avg # of iterations =  1.0

     negative rho (up, down):  4.699E-05 0.000E+00

     total cpu time spent up to now is        1.5 secs

     total energy              =     -31.52515562 Ry
     Harris-Foulkes estimate   =     -31.52656125 Ry
     estimated scf accuracy    <       2.30595192 Ry

     iteration # 34     ecut=    30.00 Ry     beta=0.70
     Davidson diagonalization with overlap
     ethr =  2.42E-03,  avg # of iterations =  1.0

     negative rho (up, down):  3.986E-05 0.000E+00

     total cpu time spent up to now is        1.5 secs

     total energy              =     -31.50706251 Ry
     Harris-Foulkes estimate   =     -31.52523555 Ry
     estimated scf accuracy    <       2.26822936 Ry

     iteration # 35     ecut=    30.00 Ry     beta=0.70
     Davidson diagonalization with overlap
     ethr =  2.42E-03,  avg # of iterations =  1.0

     negative rho (up, down):  4.807E-07 0.000E+00

     total cpu time spent up to now is        1.6 secs

     total energy              =     -31.47323663 Ry
     Harris-Foulkes estimate   =     -31.50901035 Ry
     estimated scf accuracy    <       1.44868761 Ry

     iteration # 36     ecut=    30.00 Ry     beta=0.70
     Davidson diagonalization with overlap
     ethr =  2.42E-03,  avg # of iterations =  1.0

     negative rho (up, down):  2.076E-08 0.000E+00

     total cpu time spent up to now is        1.6 secs

     total energy              =     -31.48972371 Ry
     Harris-Foulkes estimate   =     -31.48988694 Ry
     estimated scf accuracy    <       0.00944366 Ry

     iteration # 37     ecut=    30.00 Ry     beta=0.70
     Davidson diagonalization with overlap
     ethr =  1.18E-04,  avg # of iterations =  1.0

     total cpu time spent up to now is        1.6 secs

     total energy              =     -31.48949834 Ry
     Harris-Foulkes estimate   =     -31.49003433 Ry
     estimated scf accuracy    <       0.02975759 Ry

     iteration # 38     ecut=    30.00 Ry     beta=0.70
     Davidson diagonalization with overlap
     ethr =  1.18E-04,  avg # of iterations =  1.0

     negative rho (up, down):  4.574E-08 0.000E+00

     total cpu time spent up to now is        1.7 secs

     total energy              =     -31.48973797 Ry
     Harris-Foulkes estimate   =     -31.48976412 Ry
     estimated scf accuracy    <       0.00021323 Ry

     iteration # 39     ecut=    30.00 Ry     beta=0.70
     Davidson diagonalization with overlap
     ethr =  2.67E-06,  avg # of iterations =  9.0

     negative rho (up, down):  1.958E-06 0.000E+00

     total cpu time spent up to now is        1.7 secs

     total energy              =     -31.48984258 Ry
     Harris-Foulkes estimate   =     -31.48980977 Ry
     estimated scf accuracy    <       0.00356255 Ry

     iteration # 40     ecut=    30.00 Ry     beta=0.70
     Davidson diagonalization with overlap
     ethr =  2.67E-06,  avg # of iterations =  1.0

     negative rho (up, down):  3.956E-06 0.000E+00

     total cpu time spent up to now is        1.7 secs

     total energy              =     -31.49024149 Ry
     Harris-Foulkes estimate   =     -31.49004397 Ry
     estimated scf accuracy    <       0.01677464 Ry

     iteration # 41     ecut=    30.00 Ry     beta=0.70
     Davidson diagonalization with overlap
     ethr =  2.67E-06,  avg # of iterations =  1.0

     negative rho (up, down):  1.154E-06 0.000E+00

     total cpu time spent up to now is        1.8 secs

     total energy              =     -31.48969410 Ry
     Harris-Foulkes estimate   =     -31.49029021 Ry
     estimated scf accuracy    <       0.03551027 Ry

     iteration # 42     ecut=    30.00 Ry     beta=0.70
     Davidson diagonalization with overlap
     ethr =  2.67E-06,  avg # of iterations =  1.0

     total cpu time spent up to now is        1.8 secs

     total energy              =     -31.48970174 Ry
     Harris-Foulkes estimate   =     -31.48986806 Ry
     estimated scf accuracy    <       0.00585024 Ry

     iteration # 43     ecut=    30.00 Ry     beta=0.70
     Davidson diagonalization with overlap
     ethr =  2.67E-06,  avg # of iterations =  1.0

     total cpu time spent up to now is        1.9 secs

     total energy              =     -31.48977127 Ry
     Harris-Foulkes estimate   =     -31.48977768 Ry
     estimated scf accuracy    <       0.00097068 Ry

     iteration # 44     ecut=    30.00 Ry     beta=0.70
     Davidson diagonalization with overlap
     ethr =  2.67E-06,  avg # of iterations =  1.0

     total cpu time spent up to now is        1.9 secs

     total energy              =     -31.48975922 Ry
     Harris-Foulkes estimate   =     -31.48977251 Ry
     estimated scf accuracy    <       0.00064103 Ry

     iteration # 45     ecut=    30.00 Ry     beta=0.70
     Davidson diagonalization with overlap
     ethr =  2.67E-06,  avg # of iterations =  1.0

     total cpu time spent up to now is        2.0 secs

     total energy              =     -31.48976611 Ry
     Harris-Foulkes estimate   =     -31.48976581 Ry
     estimated scf accuracy    <       0.00000052 Ry

     iteration # 46     ecut=    30.00 Ry     beta=0.70
     Davidson diagonalization with overlap
     ethr =  6.44E-09,  avg # of iterations =  1.0

     total cpu time spent up to now is        2.0 secs

     total energy              =     -31.48976611 Ry
     Harris-Foulkes estimate   =     -31.48976612 Ry
     estimated scf accuracy    <       0.00000001 Ry

     iteration # 47     ecut=    30.00 Ry     beta=0.70
     Davidson diagonalization with overlap
     ethr =  1.52E-10,  avg # of iterations =  1.0

     total cpu time spent up to now is        2.0 secs

     End of self-consistent calculation

          k = 0.0000 0.0000 0.0000 ( 22119 PWs)   bands (ev):

   -23.6367  -7.0410  -7.0409  -7.0404  -6.9534  -6.9201  -0.2450   0.5810

     the Fermi energy is    -6.9066 ev

!    total energy              =     -31.48976608 Ry
     Harris-Foulkes estimate   =     -31.48976611 Ry
     estimated scf accuracy    <          8.6E-09 Ry

     convergence has been achieved in  47 iterations

     Forces acting on atoms (Ry/au):

     atom    1 type  1   force =    -0.00056481   -0.00002794    0.00050897
     atom    2 type  1   force =    -0.00049299   -0.00004034    0.00046753
     atom    3 type  2   force =     0.00105780    0.00006829   -0.00097650

     Total force =     0.001766     Total SCF correction =     0.000089

     Molecular Dynamics Calculation

     Starting temperature  =  1000.00 K

     temperature is controlled by Andersen thermostat
     Collision frequency = 1.0000/timestep
     mass H                =     1.01
     mass O                =    16.00
     Time step             =   100.00 a.u.,  4.8378 femto-seconds

     Entering Dynamics:    iteration =     1
                           time      =   0.0048 pico-seconds


     Andersen thermostat:    3 collisions

ATOMIC_POSITIONS (bohr)
H        7.114454753   7.346207252   9.507794252
H       10.089040280  15.803270421   6.092799734
O        0.332632284   4.997070939  19.985592035


     kinetic energy (Ekin) =     0.01431361 Ry
     temperature           =   753.31268406 K 
     Ekin + Etot (const)   =   -31.47545246 Ry

     Linear momentum :   -0.0000000000   -0.0000000000    0.0000000000

     Writing output data file pwscf.save
     Check: negative starting charge=   -0.351802
     NEW-OLD atomic charge density approx. for the potential
     Check: negative starting charge=   -0.352208

     negative rho (up, down):  6.509E-02 0.000E+00

     total cpu time spent up to now is        2.3 secs

     per-process dynamical memory:    20.4 Mb

     Self-consistent Calculation

     iteration #  1     ecut=    30.00 Ry     beta=0.70
     Davidson diagonalization with overlap
     c_bands:  1 eigenvalues not converged
     ethr =  1.00E-06,  avg # of iterations = 20.0

     negative rho (up, down):  1.454E-02 0.000E+00

     total cpu time spent up to now is        2.5 secs

     total energy              =     -31.44515026 Ry
     Harris-Foulkes estimate   =     -31.43691423 Ry
     estimated scf accuracy    <       0.03973267 Ry

     iteration #  2     ecut=    30.00 Ry     beta=0.70
     Davidson diagonalization with overlap
     ethr =  4.97E-04,  avg # of iterations =  2.0

     negative rho (up, down):  1.349E-02 0.000E+00

     total cpu time spent up to now is        2.5 secs

     total energy              =     -31.46369551 Ry
     Harris-Foulkes estimate   =     -31.88340896 Ry
     estimated scf accuracy    <       4.29322489 Ry

     iteration #  3     ecut=    30.00 Ry     beta=0.70
     Davidson diagonalization with overlap
     ethr =  4.97E-04,  avg # of iterations =  2.0

     negative rho (up, down):  1.281E-02 0.000E+00

     total cpu time spent up to now is        2.6 secs

     total energy              =     -31.46884176 Ry
     Harris-Foulkes estimate   =     -31.54873040 Ry
     estimated scf accuracy    <       1.16663710 Ry

     iteration #  4     ecut=    30.00 Ry     beta=0.70
     Davidson diagonalization with overlap
     ethr =  4.97E-04,  avg # of iterations =  1.0

     negative rho (up, down):  7.478E-03 0.000E+00

     total cpu time spent up to now is        2.6 secs

     total energy              =     -31.43166239 Ry
     Harris-Foulkes estimate   =     -31.48321839 Ry
     estimated scf accuracy    <       0.56293417 Ry

     iteration #  5     ecut=    30.00 Ry     beta=0.70
     Davidson diagonalization with overlap
     ethr =  4.97E-04,  avg # of iterations =  1.0

     negative rho (up, down):  2.065E-03 0.000E+00

     total cpu time spent up to now is        2.7 secs

     total energy              =     -31.46960083 Ry
     Harris-Foulkes estimate   =     -31.54198873 Ry
     estimated scf accuracy    <       2.29624904 Ry

     iteration #  6     ecut=    30.00 Ry     beta=0.70
     Davidson diagonalization with overlap
     ethr =  4.97E-04,  avg # of iterations =  2.0

     negative rho (up, down):  7.393E-04 0.000E+00

     total cpu time spent up to now is        2.7 secs

     total energy              =     -31.48629308 Ry
     Harris-Foulkes estimate   =     -31.49232829 Ry
     estimated scf accuracy    <       0.18822233 Ry

     iteration #  7     ecut=    30.00 Ry     beta=0.70
     Davidson diagonalization with overlap
     ethr =  4.97E-04,  avg # of iterations =  1.0

     negative rho (up, down):  2.621E-04 0.000E+00

     total cpu time spent up to now is        2.8 secs

     total energy              =     -31.48882598 Ry
     Harris-Foulkes estimate   =     -31.49321187 Ry
     estimated scf accuracy    <       0.34554431 Ry

     iteration #  8     ecut=    30.00 Ry     beta=0.70
     Davidson diagonalization with overlap
     ethr =  4.97E-04,  avg # of iterations =  1.0

     negative rho (up, down):  8.661E-05 0.000E+00

     total cpu time spent up to now is        2.8 secs

     total energy              =     -31.48643749 Ry
     Harris-Foulkes estimate   =     -31.49065390 Ry
     estimated scf accuracy    <       0.05599977 Ry

     iteration #  9     ecut=    30.00 Ry     beta=0.70
     Davidson diagonalization with overlap
     ethr =  4.97E-04,  avg # of iterations =  1.0

     negative rho (up, down):  2.072E-07 0.000E+00

     total cpu time spent up to now is        2.8 secs

     total energy              =     -31.48820827 Ry
     Harris-Foulkes estimate   =     -31.49219766 Ry
     estimated scf accuracy    <       0.19853572 Ry

     iteration # 10     ecut=    30.00 Ry     beta=0.70
     Davidson diagonalization with overlap
     ethr =  4.97E-04,  avg # of iterations =  1.0

     total cpu time spent up to now is        2.9 secs

     total energy              =     -31.48977348 Ry
     Harris-Foulkes estimate   =     -31.48995071 Ry
     estimated scf accuracy    <       0.00612889 Ry

     iteration # 11     ecut=    30.00 Ry     beta=0.70
     Davidson diagonalization with overlap
     ethr =  7.66E-05,  avg # of iterations =  3.0

     total cpu time spent up to now is        2.9 secs

     total energy              =     -31.48955185 Ry
     Harris-Foulkes estimate   =     -31.49008447 Ry
     estimated scf accuracy    <       0.02617843 Ry

     iteration # 12     ecut=    30.00 Ry     beta=0.70
     Davidson diagonalization with overlap
     ethr =  7.66E-05,  avg # of iterations =  1.0

     total cpu time spent up to now is        2.9 secs

     total energy              =     -31.48983244 Ry
     Harris-Foulkes estimate   =     -31.48985051 Ry
     estimated scf accuracy    <       0.00057008 Ry

     iteration # 13     ecut=    30.00 Ry     beta=0.70
     Davidson diagonalization with overlap
     ethr =  7.13E-06,  avg # of iterations =  8.0

     total cpu time spent up to now is        3.0 secs

     total energy              =     -31.48984244 Ry
     Harris-Foulkes estimate   =     -31.48984267 Ry
     estimated scf accuracy    <       0.00001542 Ry

     iteration # 14     ecut=    30.00 Ry     beta=0.70
     Davidson diagonalization with overlap
     ethr =  1.93E-07,  avg # of iterations =  4.0

     total cpu time spent up to now is        3.1 secs

     total energy              =     -31.48984283 Ry
     Harris-Foulkes estimate   =     -31.48984245 Ry
     estimated scf accuracy    <       0.00001674 Ry

     iteration # 15     ecut=    30.00 Ry     beta=0.70
     Davidson diagonalization with overlap
     ethr =  1.93E-07,  avg # of iterations =  1.0

     total cpu time spent up to now is        3.1 secs

     total energy              =     -31.48984299 Ry
     Harris-Foulkes estimate   =     -31.48984307 Ry
     estimated scf accuracy    <       0.00000034 Ry

     iteration # 16     ecut=    30.00 Ry     beta=0.70
     Davidson diagonalization with overlap
     ethr =  4.27E-09,  avg # of iterations =  1.0

     total cpu time spent up to now is        3.1 secs

     total energy              =     -31.48984298 Ry
     Harris-Foulkes estimate   =     -31.48984299 Ry
     estimated scf accuracy    <       0.00000001 Ry

     iteration # 17     ecut=    30.00 Ry     beta=0.70
     Davidson diagonalization with overlap
     ethr =  1.59E-10,  avg # of iterations =  1.0

     total cpu time spent up to now is        3.1 secs

     End of self-consistent calculation

          k = 0.0000 0.0000 0.0000 ( 22119 PWs)   bands (ev):

   -23.6384  -7.0438  -7.0433  -7.0428  -6.9577  -6.9208  -0.2439   0.5672

     the Fermi energy is    -6.9091 ev

!    total energy              =     -31.48984303 Ry
     Harris-Foulkes estimate   =     -31.48984298 Ry
     estimated scf accuracy    <          6.6E-09 Ry

     convergence has been achieved in  17 iterations

     Forces acting on atoms (Ry/au):

     atom    1 type  1   force =    -0.00072869    0.00000316    0.00033325
     atom    2 type  1   force =    -0.00068054   -0.00001881    0.00031151
     atom    3 type  2   force =     0.00140923    0.00001565   -0.00064476

     Total force =     0.001899     Total SCF correction =     0.000776
     SCF correction compared to forces is large: reduce conv_thr to get better values

     Entering Dynamics:    iteration =     2
                           time      =   0.0097 pico-seconds


     Andersen thermostat:    3 collisions

ATOMIC_POSITIONS (bohr)
H        7.400145737   7.183250548   9.269372645
H       10.378019623  16.213670629   6.404192524
O        0.296356219   4.981451068  19.980985729


     kinetic energy (Ekin) =     0.02535341 Ry
     temperature           =  1334.32756440 K 
     Ekin + Etot (const)   =   -31.46448962 Ry
     Message from routine dynamics:
     Total linear momentum <> 0

     Linear momentum :    0.0212879984    0.0841574643    0.1374867776

     Writing output data file pwscf.save

     first order wave-functions extrapolation
     Check: negative starting charge=   -0.352208
     first order charge density extrapolation
     Check: negative starting charge=   -0.352131

     negative rho (up, down):  1.455E-01 0.000E+00

     total cpu time spent up to now is        3.5 secs

     per-process dynamical memory:    20.4 Mb

     Self-consistent Calculation

     iteration #  1     ecut=    30.00 Ry     beta=0.70
     Davidson diagonalization with overlap
     c_bands:  1 eigenvalues not converged
     ethr =  1.00E-06,  avg # of iterations = 20.0

     negative rho (up, down):  3.515E-02 0.000E+00

     total cpu time spent up to now is        3.6 secs

     total energy              =     -30.46731207 Ry
     Harris-Foulkes estimate   =     -31.50286313 Ry
     estimated scf accuracy    <       1.22487817 Ry

     iteration #  2     ecut=    30.00 Ry     beta=0.70
     Davidson diagonalization with overlap
     ethr =  1.00E-02,  avg # of iterations =  3.0

     negative rho (up, down):  2.774E-02 0.000E+00

     total cpu time spent up to now is        3.6 secs

     total energy              =     -31.60349907 Ry
     Harris-Foulkes estimate   =     -33.71319379 Ry
     estimated scf accuracy    <       6.38280151 Ry

     iteration #  3     ecut=    30.00 Ry     beta=0.70
     Davidson diagonalization with overlap
     ethr =  1.00E-02,  avg # of iterations =  2.0

     negative rho (up, down):  2.295E-02 0.000E+00

     total cpu time spent up to now is        3.6 secs

     total energy              =     -31.79243091 Ry
     Harris-Foulkes estimate   =     -32.29603253 Ry
     estimated scf accuracy    <       2.19223965 Ry

     iteration #  4     ecut=    30.00 Ry     beta=0.70
     Davidson diagonalization with overlap
     ethr =  1.00E-02,  avg # of iterations =  1.0

     negative rho (up, down):  2.030E-02 0.000E+00

     total cpu time spent up to now is        3.7 secs

     total energy              =     -31.64332401 Ry
     Harris-Foulkes estimate   =     -31.82676587 Ry
     estimated scf accuracy    <       1.94045130 Ry

     iteration #  5     ecut=    30.00 Ry     beta=0.70
     Davidson diagonalization with overlap
     ethr =  1.00E-02,  avg # of iterations =  1.0

     negative rho (up, down):  1.777E-02 0.000E+00

     total cpu time spent up to now is        3.7 secs

     total energy              =     -31.54172125 Ry
     Harris-Foulkes estimate   =     -31.70076271 Ry
     estimated scf accuracy    <       1.50167647 Ry

     iteration #  6     ecut=    30.00 Ry     beta=0.70
     Davidson diagonalization with overlap
     ethr =  1.00E-02,  avg # of iterations =  3.0

     negative rho (up, down):  1.107E-02 0.000E+00

     total cpu time spent up to now is        3.7 secs

     total energy              =     -31.29160408 Ry
     Harris-Foulkes estimate   =     -31.56909203 Ry
     estimated scf accuracy    <       1.33635349 Ry

     iteration #  7     ecut=    30.00 Ry     beta=0.70
     Davidson diagonalization with overlap
     ethr =  1.00E-02,  avg # of iterations =  2.0

     negative rho (up, down):  5.007E-03 0.000E+00

     total cpu time spent up to now is        3.8 secs

     total energy              =     -31.61179182 Ry
     Harris-Foulkes estimate   =     -31.74005572 Ry
     estimated scf accuracy    <       1.30444544 Ry

     iteration #  8     ecut=    30.00 Ry     beta=0.70
     Davidson diagonalization with overlap
     ethr =  1.00E-02,  avg # of iterations =  1.0

     negative rho (up, down):  4.659E-03 0.000E+00

     total cpu time spent up to now is        3.8 secs

     total energy              =     -31.44659761 Ry
     Harris-Foulkes estimate   =     -31.61371480 Ry
     estimated scf accuracy    <       1.05123677 Ry

     iteration #  9     ecut=    30.00 Ry     beta=0.70
     Davidson diagonalization with overlap
     ethr =  1.00E-02,  avg # of iterations =  1.0

     negative rho (up, down):  5.050E-04 0.000E+00

     total cpu time spent up to now is        3.8 secs

     total energy              =     -31.35189839 Ry
     Harris-Foulkes estimate   =     -31.50135317 Ry
     estimated scf accuracy    <       0.91220129 Ry

     iteration # 10     ecut=    30.00 Ry     beta=0.70
     Davidson diagonalization with overlap
     ethr =  1.00E-02,  avg # of iterations =  1.0

     negative rho (up, down):  1.156E-05 0.000E+00

     total cpu time spent up to now is        3.9 secs

     total energy              =     -31.55526155 Ry
     Harris-Foulkes estimate   =     -31.67196883 Ry
     estimated scf accuracy    <       1.82006063 Ry

     iteration # 11     ecut=    30.00 Ry     beta=0.70
     Davidson diagonalization with overlap
     ethr =  1.00E-02,  avg # of iterations =  1.0

     negative rho (up, down):  4.655E-05 0.000E+00

     total cpu time spent up to now is        3.9 secs

     total energy              =     -31.64025647 Ry
     Harris-Foulkes estimate   =     -31.55860349 Ry
     estimated scf accuracy    <       2.65043000 Ry

     iteration # 12     ecut=    30.00 Ry     beta=0.70
     Davidson diagonalization with overlap
     ethr =  1.00E-02,  avg # of iterations =  1.0

     negative rho (up, down):  3.339E-04 0.000E+00

     total cpu time spent up to now is        3.9 secs

     total energy              =     -31.57511456 Ry
     Harris-Foulkes estimate   =     -31.63919042 Ry
     estimated scf accuracy    <       2.20182473 Ry

     iteration # 13     ecut=    30.00 Ry     beta=0.70
     Davidson diagonalization with overlap
     ethr =  1.00E-02,  avg # of iterations =  1.0

     negative rho (up, down):  9.010E-07 0.000E+00

     total cpu time spent up to now is        4.0 secs

     total energy              =     -31.53751820 Ry
     Harris-Foulkes estimate   =     -31.58607336 Ry
     estimated scf accuracy    <       1.01304894 Ry

     iteration # 14     ecut=    30.00 Ry     beta=0.70
     Davidson diagonalization with overlap
     ethr =  1.00E-02,  avg # of iterations =  1.0

     negative rho (up, down):  1.707E-06 0.000E+00

     total cpu time spent up to now is        4.0 secs

     total energy              =     -31.53404557 Ry
     Harris-Foulkes estimate   =     -31.53752311 Ry
     estimated scf accuracy    <       1.17973302 Ry

     iteration # 15     ecut=    30.00 Ry     beta=0.70
     Davidson diagonalization with overlap
     ethr =  1.00E-02,  avg # of iterations =  1.0

     negative rho (up, down):  1.808E-06 0.000E+00

     total cpu time spent up to now is        4.0 secs

     total energy              =     -31.52479901 Ry
     Harris-Foulkes estimate   =     -31.53405361 Ry
     estimated scf accuracy    <       1.25099533 Ry

     iteration # 16     ecut=    30.00 Ry     beta=0.70
     Davidson diagonalization with overlap
     ethr =  1.00E-02,  avg # of iterations =  1.0

     negative rho (up, down):  3.600E-05 0.000E+00

     total cpu time spent up to now is        4.1 secs

     total energy              =     -31.52215973 Ry
     Harris-Foulkes estimate   =     -31.52461828 Ry
     estimated scf accuracy    <       1.36556034 Ry

     iteration # 17     ecut=    30.00 Ry     beta=0.70
     Davidson diagonalization with overlap
     ethr =  1.00E-02,  avg # of iterations =  1.0

     negative rho (up, down):  1.335E-04 0.000E+00

     total cpu time spent up to now is        4.1 secs

     total energy              =     -31.55424804 Ry
     Harris-Foulkes estimate   =     -31.52216264 Ry
     estimated scf accuracy    <       1.35464654 Ry

     iteration # 18     ecut=    30.00 Ry     beta=0.70
     Davidson diagonalization with overlap
     ethr =  1.00E-02,  avg # of iterations =  1.0

     negative rho (up, down):  6.488E-03 0.000E+00

     total cpu time spent up to now is        4.1 secs

     total energy              =     -31.59972562 Ry
     Harris-Foulkes estimate   =     -31.55248839 Ry
     estimated scf accuracy    <       1.07690176 Ry

     iteration # 19     ecut=    30.00 Ry     beta=0.70
     Davidson diagonalization with overlap
     ethr =  1.00E-02,  avg # of iterations =  1.0

     negative rho (up, down):  1.389E-03 0.000E+00

     total cpu time spent up to now is        4.2 secs

     total energy              =     -31.62161546 Ry
     Harris-Foulkes estimate   =     -31.59955557 Ry
     estimated scf accuracy    <       1.05093312 Ry

     iteration # 20     ecut=    30.00 Ry     beta=0.70
     Davidson diagonalization with overlap
     ethr =  1.00E-02,  avg # of iterations =  1.0

     negative rho (up, down):  2.905E-03 0.000E+00

     total cpu time spent up to now is        4.2 secs

     total energy              =     -31.64056020 Ry
     Harris-Foulkes estimate   =     -31.62258714 Ry
     estimated scf accuracy    <       1.21622697 Ry

     iteration # 21     ecut=    30.00 Ry     beta=0.70
     Davidson diagonalization with overlap
     ethr =  1.00E-02,  avg # of iterations =  1.0

     negative rho (up, down):  2.124E-03 0.000E+00

     total cpu time spent up to now is        4.3 secs

     total energy              =     -31.60348857 Ry
     Harris-Foulkes estimate   =     -31.64074123 Ry
     estimated scf accuracy    <       1.30213569 Ry

     iteration # 22     ecut=    30.00 Ry     beta=0.70
     Davidson diagonalization with overlap
     ethr =  1.00E-02,  avg # of iterations =  1.0

     negative rho (up, down):  1.401E-07 0.000E+00

     total cpu time spent up to now is        4.3 secs

     total energy              =     -31.26919367 Ry
     Harris-Foulkes estimate   =     -31.60359083 Ry
     estimated scf accuracy    <       1.24622800 Ry

     iteration # 23     ecut=    30.00 Ry     beta=0.70
     Davidson diagonalization with overlap
     ethr =  1.00E-02,  avg # of iterations =  1.0

     negative rho (up, down):  6.852E-05 0.000E+00

     total cpu time spent up to now is        4.3 secs

     total energy              =     -31.69933822 Ry
     Harris-Foulkes estimate   =     -31.69088936 Ry
     estimated scf accuracy    <       1.01296128 Ry

     iteration # 24     ecut=    30.00 Ry     beta=0.70
     Davidson diagonalization with overlap
     ethr =  1.00E-02,  avg # of iterations =  1.0

     negative rho (up, down):  1.575E-07 0.000E+00

     total cpu time spent up to now is        4.4 secs

     total energy              =     -31.68708065 Ry
     Harris-Foulkes estimate   =     -31.69947832 Ry
     estimated scf accuracy    <       1.04248937 Ry

     iteration # 25     ecut=    30.00 Ry     beta=0.70
     Davidson diagonalization with overlap
     ethr =  1.00E-02,  avg # of iterations =  1.0

     negative rho (up, down):  5.282E-07 0.000E+00

     total cpu time spent up to now is        4.4 secs

     total energy              =     -31.59315679 Ry
     Harris-Foulkes estimate   =     -31.68708964 Ry
     estimated scf accuracy    <       1.01774145 Ry

     iteration # 26     ecut=    30.00 Ry     beta=0.70
     Davidson diagonalization with overlap
     ethr =  1.00E-02,  avg # of iterations =  1.0

     negative rho (up, down):  1.099E-06 0.000E+00

     total cpu time spent up to now is        4.4 secs

     total energy              =     -31.50802887 Ry
     Harris-Foulkes estimate   =     -31.59358500 Ry
     estimated scf accuracy    <       0.87302797 Ry

     iteration # 27     ecut=    30.00 Ry     beta=0.70
     Davidson diagonalization with overlap
     ethr =  1.00E-02,  avg # of iterations =  1.0

     negative rho (up, down):  5.467E-07 0.000E+00

     total cpu time spent up to now is        4.4 secs

     total energy              =     -31.43475836 Ry
     Harris-Foulkes estimate   =     -31.50865216 Ry
     estimated scf accuracy    <       0.67214541 Ry

     iteration # 28     ecut=    30.00 Ry     beta=0.70
     Davidson diagonalization with overlap
     ethr =  8.40E-03,  avg # of iterations =  1.0

     negative rho (up, down):  8.800E-08 0.000E+00

     total cpu time spent up to now is        4.5 secs

     total energy              =     -31.45885078 Ry
     Harris-Foulkes estimate   =     -31.53717422 Ry
     estimated scf accuracy    <       1.19782046 Ry

     iteration # 29     ecut=    30.00 Ry     beta=0.70
     Davidson diagonalization with overlap
     ethr =  8.40E-03,  avg # of iterations =  1.0

     total cpu time spent up to now is        4.5 secs

     total energy              =     -31.49732691 Ry
     Harris-Foulkes estimate   =     -31.49411240 Ry
     estimated scf accuracy    <       0.26927190 Ry

     iteration # 30     ecut=    30.00 Ry     beta=0.70
     Davidson diagonalization with overlap
     ethr =  3.37E-03,  avg # of iterations =  1.0

     total cpu time spent up to now is        4.5 secs

     total energy              =     -31.49112350 Ry
     Harris-Foulkes estimate   =     -31.49777107 Ry
     estimated scf accuracy    <       0.42492225 Ry

     iteration # 31     ecut=    30.00 Ry     beta=0.70
     Davidson diagonalization with overlap
     ethr =  3.37E-03,  avg # of iterations =  1.0

     negative rho (up, down):  1.126E-08 0.000E+00

     total cpu time spent up to now is        4.6 secs

     total energy              =     -31.49018967 Ry
     Harris-Foulkes estimate   =     -31.49224788 Ry
     estimated scf accuracy    <       0.16570921 Ry

     iteration # 32     ecut=    30.00 Ry     beta=0.70
     Davidson diagonalization with overlap
     ethr =  2.07E-03,  avg # of iterations =  1.0

     total cpu time spent up to now is        4.6 secs

     total energy              =     -31.49801971 Ry
     Harris-Foulkes estimate   =     -31.49058379 Ry
     estimated scf accuracy    <       0.06009127 Ry

     iteration # 33     ecut=    30.00 Ry     beta=0.70
     Davidson diagonalization with overlap
     ethr =  7.51E-04,  avg # of iterations =  1.0

     total cpu time spent up to now is        4.7 secs

     total energy              =     -31.49337591 Ry
     Harris-Foulkes estimate   =     -31.50814731 Ry
     estimated scf accuracy    <       0.66317356 Ry

     iteration # 34     ecut=    30.00 Ry     beta=0.70
     Davidson diagonalization with overlap
     ethr =  7.51E-04,  avg # of iterations =  1.0

     total cpu time spent up to now is        4.7 secs

     total energy              =     -31.49384053 Ry
     Harris-Foulkes estimate   =     -31.49511099 Ry
     estimated scf accuracy    <       0.31548506 Ry

     iteration # 35     ecut=    30.00 Ry     beta=0.70
     Davidson diagonalization with overlap
     ethr =  7.51E-04,  avg # of iterations =  1.0

     total cpu time spent up to now is        4.7 secs

     total energy              =     -31.48180452 Ry
     Harris-Foulkes estimate   =     -31.49390172 Ry
     estimated scf accuracy    <       0.25654118 Ry

     iteration # 36     ecut=    30.00 Ry     beta=0.70
     Davidson diagonalization with overlap
     ethr =  7.51E-04,  avg # of iterations =  1.0

     total cpu time spent up to now is        4.8 secs

     total energy              =     -31.48796748 Ry
     Harris-Foulkes estimate   =     -31.49129093 Ry
     estimated scf accuracy    <       0.12199717 Ry

     iteration # 37     ecut=    30.00 Ry     beta=0.70
     Davidson diagonalization with overlap
     ethr =  7.51E-04,  avg # of iterations =  1.0

     total cpu time spent up to now is        4.8 secs

     total energy              =     -31.48983194 Ry
     Harris-Foulkes estimate   =     -31.48975424 Ry
     estimated scf accuracy    <       0.00083083 Ry

     iteration # 38     ecut=    30.00 Ry     beta=0.70
     Davidson diagonalization with overlap
     ethr =  1.04E-05,  avg # of iterations =  1.0

     total cpu time spent up to now is        4.8 secs

     total energy              =     -31.48995518 Ry
     Harris-Foulkes estimate   =     -31.48997477 Ry
     estimated scf accuracy    <       0.01722943 Ry

     iteration # 39     ecut=    30.00 Ry     beta=0.70
     Davidson diagonalization with overlap
     ethr =  1.04E-05,  avg # of iterations =  1.0

     total cpu time spent up to now is        4.9 secs

     total energy              =     -31.48992618 Ry
     Harris-Foulkes estimate   =     -31.48995573 Ry
     estimated scf accuracy    <       0.01571904 Ry

     iteration # 40     ecut=    30.00 Ry     beta=0.70
     Davidson diagonalization with overlap
     ethr =  1.04E-05,  avg # of iterations =  1.0

     total cpu time spent up to now is        4.9 secs

     total energy              =     -31.48980243 Ry
     Harris-Foulkes estimate   =     -31.48992725 Ry
     estimated scf accuracy    <       0.01351715 Ry

     iteration # 41     ecut=    30.00 Ry     beta=0.70
     Davidson diagonalization with overlap
     ethr =  1.04E-05,  avg # of iterations =  1.0

     total cpu time spent up to now is        4.9 secs

     total energy              =     -31.48981962 Ry
     Harris-Foulkes estimate   =     -31.48982360 Ry
     estimated scf accuracy    <       0.00580521 Ry

     iteration # 42     ecut=    30.00 Ry     beta=0.70
     Davidson diagonalization with overlap
     ethr =  1.04E-05,  avg # of iterations =  1.0

     total cpu time spent up to now is        4.9 secs

     total energy              =     -31.48963915 Ry
     Harris-Foulkes estimate   =     -31.48981968 Ry
     estimated scf accuracy    <       0.00551323 Ry

     iteration # 43     ecut=    30.00 Ry     beta=0.70
     Davidson diagonalization with overlap
     ethr =  1.04E-05,  avg # of iterations =  1.0

     total cpu time spent up to now is        5.0 secs

     total energy              =     -31.48974269 Ry
     Harris-Foulkes estimate   =     -31.48975288 Ry
     estimated scf accuracy    <       0.00042298 Ry

     iteration # 44     ecut=    30.00 Ry     beta=0.70
     Davidson diagonalization with overlap
     ethr =  5.29E-06,  avg # of iterations =  6.0

     total cpu time spent up to now is        5.0 secs

     total energy              =     -31.48974717 Ry
     Harris-Foulkes estimate   =     -31.48974728 Ry
     estimated scf accuracy    <       0.00000177 Ry

     iteration # 45     ecut=    30.00 Ry     beta=0.70
     Davidson diagonalization with overlap
     ethr =  2.21E-08,  avg # of iterations =  1.0

     total cpu time spent up to now is        5.1 secs

     total energy              =     -31.48974720 Ry
     Harris-Foulkes estimate   =     -31.48974719 Ry
     estimated scf accuracy    <       0.00000009 Ry

     iteration # 46     ecut=    30.00 Ry     beta=0.70
     Davidson diagonalization with overlap
     ethr =  1.15E-09,  avg # of iterations =  1.0

     total cpu time spent up to now is        5.1 secs

     total energy              =     -31.48974727 Ry
     Harris-Foulkes estimate   =     -31.48974720 Ry
     estimated scf accuracy    <       0.00000010 Ry

     iteration # 47     ecut=    30.00 Ry     beta=0.70
     Davidson diagonalization with overlap
     ethr =  1.15E-09,  avg # of iterations =  1.0

     total cpu time spent up to now is        5.1 secs

     total energy              =     -31.48974728 Ry
     Harris-Foulkes estimate   =     -31.48974727 Ry
     estimated scf accuracy    <       0.00000003 Ry

     iteration # 48     ecut=    30.00 Ry     beta=0.70
     Davidson diagonalization with overlap
     ethr =  3.26E-10,  avg # of iterations =  1.0

     total cpu time spent up to now is        5.1 secs

     End of self-consistent calculation

          k = 0.0000 0.0000 0.0000 ( 22119 PWs)   bands (ev):

   -23.6393  -7.0434  -7.0433  -7.0429  -6.9555  -6.9232  -0.2444   0.5409

     the Fermi energy is    -6.9091 ev

!    total energy              =     -31.48974732 Ry
     Harris-Foulkes estimate   =     -31.48974728 Ry
     estimated scf accuracy    <          1.0E-08 Ry

     convergence has been achieved in  48 iterations

     Forces acting on atoms (Ry/au):

     atom    1 type  1   force =    -0.00053647    0.00045106    0.00045320
     atom    2 type  1   force =    -0.00045051    0.00046208    0.00041559
     atom    3 type  2   force =     0.00098698   -0.00091314   -0.00086879

     Total force =     0.001962     Total SCF correction =     0.000035

     Entering Dynamics:    iteration =     3
                           time      =   0.0145 pico-seconds


     Andersen thermostat:    3 collisions

ATOMIC_POSITIONS (bohr)
H        7.369077922   7.344766890   9.302369711
H        9.928947044  16.370341569   6.388035840
O        0.326665082   4.961365496  19.979922680


     kinetic energy (Ekin) =     0.01712793 Ry
     temperature           =   901.42755147 K 
     Ekin + Etot (const)   =   -31.47261939 Ry
     Message from routine dynamics:
     Total linear momentum <> 0

     Linear momentum :   -0.5031468365   -0.2476366559    0.2599916138

     Writing output data file pwscf.save

     second order wave-functions extrapolation
     Check: negative starting charge=   -0.352131
     second order charge density extrapolation
     Check: negative starting charge=   -0.352454

     negative rho (up, down):  5.872E-02 0.000E+00

     total cpu time spent up to now is        5.5 secs

     per-process dynamical memory:    20.4 Mb

     Self-consistent Calculation

     iteration #  1     ecut=    30.00 Ry     beta=0.70
     Davidson diagonalization with overlap
     c_bands:  1 eigenvalues not converged
     ethr =  1.00E-06,  avg # of iterations = 20.0

     negative rho (up, down):  1.322E-02 0.000E+00

     total cpu time spent up to now is        5.8 secs

     total energy              =     -31.45361574 Ry
     Harris-Foulkes estimate   =     -31.44068735 Ry
     estimated scf accuracy    <       0.03086477 Ry

     iteration #  2     ecut=    30.00 Ry     beta=0.70
     Davidson diagonalization with overlap
     ethr =  3.86E-04,  avg # of iterations =  2.0

     negative rho (up, down):  1.239E-02 0.000E+00

     total cpu time spent up to now is        5.9 secs

     total energy              =     -31.45893713 Ry
     Harris-Foulkes estimate   =     -31.82238606 Ry
     estimated scf accuracy    <       4.19644094 Ry

     iteration #  3     ecut=    30.00 Ry     beta=0.70
     Davidson diagonalization with overlap
     ethr =  3.86E-04,  avg # of iterations =  2.0

     negative rho (up, down):  1.180E-02 0.000E+00

     total cpu time spent up to now is        5.9 secs

     total energy              =     -31.46603658 Ry
     Harris-Foulkes estimate   =     -31.54538756 Ry
     estimated scf accuracy    <       1.21498047 Ry

     iteration #  4     ecut=    30.00 Ry     beta=0.70
     Davidson diagonalization with overlap
     ethr =  3.86E-04,  avg # of iterations =  1.0

     negative rho (up, down):  4.353E-03 0.000E+00

     total cpu time spent up to now is        5.9 secs

     total energy              =     -31.45793598 Ry
     Harris-Foulkes estimate   =     -31.48165485 Ry
     estimated scf accuracy    <       0.28454285 Ry

     iteration #  5     ecut=    30.00 Ry     beta=0.70
     Davidson diagonalization with overlap
     ethr =  3.86E-04,  avg # of iterations =  1.0

     negative rho (up, down):  1.588E-03 0.000E+00

     total cpu time spent up to now is        6.0 secs

     total energy              =     -31.47545114 Ry
     Harris-Foulkes estimate   =     -31.52420478 Ry
     estimated scf accuracy    <       1.62060199 Ry

     iteration #  6     ecut=    30.00 Ry     beta=0.70
     Davidson diagonalization with overlap
     ethr =  3.86E-04,  avg # of iterations =  3.0

     negative rho (up, down):  4.421E-04 0.000E+00

     total cpu time spent up to now is        6.0 secs

     total energy              =     -31.48788413 Ry
     Harris-Foulkes estimate   =     -31.49068767 Ry
     estimated scf accuracy    <       0.08475806 Ry

     iteration #  7     ecut=    30.00 Ry     beta=0.70
     Davidson diagonalization with overlap
     ethr =  3.86E-04,  avg # of iterations =  1.0

     negative rho (up, down):  1.092E-04 0.000E+00

     total cpu time spent up to now is        6.0 secs

     total energy              =     -31.48901918 Ry
     Harris-Foulkes estimate   =     -31.49157146 Ry
     estimated scf accuracy    <       0.17550743 Ry

     iteration #  8     ecut=    30.00 Ry     beta=0.70
     Davidson diagonalization with overlap
     ethr =  3.86E-04,  avg # of iterations =  1.0

     negative rho (up, down):  5.578E-05 0.000E+00

     total cpu time spent up to now is        6.0 secs

     total energy              =     -31.48833147 Ry
     Harris-Foulkes estimate   =     -31.49049250 Ry
     estimated scf accuracy    <       0.03680722 Ry

     iteration #  9     ecut=    30.00 Ry     beta=0.70
     Davidson diagonalization with overlap
     ethr =  3.86E-04,  avg # of iterations =  1.0

     negative rho (up, down):  9.354E-08 0.000E+00

     total cpu time spent up to now is        6.1 secs

     total energy              =     -31.48961120 Ry
     Harris-Foulkes estimate   =     -31.49017490 Ry
     estimated scf accuracy    <       0.02870207 Ry

     iteration # 10     ecut=    30.00 Ry     beta=0.70
     Davidson diagonalization with overlap
     ethr =  3.59E-04,  avg # of iterations =  1.0

     total cpu time spent up to now is        6.1 secs

     total energy              =     -31.48986900 Ry
     Harris-Foulkes estimate   =     -31.49001326 Ry
     estimated scf accuracy    <       0.01277177 Ry

     iteration # 11     ecut=    30.00 Ry     beta=0.70
     Davidson diagonalization with overlap
     ethr =  1.60E-04,  avg # of iterations =  1.0

     total cpu time spent up to now is        6.1 secs

     total energy              =     -31.48966885 Ry
     Harris-Foulkes estimate   =     -31.48995922 Ry
     estimated scf accuracy    <       0.01345845 Ry

     iteration # 12     ecut=    30.00 Ry     beta=0.70
     Davidson diagonalization with overlap
     ethr =  1.60E-04,  avg # of iterations =  1.0

     total cpu time spent up to now is        6.2 secs

     total energy              =     -31.48982089 Ry
     Harris-Foulkes estimate   =     -31.48984595 Ry
     estimated scf accuracy    <       0.00075510 Ry

     iteration # 13     ecut=    30.00 Ry     beta=0.70
     Davidson diagonalization with overlap
     ethr =  9.44E-06,  avg # of iterations = 10.0

     total cpu time spent up to now is        6.2 secs

     total energy              =     -31.48983480 Ry
     Harris-Foulkes estimate   =     -31.48983464 Ry
     estimated scf accuracy    <       0.00000808 Ry

     iteration # 14     ecut=    30.00 Ry     beta=0.70
     Davidson diagonalization with overlap
     ethr =  1.01E-07,  avg # of iterations =  4.0

     total cpu time spent up to now is        6.3 secs

     total energy              =     -31.48983498 Ry
     Harris-Foulkes estimate   =     -31.48983481 Ry
     estimated scf accuracy    <       0.00000649 Ry

     iteration # 15     ecut=    30.00 Ry     beta=0.70
     Davidson diagonalization with overlap
     ethr =  8.11E-08,  avg # of iterations =  1.0

     total cpu time spent up to now is        6.3 secs

     total energy              =     -31.48983503 Ry
     Harris-Foulkes estimate   =     -31.48983507 Ry
     estimated scf accuracy    <       0.00000002 Ry

     iteration # 16     ecut=    30.00 Ry     beta=0.70
     Davidson diagonalization with overlap
     ethr =  2.85E-10,  avg # of iterations =  1.0

     total cpu time spent up to now is        6.3 secs

     End of self-consistent calculation

          k = 0.0000 0.0000 0.0000 ( 22119 PWs)   bands (ev):

   -23.6398  -7.0450  -7.0448  -7.0445  -6.9581  -6.9235  -0.2437   0.5334

     the Fermi energy is    -6.9106 ev

!    total energy              =     -31.48983502 Ry
     Harris-Foulkes estimate   =     -31.48983503 Ry
     estimated scf accuracy    <          5.3E-09 Ry

     convergence has been achieved in  16 iterations

     Forces acting on atoms (Ry/au):

     atom    1 type  1   force =    -0.00080854    0.00059838    0.00029890
     atom    2 type  1   force =    -0.00074300    0.00059566    0.00026956
     atom    3 type  2   force =     0.00155154   -0.00119404   -0.00056846

     Total force =     0.002497     Total SCF correction =     0.000087

     Entering Dynamics:    iteration =     4
                           time      =   0.0194 pico-seconds


     Andersen thermostat:    3 collisions

ATOMIC_POSITIONS (bohr)
H        7.382005280   7.759011584   8.853047292
H        9.919016116  16.507847157   6.159827154
O        0.326475932   4.926536259  20.022691831


     kinetic energy (Ekin) =     0.02364156 Ry
     temperature           =  1244.23429445 K 
     Ekin + Etot (const)   =   -31.46619346 Ry
     Message from routine dynamics:
     Total linear momentum <> 0

     Linear momentum :    0.0141335518   -0.2894426026   -0.0083254370

     Writing output data file pwscf.save

     second order wave-functions extrapolation
     Check: negative starting charge=   -0.352454
     second order charge density extrapolation
     Check: negative starting charge=   -0.352757

     negative rho (up, down):  9.754E-02 0.000E+00

     total cpu time spent up to now is        6.7 secs

     per-process dynamical memory:    20.4 Mb

     Self-consistent Calculation

     iteration #  1     ecut=    30.00 Ry     beta=0.70
     Davidson diagonalization with overlap
     ethr =  1.00E-06,  avg # of iterations = 17.0

     negative rho (up, down):  2.268E-02 0.000E+00

     total cpu time spent up to now is        6.8 secs

     total energy              =     -31.45603716 Ry
     Harris-Foulkes estimate   =     -31.42330067 Ry
     estimated scf accuracy    <       0.01725968 Ry

     iteration #  2     ecut=    30.00 Ry     beta=0.70
     Davidson diagonalization with overlap
     ethr =  2.16E-04,  avg # of iterations =  3.0

     negative rho (up, down):  2.155E-02 0.000E+00

     total cpu time spent up to now is        6.8 secs

     total energy              =     -31.45097112 Ry
     Harris-Foulkes estimate   =     -31.73091420 Ry
     estimated scf accuracy    <       4.06832756 Ry

     iteration #  3     ecut=    30.00 Ry     beta=0.70
     Davidson diagonalization with overlap
     ethr =  2.16E-04,  avg # of iterations =  2.0

     negative rho (up, down):  1.702E-02 0.000E+00

     total cpu time spent up to now is        6.8 secs

     total energy              =     -31.47087397 Ry
     Harris-Foulkes estimate   =     -31.47001313 Ry
     estimated scf accuracy    <       0.08334379 Ry

     iteration #  4     ecut=    30.00 Ry     beta=0.70
     Davidson diagonalization with overlap
     ethr =  2.16E-04,  avg # of iterations =  1.0

     negative rho (up, down):  4.413E-03 0.000E+00

     total cpu time spent up to now is        6.9 secs

     total energy              =     -31.47923149 Ry
     Harris-Foulkes estimate   =     -31.48062870 Ry
     estimated scf accuracy    <       0.33793191 Ry

     iteration #  5     ecut=    30.00 Ry     beta=0.70
     Davidson diagonalization with overlap
     ethr =  2.16E-04,  avg # of iterations =  3.0

     negative rho (up, down):  2.218E-03 0.000E+00

     total cpu time spent up to now is        6.9 secs

     total energy              =     -31.47353384 Ry
     Harris-Foulkes estimate   =     -31.49231010 Ry
     estimated scf accuracy    <       0.59323190 Ry

     iteration #  6     ecut=    30.00 Ry     beta=0.70
     Davidson diagonalization with overlap
     ethr =  2.16E-04,  avg # of iterations =  1.0

     negative rho (up, down):  4.145E-04 0.000E+00

     total cpu time spent up to now is        6.9 secs

     total energy              =     -31.48049091 Ry
     Harris-Foulkes estimate   =     -31.49281223 Ry
     estimated scf accuracy    <       0.49232153 Ry

     iteration #  7     ecut=    30.00 Ry     beta=0.70
     Davidson diagonalization with overlap
     ethr =  2.16E-04,  avg # of iterations =  4.0

     negative rho (up, down):  2.330E-05 0.000E+00

     total cpu time spent up to now is        7.0 secs

     total energy              =     -31.48938424 Ry
     Harris-Foulkes estimate   =     -31.49135921 Ry
     estimated scf accuracy    <       0.15396403 Ry

     iteration #  8     ecut=    30.00 Ry     beta=0.70
     Davidson diagonalization with overlap
     ethr =  2.16E-04,  avg # of iterations =  1.0

     negative rho (up, down):  6.986E-08 0.000E+00

     total cpu time spent up to now is        7.0 secs

     total energy              =     -31.48950691 Ry
     Harris-Foulkes estimate   =     -31.49005305 Ry
     estimated scf accuracy    <       0.01572175 Ry

     iteration #  9     ecut=    30.00 Ry     beta=0.70
     Davidson diagonalization with overlap
     ethr =  1.97E-04,  avg # of iterations =  1.0

     total cpu time spent up to now is        7.0 secs

     total energy              =     -31.48979376 Ry
     Harris-Foulkes estimate   =     -31.49005548 Ry
     estimated scf accuracy    <       0.01516313 Ry

     iteration # 10     ecut=    30.00 Ry     beta=0.70
     Davidson diagonalization with overlap
     ethr =  1.90E-04,  avg # of iterations =  1.0

     total cpu time spent up to now is        7.1 secs

     total energy              =     -31.48992112 Ry
     Harris-Foulkes estimate   =     -31.48992243 Ry
     estimated scf accuracy    <       0.00000816 Ry

     iteration # 11     ecut=    30.00 Ry     beta=0.70
     Davidson diagonalization with overlap
     ethr =  1.02E-07,  avg # of iterations =  9.0

     total cpu time spent up to now is        7.1 secs

     total energy              =     -31.48991401 Ry
     Harris-Foulkes estimate   =     -31.48993080 Ry
     estimated scf accuracy    <       0.00090013 Ry

     iteration # 12     ecut=    30.00 Ry     beta=0.70
     Davidson diagonalization with overlap
     ethr =  1.02E-07,  avg # of iterations =  1.0

     total cpu time spent up to now is        7.1 secs

     total energy              =     -31.48992263 Ry
     Harris-Foulkes estimate   =     -31.48992261 Ry
     estimated scf accuracy    <       0.00000098 Ry

     iteration # 13     ecut=    30.00 Ry     beta=0.70
     Davidson diagonalization with overlap
     ethr =  1.23E-08,  avg # of iterations =  1.0

     total cpu time spent up to now is        7.2 secs

     total energy              =     -31.48992263 Ry
     Harris-Foulkes estimate   =     -31.48992264 Ry
     estimated scf accuracy    <       0.00000005 Ry

     iteration # 14     ecut=    30.00 Ry     beta=0.70
     Davidson diagonalization with overlap
     ethr =  5.91E-10,  avg # of iterations =  1.0

     total cpu time spent up to now is        7.2 secs

     End of self-consistent calculation

          k = 0.0000 0.0000 0.0000 ( 22119 PWs)   bands (ev):

   -23.6415  -7.0473  -7.0470  -7.0468  -6.9635  -6.9224  -0.2426   0.5352

     the Fermi energy is    -6.9129 ev

!    total energy              =     -31.48992265 Ry
     Harris-Foulkes estimate   =     -31.48992263 Ry
     estimated scf accuracy    <          8.7E-10 Ry

     convergence has been achieved in  14 iterations

     Forces acting on atoms (Ry/au):

     atom    1 type  1   force =    -0.00056638    0.00066824   -0.00028927
     atom    2 type  1   force =    -0.00050864    0.00061421   -0.00026763
     atom    3 type  2   force =     0.00107503   -0.00128245    0.00055691

     Total force =     0.002161     Total SCF correction =     0.000032

     Entering Dynamics:    iteration =     5
                           time      =   0.0242 pico-seconds


     Andersen thermostat:    3 collisions

ATOMIC_POSITIONS (bohr)
H        7.617531410   8.005564466   8.654489602
H        9.980167429  16.261898405   6.422924415
O        0.307748168   4.926498124  20.018617770


     kinetic energy (Ekin) =     0.01924974 Ry
     temperature           =  1013.09681017 K 
     Ekin + Etot (const)   =   -31.47067291 Ry
     Message from routine dynamics:
     Total linear momentum <> 0

     Linear momentum :    0.2874315154    0.1929581050    0.5815753074

     Writing output data file pwscf.save

     second order wave-functions extrapolation
     Check: negative starting charge=   -0.352757
     second order charge density extrapolation
     Check: negative starting charge=   -0.353095

     negative rho (up, down):  4.643E-02 0.000E+00

     total cpu time spent up to now is        7.5 secs

     per-process dynamical memory:    20.4 Mb

     Self-consistent Calculation

     iteration #  1     ecut=    30.00 Ry     beta=0.70
     Davidson diagonalization with overlap
     ethr =  1.00E-06,  avg # of iterations = 14.0

     negative rho (up, down):  9.954E-03 0.000E+00

     total cpu time spent up to now is        7.6 secs

     total energy              =     -31.42840126 Ry
     Harris-Foulkes estimate   =     -31.44353572 Ry
     estimated scf accuracy    <       0.06303465 Ry

     iteration #  2     ecut=    30.00 Ry     beta=0.70
     Davidson diagonalization with overlap
     ethr =  7.88E-04,  avg # of iterations =  2.0

     negative rho (up, down):  8.979E-03 0.000E+00

     total cpu time spent up to now is        7.6 secs

     total energy              =     -31.50351623 Ry
     Harris-Foulkes estimate   =     -32.08507618 Ry
     estimated scf accuracy    <       4.63866284 Ry

     iteration #  3     ecut=    30.00 Ry     beta=0.70
     Davidson diagonalization with overlap
     ethr =  7.88E-04,  avg # of iterations =  2.0

     negative rho (up, down):  8.840E-03 0.000E+00

     total cpu time spent up to now is        7.7 secs

     total energy              =     -31.48895931 Ry
     Harris-Foulkes estimate   =     -31.51100832 Ry
     estimated scf accuracy    <       2.31536353 Ry

     iteration #  4     ecut=    30.00 Ry     beta=0.70
     Davidson diagonalization with overlap
     ethr =  7.88E-04,  avg # of iterations =  1.0

     negative rho (up, down):  7.770E-03 0.000E+00

     total cpu time spent up to now is        7.7 secs

     total energy              =     -31.44354449 Ry
     Harris-Foulkes estimate   =     -31.49329394 Ry
     estimated scf accuracy    <       1.36652838 Ry

     iteration #  5     ecut=    30.00 Ry     beta=0.70
     Davidson diagonalization with overlap
     ethr =  7.88E-04,  avg # of iterations =  1.0

     negative rho (up, down):  1.677E-03 0.000E+00

     total cpu time spent up to now is        7.7 secs

     total energy              =     -31.47400646 Ry
     Harris-Foulkes estimate   =     -31.49602653 Ry
     estimated scf accuracy    <       1.19012955 Ry

     iteration #  6     ecut=    30.00 Ry     beta=0.70
     Davidson diagonalization with overlap
     ethr =  7.88E-04,  avg # of iterations =  1.0

     negative rho (up, down):  3.278E-04 0.000E+00

     total cpu time spent up to now is        7.8 secs

     total energy              =     -31.48969559 Ry
     Harris-Foulkes estimate   =     -31.48926874 Ry
     estimated scf accuracy    <       0.02938325 Ry

     iteration #  7     ecut=    30.00 Ry     beta=0.70
     Davidson diagonalization with overlap
     ethr =  3.67E-04,  avg # of iterations =  3.0

     negative rho (up, down):  2.137E-05 0.000E+00

     total cpu time spent up to now is        7.8 secs

     total energy              =     -31.48988384 Ry
     Harris-Foulkes estimate   =     -31.48994266 Ry
     estimated scf accuracy    <       0.00021735 Ry

     iteration #  8     ecut=    30.00 Ry     beta=0.70
     Davidson diagonalization with overlap
     ethr =  2.72E-06,  avg # of iterations =  8.0

     total cpu time spent up to now is        7.9 secs

     total energy              =     -31.49002858 Ry
     Harris-Foulkes estimate   =     -31.49022431 Ry
     estimated scf accuracy    <       0.03196111 Ry

     iteration #  9     ecut=    30.00 Ry     beta=0.70
     Davidson diagonalization with overlap
     ethr =  2.72E-06,  avg # of iterations =  1.0

     total cpu time spent up to now is        7.9 secs

     total energy              =     -31.48981634 Ry
     Harris-Foulkes estimate   =     -31.49006619 Ry
     estimated scf accuracy    <       0.01354623 Ry

     iteration # 10     ecut=    30.00 Ry     beta=0.70
     Davidson diagonalization with overlap
     ethr =  2.72E-06,  avg # of iterations =  1.0

     total cpu time spent up to now is        7.9 secs

     total energy              =     -31.48994824 Ry
     Harris-Foulkes estimate   =     -31.48994378 Ry
     estimated scf accuracy    <       0.00001664 Ry

     iteration # 11     ecut=    30.00 Ry     beta=0.70
     Davidson diagonalization with overlap
     ethr =  2.08E-07,  avg # of iterations =  1.0

     total cpu time spent up to now is        8.0 secs

     total energy              =     -31.48987929 Ry
     Harris-Foulkes estimate   =     -31.49000439 Ry
     estimated scf accuracy    <       0.00682136 Ry

     iteration # 12     ecut=    30.00 Ry     beta=0.70
     Davidson diagonalization with overlap
     ethr =  2.08E-07,  avg # of iterations =  1.0

     total cpu time spent up to now is        8.0 secs

     total energy              =     -31.48994363 Ry
     Harris-Foulkes estimate   =     -31.48994359 Ry
     estimated scf accuracy    <       0.00000594 Ry

     iteration # 13     ecut=    30.00 Ry     beta=0.70
     Davidson diagonalization with overlap
     ethr =  7.42E-08,  avg # of iterations =  1.0

     total cpu time spent up to now is        8.0 secs

     total energy              =     -31.48994312 Ry
     Harris-Foulkes estimate   =     -31.48994369 Ry
     estimated scf accuracy    <       0.00002107 Ry

     iteration # 14     ecut=    30.00 Ry     beta=0.70
     Davidson diagonalization with overlap
     ethr =  7.42E-08,  avg # of iterations =  1.0

     total cpu time spent up to now is        8.1 secs

     total energy              =     -31.48994322 Ry
     Harris-Foulkes estimate   =     -31.48994323 Ry
     estimated scf accuracy    <       0.00000111 Ry

     iteration # 15     ecut=    30.00 Ry     beta=0.70
     Davidson diagonalization with overlap
     ethr =  1.39E-08,  avg # of iterations =  1.0

     total cpu time spent up to now is        8.2 secs

     total energy              =     -31.48994316 Ry
     Harris-Foulkes estimate   =     -31.48994323 Ry
     estimated scf accuracy    <       0.00000002 Ry

     iteration # 16     ecut=    30.00 Ry     beta=0.70
     Davidson diagonalization with overlap
     ethr =  2.79E-10,  avg # of iterations =  1.0

     total cpu time spent up to now is        8.2 secs

     End of self-consistent calculation

          k = 0.0000 0.0000 0.0000 ( 22119 PWs)   bands (ev):

   -23.6506  -7.0552  -7.0550  -7.0548  -6.9819  -6.9198  -0.2422   0.5471

     the Fermi energy is    -6.9210 ev

!    total energy              =     -31.48994312 Ry
     Harris-Foulkes estimate   =     -31.48994316 Ry
     estimated scf accuracy    <          8.5E-10 Ry

     convergence has been achieved in  16 iterations

     Forces acting on atoms (Ry/au):

     atom    1 type  1   force =    -0.00034778    0.00096562   -0.00033454
     atom    2 type  1   force =    -0.00041516    0.00051994   -0.00019133
     atom    3 type  2   force =     0.00076294   -0.00148556    0.00052587

     Total force =     0.002170     Total SCF correction =     0.000070

     Entering Dynamics:    iteration =     6
                           time      =   0.0290 pico-seconds


     Andersen thermostat:    3 collisions

ATOMIC_POSITIONS (bohr)
H        7.724555160   7.874622330   8.330158316
H       10.052164141  16.286876003   6.030803115
O        0.296447502   4.933187135  20.063843840


     kinetic energy (Ekin) =     0.01864133 Ry
     temperature           =   981.07645532 K 
     Ekin + Etot (const)   =   -31.47130179 Ry
     Message from routine dynamics:
     Total linear momentum <> 0

     Linear momentum :   -0.0980894836   -0.5243335956   -0.0691182722

     Writing output data file pwscf.save

     second order wave-functions extrapolation
     Check: negative starting charge=   -0.353095
     second order charge density extrapolation
     Check: negative starting charge=   -0.353039

     negative rho (up, down):  7.427E-02 0.000E+00

     total cpu time spent up to now is        8.5 secs

     per-process dynamical memory:    20.4 Mb

     Self-consistent Calculation

     iteration #  1     ecut=    30.00 Ry     beta=0.70
     Davidson diagonalization with overlap
     c_bands:  1 eigenvalues not converged
     ethr =  1.00E-06,  avg # of iterations = 20.0

     negative rho (up, down):  1.700E-02 0.000E+00

     total cpu time spent up to now is        8.6 secs

     total energy              =     -31.45725962 Ry
     Harris-Foulkes estimate   =     -31.42986656 Ry
     estimated scf accuracy    <       0.02089620 Ry

     iteration #  2     ecut=    30.00 Ry     beta=0.70
     Davidson diagonalization with overlap
     ethr =  2.61E-04,  avg # of iterations =  2.0

     negative rho (up, down):  1.605E-02 0.000E+00

     total cpu time spent up to now is        8.7 secs

     total energy              =     -31.46362795 Ry
     Harris-Foulkes estimate   =     -31.78868513 Ry
     estimated scf accuracy    <       4.16016444 Ry

     iteration #  3     ecut=    30.00 Ry     beta=0.70
     Davidson diagonalization with overlap
     ethr =  2.61E-04,  avg # of iterations =  2.0

     negative rho (up, down):  1.513E-02 0.000E+00

     total cpu time spent up to now is        8.7 secs

     total energy              =     -31.47459411 Ry
     Harris-Foulkes estimate   =     -31.47711276 Ry
     estimated scf accuracy    <       0.29482471 Ry

     iteration #  4     ecut=    30.00 Ry     beta=0.70
     Davidson diagonalization with overlap
     ethr =  2.61E-04,  avg # of iterations =  1.0

     negative rho (up, down):  4.762E-03 0.000E+00

     total cpu time spent up to now is        8.7 secs

     total energy              =     -31.47427984 Ry
     Harris-Foulkes estimate   =     -31.47704787 Ry
     estimated scf accuracy    <       0.14934616 Ry

     iteration #  5     ecut=    30.00 Ry     beta=0.70
     Davidson diagonalization with overlap
     ethr =  2.61E-04,  avg # of iterations =  1.0

     negative rho (up, down):  2.281E-03 0.000E+00

     total cpu time spent up to now is        8.8 secs

[...]
     Harris-Foulkes estimate   =    -145.68572397 Ry
     estimated scf accuracy    <       8.50163338 Ry

     iteration # 59     ecut=    30.00 Ry     beta=0.70
     Davidson diagonalization with overlap
     ethr =  1.00E-02,  avg # of iterations =  4.0

     negative rho (up, down):  6.542E-03 0.000E+00

     total cpu time spent up to now is       34.3 secs

     total energy              =      29.19307439 Ry
     Harris-Foulkes estimate   =    -192.86500622 Ry
     estimated scf accuracy    <       9.45100071 Ry

     iteration # 60     ecut=    30.00 Ry     beta=0.70
     Davidson diagonalization with overlap
     ethr =  1.00E-02,  avg # of iterations =  8.0

     negative rho (up, down):  4.747E-03 0.000E+00

     total cpu time spent up to now is       34.4 secs

     total energy              =      24.61504656 Ry
     Harris-Foulkes estimate   =     -79.15030701 Ry
     estimated scf accuracy    <      10.82437254 Ry

     iteration # 61     ecut=    30.00 Ry     beta=0.70
     Davidson diagonalization with overlap
     ethr =  1.00E-02,  avg # of iterations =  5.0

     negative rho (up, down):  7.952E-03 0.000E+00

     total cpu time spent up to now is       34.4 secs

     total energy              =     -70.63648202 Ry
     Harris-Foulkes estimate   =    -128.27784577 Ry
     estimated scf accuracy    <       9.40384263 Ry

     iteration # 62     ecut=    30.00 Ry     beta=0.70
     Davidson diagonalization with overlap
     ethr =  1.00E-02,  avg # of iterations =  7.0

     negative rho (up, down):  3.925E-03 0.000E+00

     total cpu time spent up to now is       34.5 secs

     total energy              =      -2.51094467 Ry
     Harris-Foulkes estimate   =    -113.28119303 Ry
     estimated scf accuracy    <       7.28203755 Ry

     iteration # 63     ecut=    30.00 Ry     beta=0.70
     Davidson diagonalization with overlap
     ethr =  1.00E-02,  avg # of iterations =  3.0

     negative rho (up, down):  1.752E-02 0.000E+00

     total cpu time spent up to now is       34.5 secs

     total energy              =     -38.50227249 Ry
     Harris-Foulkes estimate   =     -40.81298361 Ry
     estimated scf accuracy    <      15.02529959 Ry

     iteration # 64     ecut=    30.00 Ry     beta=0.70
     Davidson diagonalization with overlap
     ethr =  1.00E-02,  avg # of iterations =  4.0

     negative rho (up, down):  1.320E-02 0.000E+00

     total cpu time spent up to now is       34.5 secs

     total energy              =      -1.65004559 Ry
     Harris-Foulkes estimate   =    -199.82933418 Ry
     estimated scf accuracy    <       8.29906118 Ry

     iteration # 65     ecut=    30.00 Ry     beta=0.70
     Davidson diagonalization with overlap
     ethr =  1.00E-02,  avg # of iterations =  4.0

     negative rho (up, down):  5.836E-03 0.000E+00

     total cpu time spent up to now is       34.6 secs

     total energy              =     -36.98925799 Ry
     Harris-Foulkes estimate   =     -38.44067177 Ry
     estimated scf accuracy    <      11.99530865 Ry

     iteration # 66     ecut=    30.00 Ry     beta=0.70
     Davidson diagonalization with overlap
     ethr =  1.00E-02,  avg # of iterations =  1.0

     negative rho (up, down):  3.907E-02 0.000E+00

     total cpu time spent up to now is       34.6 secs

     total energy              =     -37.36064663 Ry
     Harris-Foulkes estimate   =     -37.00616086 Ry
     estimated scf accuracy    <      10.01284055 Ry

     iteration # 67     ecut=    30.00 Ry     beta=0.70
     Davidson diagonalization with overlap
     ethr =  1.00E-02,  avg # of iterations =  7.0

     negative rho (up, down):  7.474E-03 0.000E+00

     total cpu time spent up to now is       34.7 secs

     total energy              =     107.53428289 Ry
     Harris-Foulkes estimate   =   -1908.42713845 Ry
     estimated scf accuracy    <      60.92627611 Ry

     iteration # 68     ecut=    30.00 Ry     beta=0.70
     Davidson diagonalization with overlap
     ethr =  1.00E-02,  avg # of iterations = 13.0

     negative rho (up, down):  2.813E-02 0.000E+00

     total cpu time spent up to now is       34.7 secs

     total energy              =     -37.78552523 Ry
     Harris-Foulkes estimate   =     -36.67819197 Ry
     estimated scf accuracy    <       9.70742236 Ry

     iteration # 69     ecut=    30.00 Ry     beta=0.70
     Davidson diagonalization with overlap
     ethr =  1.00E-02,  avg # of iterations =  5.0

     negative rho (up, down):  1.185E-03 0.000E+00

     total cpu time spent up to now is       34.8 secs

     total energy              =     111.12721326 Ry
     Harris-Foulkes estimate   =   -1575.33169325 Ry
     estimated scf accuracy    <      54.65878169 Ry

     iteration # 70     ecut=    30.00 Ry     beta=0.70
     Davidson diagonalization with overlap
     ethr =  1.00E-02,  avg # of iterations =  8.0

     negative rho (up, down):  6.045E-03 0.000E+00

     total cpu time spent up to now is       34.8 secs

     total energy              =     -35.01022891 Ry
     Harris-Foulkes estimate   =     -35.44199469 Ry
     estimated scf accuracy    <       8.04913498 Ry

     iteration # 71     ecut=    30.00 Ry     beta=0.70
     Davidson diagonalization with overlap
     ethr =  1.00E-02,  avg # of iterations =  7.0

     negative rho (up, down):  5.829E-04 0.000E+00

     total cpu time spent up to now is       34.9 secs

     total energy              =     105.57786113 Ry
     Harris-Foulkes estimate   =    -607.25339372 Ry
     estimated scf accuracy    <      53.38319683 Ry

     iteration # 72     ecut=    30.00 Ry     beta=0.70
     Davidson diagonalization with overlap
     ethr =  1.00E-02,  avg # of iterations =  8.0

     negative rho (up, down):  3.580E-03 0.000E+00

     total cpu time spent up to now is       34.9 secs

     total energy              =     -34.06360619 Ry
     Harris-Foulkes estimate   =     -34.47065540 Ry
     estimated scf accuracy    <       6.76132742 Ry

     iteration # 73     ecut=    30.00 Ry     beta=0.70
     Davidson diagonalization with overlap
     ethr =  1.00E-02,  avg # of iterations =  1.0

     negative rho (up, down):  1.406E-02 0.000E+00

     total cpu time spent up to now is       35.0 secs

     total energy              =     -34.34462142 Ry
     Harris-Foulkes estimate   =     -34.06623437 Ry
     estimated scf accuracy    <       5.85477144 Ry

     iteration # 74     ecut=    30.00 Ry     beta=0.70
     Davidson diagonalization with overlap
     ethr =  1.00E-02,  avg # of iterations =  4.0

     negative rho (up, down):  1.003E-02 0.000E+00

     total cpu time spent up to now is       35.0 secs

     total energy              =     -10.51019613 Ry
     Harris-Foulkes estimate   =    -234.92967968 Ry
     estimated scf accuracy    <      10.02117278 Ry

     iteration # 75     ecut=    30.00 Ry     beta=0.70
     Davidson diagonalization with overlap
     ethr =  1.00E-02,  avg # of iterations =  6.0

     negative rho (up, down):  3.519E-03 0.000E+00

     total cpu time spent up to now is       35.1 secs

     total energy              =     -53.20736597 Ry
     Harris-Foulkes estimate   =     -63.05119478 Ry
     estimated scf accuracy    <       9.55808918 Ry

     iteration # 76     ecut=    30.00 Ry     beta=0.70
     Davidson diagonalization with overlap
     ethr =  1.00E-02,  avg # of iterations =  4.0

     negative rho (up, down):  3.371E-04 0.000E+00

     total cpu time spent up to now is       35.1 secs

     total energy              =      -1.71585433 Ry
     Harris-Foulkes estimate   =     -97.75548056 Ry
     estimated scf accuracy    <       8.86034158 Ry

     iteration # 77     ecut=    30.00 Ry     beta=0.70
     Davidson diagonalization with overlap
     ethr =  1.00E-02,  avg # of iterations =  4.0

     negative rho (up, down):  6.709E-03 0.000E+00

     total cpu time spent up to now is       35.1 secs

     total energy              =     -34.30632129 Ry
     Harris-Foulkes estimate   =     -34.47029633 Ry
     estimated scf accuracy    <       5.16205043 Ry

     iteration # 78     ecut=    30.00 Ry     beta=0.70
     Davidson diagonalization with overlap
     ethr =  1.00E-02,  avg # of iterations =  4.0

     negative rho (up, down):  9.495E-02 0.000E+00

     total cpu time spent up to now is       35.2 secs

     total energy              =     -50.54764049 Ry
     Harris-Foulkes estimate   =     -86.40582837 Ry
     estimated scf accuracy    <       8.87465352 Ry

     iteration # 79     ecut=    30.00 Ry     beta=0.70
     Davidson diagonalization with overlap
     ethr =  1.00E-02,  avg # of iterations =  3.0

     negative rho (up, down):  2.414E-01 0.000E+00

     total cpu time spent up to now is       35.2 secs

     total energy              =      -7.03468093 Ry
     Harris-Foulkes estimate   =     -77.79830035 Ry
     estimated scf accuracy    <       8.85979205 Ry

     iteration # 80     ecut=    30.00 Ry     beta=0.70
     Davidson diagonalization with overlap
     ethr =  1.00E-02,  avg # of iterations =  9.0

     negative rho (up, down):  1.690E-01 0.000E+00

     total cpu time spent up to now is       35.3 secs

     total energy              =      47.46675072 Ry
     Harris-Foulkes estimate   =    -162.67916207 Ry
     estimated scf accuracy    <      64.34355929 Ry

     iteration # 81     ecut=    30.00 Ry     beta=0.70
     Davidson diagonalization with overlap
     ethr =  1.00E-02,  avg # of iterations =  7.0

     negative rho (up, down):  1.208E-01 0.000E+00

     total cpu time spent up to now is       35.3 secs

     total energy              =     -43.29027080 Ry
     Harris-Foulkes estimate   =     -54.09800331 Ry
     estimated scf accuracy    <      20.20665825 Ry

     iteration # 82     ecut=    30.00 Ry     beta=0.70
     Davidson diagonalization with overlap
     ethr =  1.00E-02,  avg # of iterations =  6.0

     negative rho (up, down):  2.987E-01 0.000E+00

     total cpu time spent up to now is       35.4 secs

     total energy              =      22.10073449 Ry
     Harris-Foulkes estimate   =   -1032.97788351 Ry
     estimated scf accuracy    <      70.17429053 Ry

     iteration # 83     ecut=    30.00 Ry     beta=0.70
     Davidson diagonalization with overlap
     ethr =  1.00E-02,  avg # of iterations =  7.0

     negative rho (up, down):  4.479E-01 0.000E+00

     total cpu time spent up to now is       35.4 secs

     total energy              =      39.64583414 Ry
     Harris-Foulkes estimate   =    -294.66657902 Ry
     estimated scf accuracy    <      66.10696265 Ry

     iteration # 84     ecut=    30.00 Ry     beta=0.70
     Davidson diagonalization with overlap
     ethr =  1.00E-02,  avg # of iterations =  6.0

     negative rho (up, down):  4.801E-01 0.000E+00

     total cpu time spent up to now is       35.5 secs

     total energy              =    -408.31635321 Ry
     Harris-Foulkes estimate   =    -185.05033406 Ry
     estimated scf accuracy    <      63.01382723 Ry

     iteration # 85     ecut=    30.00 Ry     beta=0.70
     Davidson diagonalization with overlap
     ethr =  1.00E-02,  avg # of iterations =  8.0

     negative rho (up, down):  5.468E-01 0.000E+00

     total cpu time spent up to now is       35.5 secs

     total energy              =      75.85758866 Ry
     Harris-Foulkes estimate   =   -1076.37989981 Ry
     estimated scf accuracy    <      62.04251523 Ry

     iteration # 86     ecut=    30.00 Ry     beta=0.70
     Davidson diagonalization with overlap
     ethr =  1.00E-02,  avg # of iterations =  9.0

     negative rho (up, down):  6.046E-01 0.000E+00

     total cpu time spent up to now is       35.6 secs

     total energy              =    -699.40067665 Ry
     Harris-Foulkes estimate   =    -857.30054732 Ry
     estimated scf accuracy    <      56.61877717 Ry

     iteration # 87     ecut=    30.00 Ry     beta=0.70
     Davidson diagonalization with overlap
     ethr =  1.00E-02,  avg # of iterations =  6.0

     negative rho (up, down):  1.157E+00 0.000E+00

     total cpu time spent up to now is       35.7 secs

     total energy              =    -218.23283319 Ry
     Harris-Foulkes estimate   =   -2769.19167550 Ry
     estimated scf accuracy    <      51.97697175 Ry

     iteration # 88     ecut=    30.00 Ry     beta=0.70
     Davidson diagonalization with overlap
     ethr =  1.00E-02,  avg # of iterations =  5.0

     negative rho (up, down):  1.116E+00 0.000E+00

     total cpu time spent up to now is       35.7 secs

     total energy              =   -1420.88326080 Ry
     Harris-Foulkes estimate   =   -2707.04842341 Ry
     estimated scf accuracy    <      59.47985226 Ry

     iteration # 89     ecut=    30.00 Ry     beta=0.70
     Davidson diagonalization with overlap
     ethr =  1.00E-02,  avg # of iterations =  9.0

     negative rho (up, down):  1.691E+00 0.000E+00

     total cpu time spent up to now is       35.8 secs

     total energy              =       3.66357398 Ry
     Harris-Foulkes estimate   =   -4280.44313134 Ry
     estimated scf accuracy    <      35.84042823 Ry

     iteration # 90     ecut=    30.00 Ry     beta=0.70
     Davidson diagonalization with overlap
     ethr =  1.00E-02,  avg # of iterations =  8.0

     negative rho (up, down):  1.828E+00 0.000E+00

     total cpu time spent up to now is       35.8 secs

     total energy              =   -1250.16270701 Ry
     Harris-Foulkes estimate   =   -2287.48016362 Ry
     estimated scf accuracy    <      33.48825700 Ry

     iteration # 91     ecut=    30.00 Ry     beta=0.70
     Davidson diagonalization with overlap
     ethr =  1.00E-02,  avg # of iterations =  8.0

     negative rho (up, down):  9.620E-01 0.000E+00

     total cpu time spent up to now is       35.9 secs

     total energy              =    -278.69874762 Ry
     Harris-Foulkes estimate   =  -14340.19120639 Ry
     estimated scf accuracy    <      29.76128360 Ry

     iteration # 92     ecut=    30.00 Ry     beta=0.70
     Davidson diagonalization with overlap
     ethr =  1.00E-02,  avg # of iterations =  7.0

     negative rho (up, down):  1.080E+00 0.000E+00

     total cpu time spent up to now is       35.9 secs

     total energy              =     104.58056487 Ry
     Harris-Foulkes estimate   =  -11846.34038069 Ry
     estimated scf accuracy    <      22.27938102 Ry

     iteration # 93     ecut=    30.00 Ry     beta=0.70
     Davidson diagonalization with overlap
     ethr =  1.00E-02,  avg # of iterations =  7.0

     negative rho (up, down):  5.268E-01 0.000E+00

     total cpu time spent up to now is       36.0 secs

     total energy              =     124.25806624 Ry
     Harris-Foulkes estimate   =   -2365.46761606 Ry
     estimated scf accuracy    <      21.42647574 Ry

     iteration # 94     ecut=    30.00 Ry     beta=0.70
     Davidson diagonalization with overlap
     ethr =  1.00E-02,  avg # of iterations = 10.0

     negative rho (up, down):  2.350E-01 0.000E+00

     total cpu time spent up to now is       36.1 secs

     total energy              =     -23.07803538 Ry
     Harris-Foulkes estimate   =    -194.98034675 Ry
     estimated scf accuracy    <      50.77105430 Ry

     iteration # 95     ecut=    30.00 Ry     beta=0.70
     Davidson diagonalization with overlap
     ethr =  1.00E-02,  avg # of iterations =  7.0

     negative rho (up, down):  1.471E-01 0.000E+00

     total cpu time spent up to now is       36.1 secs

     total energy              =      39.60995472 Ry
     Harris-Foulkes estimate   =    -654.44346209 Ry
     estimated scf accuracy    <      18.25063684 Ry

     iteration # 96     ecut=    30.00 Ry     beta=0.70
     Davidson diagonalization with overlap
     ethr =  1.00E-02,  avg # of iterations =  6.0

     negative rho (up, down):  7.602E-02 0.000E+00

     total cpu time spent up to now is       36.2 secs

     total energy              =     -54.43215308 Ry
     Harris-Foulkes estimate   =     -85.13983244 Ry
     estimated scf accuracy    <      34.81803813 Ry

     iteration # 97     ecut=    30.00 Ry     beta=0.70
     Davidson diagonalization with overlap
     ethr =  1.00E-02,  avg # of iterations =  4.0

     negative rho (up, down):  6.701E-02 0.000E+00

     total cpu time spent up to now is       36.2 secs

     total energy              =      25.19124666 Ry
     Harris-Foulkes estimate   =    -213.66332545 Ry
     estimated scf accuracy    <      24.18747284 Ry

     iteration # 98     ecut=    30.00 Ry     beta=0.70
     Davidson diagonalization with overlap
     ethr =  1.00E-02,  avg # of iterations =  6.0

     negative rho (up, down):  1.472E-01 0.000E+00

     total cpu time spent up to now is       36.2 secs

     total energy              =    -114.94035968 Ry
     Harris-Foulkes estimate   =    -100.97154429 Ry
     estimated scf accuracy    <      18.19071996 Ry

     iteration # 99     ecut=    30.00 Ry     beta=0.70
     Davidson diagonalization with overlap
     ethr =  1.00E-02,  avg # of iterations =  7.0

     negative rho (up, down):  3.252E-01 0.000E+00

     total cpu time spent up to now is       36.3 secs

     total energy              =       5.80607546 Ry
     Harris-Foulkes estimate   =    -685.71105693 Ry
     estimated scf accuracy    <      21.13175769 Ry

     iteration #100     ecut=    30.00 Ry     beta=0.70
     Davidson diagonalization with overlap
     ethr =  1.00E-02,  avg # of iterations =  8.0

     negative rho (up, down):  3.140E-01 0.000E+00

     total cpu time spent up to now is       36.4 secs

     total energy              =    -316.49633222 Ry
     Harris-Foulkes estimate   =   -1824.54618542 Ry
     estimated scf accuracy    <      19.84489637 Ry

     End of self-consistent calculation

     convergence NOT achieved after 100 iterations: stopping

     Writing output data file pwscf.save
 
     init_run     :      0.10s CPU      0.12s WALL (       1 calls)
     electrons    :     21.55s CPU     28.57s WALL (      28 calls)
     update_pot   :      3.50s CPU      5.27s WALL (      27 calls)
     forces       :      0.69s CPU      0.73s WALL (      27 calls)

     Called by init_run:
     wfcinit      :      0.01s CPU      0.02s WALL (       1 calls)
     potinit      :      0.03s CPU      0.03s WALL (       1 calls)

     Called by electrons:
     c_bands      :      9.17s CPU      9.96s WALL (     647 calls)
     sum_band     :      1.93s CPU      2.05s WALL (     647 calls)
     v_of_rho     :      4.91s CPU      5.45s WALL (     675 calls)
     mix_rho      :      4.12s CPU      7.35s WALL (     647 calls)

     Called by c_bands:
     init_us_2    :      0.06s CPU      0.08s WALL (    1295 calls)
     cegterg      :      9.02s CPU      9.59s WALL (     647 calls)

     Called by sum_band:

     Called by *egterg:
     h_psi        :      7.59s CPU      8.01s WALL (    2788 calls)
     g_psi        :      0.07s CPU      0.07s WALL (    2140 calls)
     cdiaghg      :      0.53s CPU      0.56s WALL (    2760 calls)

     Called by h_psi:
     h_psi:pot    :      7.55s CPU      7.97s WALL (    2788 calls)
     h_psi:calbec :      0.11s CPU      0.23s WALL (    2788 calls)
     vloc_psi     :      7.40s CPU      7.71s WALL (    2788 calls)
     add_vuspsi   :      0.02s CPU      0.02s WALL (    2788 calls)

     General routines
     calbec       :      0.32s CPU      0.54s WALL (    2922 calls)
     fft          :      3.27s CPU      3.57s WALL (    7479 calls)
     fftw         :      7.89s CPU      8.27s WALL (   34586 calls)
     davcio       :      0.63s CPU      2.67s WALL (   10461 calls)
 
     Parallel routines
     fft_scatter  :      4.43s CPU      4.89s WALL (   42065 calls)
 
     PWSCF        :    26.57s CPU        36.44s WALL

 
   This run was terminated on:   2:10:13  11Feb2018            

=------------------------------------------------------------------------------=
   JOB DONE.
=------------------------------------------------------------------------------=
