
     Program PWSCF v.6.0 (svn rev. 13079) starts on 11Feb2018 at  2:10:30 

     This program is part of the open-source Quantum ESPRESSO suite
     for quantum simulation of materials; please cite
         "P. Giannozzi et al., J. Phys.:Condens. Matter 21 395502 (2009);
          URL http://www.quantum-espresso.org", 
     in publications or presentations arising from this work. More details at
     http://www.quantum-espresso.org/quote

     Parallel version (MPI), running on    28 processors
     R & G space division:  proc/nbgrp/npool/nimage =      28
     Reading input from inputs/water-1-md/456.in

     Current dimensions of program PWSCF are:
     Max number of different atomic species (ntypx) = 10
     Max number of k-points (npk) =  40000
     Max angular momentum in pseudopotentials (lmaxx) =  3

     Subspace diagonalization in iterative solution of the eigenvalue problem:
     a serial algorithm will be used

 
     Parallelization info
     --------------------
     sticks:   dense  smooth     PW     G-vecs:    dense   smooth      PW
     Min         136     136     33                 6338     6338     787
     Max         137     137     34                 6341     6341     792
     Sum        3809    3809    949               177509   177509   22119
 


     bravais-lattice index     =            1
     lattice parameter (alat)  =      20.0000  a.u.
     unit-cell volume          =    8000.0000 (a.u.)^3
     number of atoms/cell      =            3
     number of atomic types    =            2
     number of electrons       =         8.00
     number of Kohn-Sham states=            8
     kinetic-energy cutoff     =      30.0000  Ry
     charge density cutoff     =     120.0000  Ry
     convergence threshold     =      1.0E-08
     mixing beta               =       0.7000
     number of iterations used =            8  plain     mixing
     Exchange-correlation      = BLYP ( 1  3  1  3 0 0)
     nstep                     =         5000


     celldm(1)=  20.000000  celldm(2)=   0.000000  celldm(3)=   0.000000
     celldm(4)=   0.000000  celldm(5)=   0.000000  celldm(6)=   0.000000

     crystal axes: (cart. coord. in units of alat)
               a(1) = (   1.000000   0.000000   0.000000 )  
               a(2) = (   0.000000   1.000000   0.000000 )  
               a(3) = (   0.000000   0.000000   1.000000 )  

     reciprocal axes: (cart. coord. in units 2 pi/alat)
               b(1) = (  1.000000  0.000000  0.000000 )  
               b(2) = (  0.000000  1.000000  0.000000 )  
               b(3) = (  0.000000  0.000000  1.000000 )  


     PseudoPot. # 1 for  H read from file:
     ./H.blyp-hgh.UPF
     MD5 check sum: c576e69559cde411e611be972c763230
     Pseudo is Norm-conserving, Zval =  1.0
     Generated in analytical, separable form
     Using radial grid of  929 points,  0 beta functions with: 

     PseudoPot. # 2 for  O read from file:
     ./O.blyp-hgh.UPF
     MD5 check sum: d0b7156309aa9befef28faac7bc56342
     Pseudo is Norm-conserving, Zval =  6.0
     Generated in analytical, separable form
     Using radial grid of 1095 points,  1 beta functions with: 
                l(1) =   0

     atomic species   valence    mass     pseudopotential
        H              1.00     1.01000      H( 1.00)
        O              6.00    16.00000      O( 1.00)

     No symmetry found



   Cartesian axes

     site n.     atom                  positions (alat units)
         1           H   tau(   1) = (   0.6788678   0.6406141   0.2946739  )
         2           H   tau(   2) = (   0.1918858   0.6463631   0.9975965  )
         3           O   tau(   3) = (   0.2122454   0.5298321   0.5846962  )

     number of k points=     1  Marzari-Vanderbilt smearing, width (Ry)=  0.0250
                       cart. coord. in units 2pi/alat
        k(    1) = (   0.0000000   0.0000000   0.0000000), wk =   2.0000000

     Dense  grid:   177509 G-vectors     FFT dimensions: (  72,  72,  72)

     Estimated max dynamical RAM per process >       6.09Mb

     Estimated total allocated dynamical RAM >     170.64Mb

     Initial potential from superposition of free atoms
     Check: negative starting charge=   -0.345188

     starting charge    7.99998, renormalised to    8.00000

     negative rho (up, down):  3.452E-01 0.000E+00
     Starting wfc are    6 randomized atomic wfcs +    2 random wfc

     total cpu time spent up to now is        0.3 secs

     per-process dynamical memory:    18.8 Mb

     Self-consistent Calculation

     iteration #  1     ecut=    30.00 Ry     beta=0.70
     Davidson diagonalization with overlap
     ethr =  1.00E-02,  avg # of iterations =  7.0

     negative rho (up, down):  8.268E-02 0.000E+00

     total cpu time spent up to now is        0.4 secs

     total energy              =     -28.15157709 Ry
     Harris-Foulkes estimate   =     -32.07277216 Ry
     estimated scf accuracy    <       4.51290521 Ry

     iteration #  2     ecut=    30.00 Ry     beta=0.70
     Davidson diagonalization with overlap
     ethr =  1.00E-02,  avg # of iterations =  4.0

     negative rho (up, down):  6.056E-02 0.000E+00

     total cpu time spent up to now is        0.5 secs

     total energy              =     -32.60738439 Ry
     Harris-Foulkes estimate   =     -37.80107209 Ry
     estimated scf accuracy    <      12.67773646 Ry

     iteration #  3     ecut=    30.00 Ry     beta=0.70
     Davidson diagonalization with overlap
     ethr =  1.00E-02,  avg # of iterations =  5.0

     negative rho (up, down):  6.249E-02 0.000E+00

     total cpu time spent up to now is        0.5 secs

     total energy              =     -33.14845540 Ry
     Harris-Foulkes estimate   =     -32.94644388 Ry
     estimated scf accuracy    <       4.87256362 Ry

     iteration #  4     ecut=    30.00 Ry     beta=0.70
     Davidson diagonalization with overlap
     ethr =  1.00E-02,  avg # of iterations =  1.0

     negative rho (up, down):  2.479E-02 0.000E+00

     total cpu time spent up to now is        0.6 secs

     total energy              =     -30.23748774 Ry
     Harris-Foulkes estimate   =     -33.14902673 Ry
     estimated scf accuracy    <       5.17320226 Ry

     iteration #  5     ecut=    30.00 Ry     beta=0.70
     Davidson diagonalization with overlap
     ethr =  1.00E-02,  avg # of iterations =  6.0

     negative rho (up, down):  2.266E-02 0.000E+00

     total cpu time spent up to now is        0.6 secs

     total energy              =     -33.19477483 Ry
     Harris-Foulkes estimate   =     -33.23447912 Ry
     estimated scf accuracy    <      13.43349949 Ry

     iteration #  6     ecut=    30.00 Ry     beta=0.70
     Davidson diagonalization with overlap
     ethr =  1.00E-02,  avg # of iterations =  1.0

     negative rho (up, down):  4.822E-02 0.000E+00

     total cpu time spent up to now is        0.7 secs

     total energy              =     -33.04118057 Ry
     Harris-Foulkes estimate   =     -33.19852093 Ry
     estimated scf accuracy    <      13.17649387 Ry

     iteration #  7     ecut=    30.00 Ry     beta=0.70
     Davidson diagonalization with overlap
     ethr =  1.00E-02,  avg # of iterations =  1.0

     negative rho (up, down):  1.977E-02 0.000E+00

     total cpu time spent up to now is        0.7 secs

     total energy              =     -32.46478569 Ry
     Harris-Foulkes estimate   =     -33.06265052 Ry
     estimated scf accuracy    <       8.90922436 Ry

     iteration #  8     ecut=    30.00 Ry     beta=0.70
     Davidson diagonalization with overlap
     ethr =  1.00E-02,  avg # of iterations =  2.0

     negative rho (up, down):  5.998E-04 0.000E+00

     total cpu time spent up to now is        0.8 secs

     total energy              =     -32.16375166 Ry
     Harris-Foulkes estimate   =     -32.58066108 Ry
     estimated scf accuracy    <       5.33224648 Ry

     iteration #  9     ecut=    30.00 Ry     beta=0.70
     Davidson diagonalization with overlap
     ethr =  1.00E-02,  avg # of iterations =  1.0

     negative rho (up, down):  1.534E-02 0.000E+00

     total cpu time spent up to now is        0.8 secs

     total energy              =     -31.68823263 Ry
     Harris-Foulkes estimate   =     -32.16956042 Ry
     estimated scf accuracy    <       4.62955962 Ry

     iteration # 10     ecut=    30.00 Ry     beta=0.70
     Davidson diagonalization with overlap
     ethr =  1.00E-02,  avg # of iterations =  1.0

     negative rho (up, down):  1.820E-02 0.000E+00

     total cpu time spent up to now is        0.9 secs

     total energy              =     -31.65071406 Ry
     Harris-Foulkes estimate   =     -31.69616709 Ry
     estimated scf accuracy    <       3.85188634 Ry

     iteration # 11     ecut=    30.00 Ry     beta=0.70
     Davidson diagonalization with overlap
     ethr =  1.00E-02,  avg # of iterations =  1.0

     negative rho (up, down):  1.301E-03 0.000E+00

     total cpu time spent up to now is        1.0 secs

     total energy              =     -31.80318929 Ry
     Harris-Foulkes estimate   =     -31.65149128 Ry
     estimated scf accuracy    <       3.79693232 Ry

     iteration # 12     ecut=    30.00 Ry     beta=0.70
     Davidson diagonalization with overlap
     ethr =  1.00E-02,  avg # of iterations =  1.0

     negative rho (up, down):  1.008E-02 0.000E+00

     total cpu time spent up to now is        1.0 secs

     total energy              =     -32.16003761 Ry
     Harris-Foulkes estimate   =     -31.80376438 Ry
     estimated scf accuracy    <       4.01145039 Ry

     iteration # 13     ecut=    30.00 Ry     beta=0.70
     Davidson diagonalization with overlap
     ethr =  1.00E-02,  avg # of iterations =  1.0

     negative rho (up, down):  7.083E-01 0.000E+00

     total cpu time spent up to now is        1.0 secs

     total energy              =     -28.85722400 Ry
     Harris-Foulkes estimate   =     -32.16610629 Ry
     estimated scf accuracy    <       4.65940386 Ry

     iteration # 14     ecut=    30.00 Ry     beta=0.70
     Davidson diagonalization with overlap
     ethr =  1.00E-02,  avg # of iterations =  4.0

     negative rho (up, down):  2.634E-02 0.000E+00

     total cpu time spent up to now is        1.1 secs

     total energy              =     -32.67935553 Ry
     Harris-Foulkes estimate   =     -35.66414191 Ry
     estimated scf accuracy    <       8.83669798 Ry

     iteration # 15     ecut=    30.00 Ry     beta=0.70
     Davidson diagonalization with overlap
     ethr =  1.00E-02,  avg # of iterations =  3.0

     total cpu time spent up to now is        1.1 secs

     total energy              =     -31.65459436 Ry
     Harris-Foulkes estimate   =     -32.77280926 Ry
     estimated scf accuracy    <       4.57032340 Ry

     iteration # 16     ecut=    30.00 Ry     beta=0.70
     Davidson diagonalization with overlap
     ethr =  1.00E-02,  avg # of iterations =  1.0

     negative rho (up, down):  9.242E-04 0.000E+00

     total cpu time spent up to now is        1.1 secs

     total energy              =     -31.67058337 Ry
     Harris-Foulkes estimate   =     -31.67098755 Ry
     estimated scf accuracy    <       2.82247013 Ry

     iteration # 17     ecut=    30.00 Ry     beta=0.70
     Davidson diagonalization with overlap
     ethr =  1.00E-02,  avg # of iterations =  1.0

     negative rho (up, down):  1.881E-03 0.000E+00

     total cpu time spent up to now is        1.2 secs

     total energy              =     -31.60139713 Ry
     Harris-Foulkes estimate   =     -31.67106514 Ry
     estimated scf accuracy    <       2.83738052 Ry

     iteration # 18     ecut=    30.00 Ry     beta=0.70
     Davidson diagonalization with overlap
     ethr =  1.00E-02,  avg # of iterations =  1.0

     negative rho (up, down):  1.181E-03 0.000E+00

     total cpu time spent up to now is        1.2 secs

     total energy              =     -31.55782505 Ry
     Harris-Foulkes estimate   =     -31.60163913 Ry
     estimated scf accuracy    <       2.71760091 Ry

     iteration # 19     ecut=    30.00 Ry     beta=0.70
     Davidson diagonalization with overlap
     ethr =  1.00E-02,  avg # of iterations =  3.0

     negative rho (up, down):  9.006E-04 0.000E+00

     total cpu time spent up to now is        1.2 secs

     total energy              =     -31.60092856 Ry
     Harris-Foulkes estimate   =     -31.55800350 Ry
     estimated scf accuracy    <       2.60505561 Ry

     iteration # 20     ecut=    30.00 Ry     beta=0.70
     Davidson diagonalization with overlap
     ethr =  1.00E-02,  avg # of iterations =  1.0

     negative rho (up, down):  2.345E-03 0.000E+00

     total cpu time spent up to now is        1.3 secs

     total energy              =     -31.41054763 Ry
     Harris-Foulkes estimate   =     -31.60126336 Ry
     estimated scf accuracy    <       2.71744320 Ry

     iteration # 21     ecut=    30.00 Ry     beta=0.70
     Davidson diagonalization with overlap
     ethr =  1.00E-02,  avg # of iterations =  1.0

     negative rho (up, down):  2.052E-03 0.000E+00

     total cpu time spent up to now is        1.3 secs

     total energy              =     -31.54990662 Ry
     Harris-Foulkes estimate   =     -31.51664762 Ry
     estimated scf accuracy    <       2.40165448 Ry

     iteration # 22     ecut=    30.00 Ry     beta=0.70
     Davidson diagonalization with overlap
     ethr =  1.00E-02,  avg # of iterations =  1.0

     negative rho (up, down):  3.778E-03 0.000E+00

     total cpu time spent up to now is        1.3 secs

     total energy              =     -31.02018992 Ry
     Harris-Foulkes estimate   =     -31.55899308 Ry
     estimated scf accuracy    <       4.67439961 Ry

     iteration # 23     ecut=    30.00 Ry     beta=0.70
     Davidson diagonalization with overlap
     ethr =  1.00E-02,  avg # of iterations =  1.0

     negative rho (up, down):  2.147E-03 0.000E+00

     total cpu time spent up to now is        1.4 secs

     total energy              =     -31.81461875 Ry
     Harris-Foulkes estimate   =     -31.80315108 Ry
     estimated scf accuracy    <       3.05424493 Ry

     iteration # 24     ecut=    30.00 Ry     beta=0.70
     Davidson diagonalization with overlap
     ethr =  1.00E-02,  avg # of iterations =  1.0

     negative rho (up, down):  5.895E-04 0.000E+00

     total cpu time spent up to now is        1.4 secs

     total energy              =     -31.80648533 Ry
     Harris-Foulkes estimate   =     -31.81482902 Ry
     estimated scf accuracy    <       3.07246544 Ry

     iteration # 25     ecut=    30.00 Ry     beta=0.70
     Davidson diagonalization with overlap
     ethr =  1.00E-02,  avg # of iterations =  1.0

     negative rho (up, down):  2.357E-04 0.000E+00

     total cpu time spent up to now is        1.4 secs

     total energy              =     -31.73167076 Ry
     Harris-Foulkes estimate   =     -31.80649150 Ry
     estimated scf accuracy    <       3.06582318 Ry

     iteration # 26     ecut=    30.00 Ry     beta=0.70
     Davidson diagonalization with overlap
     ethr =  1.00E-02,  avg # of iterations =  1.0

     negative rho (up, down):  2.481E-04 0.000E+00

     total cpu time spent up to now is        1.5 secs

     total energy              =     -31.63153654 Ry
     Harris-Foulkes estimate   =     -31.73180565 Ry
     estimated scf accuracy    <       2.94869476 Ry

     iteration # 27     ecut=    30.00 Ry     beta=0.70
     Davidson diagonalization with overlap
     ethr =  1.00E-02,  avg # of iterations =  1.0

     negative rho (up, down):  2.565E-04 0.000E+00

     total cpu time spent up to now is        1.5 secs

     total energy              =     -31.59274986 Ry
     Harris-Foulkes estimate   =     -31.63185702 Ry
     estimated scf accuracy    <       2.78300488 Ry

     iteration # 28     ecut=    30.00 Ry     beta=0.70
     Davidson diagonalization with overlap
     ethr =  1.00E-02,  avg # of iterations =  1.0

     negative rho (up, down):  1.349E-04 0.000E+00

     total cpu time spent up to now is        1.5 secs

     total energy              =     -31.47096850 Ry
     Harris-Foulkes estimate   =     -31.59280905 Ry
     estimated scf accuracy    <       2.71578243 Ry

     iteration # 29     ecut=    30.00 Ry     beta=0.70
     Davidson diagonalization with overlap
     ethr =  1.00E-02,  avg # of iterations =  1.0

     negative rho (up, down):  4.602E-04 0.000E+00

     total cpu time spent up to now is        1.6 secs

     total energy              =     -31.43197735 Ry
     Harris-Foulkes estimate   =     -31.49475280 Ry
     estimated scf accuracy    <       0.21948813 Ry

     iteration # 30     ecut=    30.00 Ry     beta=0.70
     Davidson diagonalization with overlap
     ethr =  2.74E-03,  avg # of iterations =  1.0

     negative rho (up, down):  3.633E-06 0.000E+00

     total cpu time spent up to now is        1.6 secs

     total energy              =     -31.45450383 Ry
     Harris-Foulkes estimate   =     -31.96280201 Ry
     estimated scf accuracy    <       4.23355608 Ry

     iteration # 31     ecut=    30.00 Ry     beta=0.70
     Davidson diagonalization with overlap
     ethr =  2.74E-03,  avg # of iterations =  1.0

     negative rho (up, down):  4.295E-04 0.000E+00

     total cpu time spent up to now is        1.6 secs

     total energy              =     -31.58659974 Ry
     Harris-Foulkes estimate   =     -31.49270794 Ry
     estimated scf accuracy    <       0.09938351 Ry

     iteration # 32     ecut=    30.00 Ry     beta=0.70
     Davidson diagonalization with overlap
     ethr =  1.24E-03,  avg # of iterations =  2.0

     negative rho (up, down):  1.287E-05 0.000E+00

     total cpu time spent up to now is        1.7 secs

     total energy              =     -31.89219887 Ry
     Harris-Foulkes estimate   =     -32.17858886 Ry
     estimated scf accuracy    <       3.63855089 Ry

     iteration # 33     ecut=    30.00 Ry     beta=0.70
     Davidson diagonalization with overlap
     ethr =  1.24E-03,  avg # of iterations =  1.0

     negative rho (up, down):  2.996E-06 0.000E+00

     total cpu time spent up to now is        1.7 secs

     total energy              =     -31.71166680 Ry
     Harris-Foulkes estimate   =     -31.89383913 Ry
     estimated scf accuracy    <       3.20126230 Ry

     iteration # 34     ecut=    30.00 Ry     beta=0.70
     Davidson diagonalization with overlap
     ethr =  1.24E-03,  avg # of iterations =  1.0

     negative rho (up, down):  9.395E-08 0.000E+00

     total cpu time spent up to now is        1.7 secs

     total energy              =     -31.55595437 Ry
     Harris-Foulkes estimate   =     -31.71259589 Ry
     estimated scf accuracy    <       2.90715608 Ry

     iteration # 35     ecut=    30.00 Ry     beta=0.70
     Davidson diagonalization with overlap
     ethr =  1.24E-03,  avg # of iterations =  1.0

     negative rho (up, down):  6.896E-08 0.000E+00

     total cpu time spent up to now is        1.8 secs

     total energy              =     -31.79392407 Ry
     Harris-Foulkes estimate   =     -31.55689869 Ry
     estimated scf accuracy    <       2.56733593 Ry

     iteration # 36     ecut=    30.00 Ry     beta=0.70
     Davidson diagonalization with overlap
     ethr =  1.24E-03,  avg # of iterations =  1.0

     negative rho (up, down):  3.713E-04 0.000E+00

     total cpu time spent up to now is        1.8 secs

     total energy              =     -32.49346457 Ry
     Harris-Foulkes estimate   =     -31.79933230 Ry
     estimated scf accuracy    <       3.03565215 Ry

     iteration # 37     ecut=    30.00 Ry     beta=0.70
     Davidson diagonalization with overlap
     ethr =  1.24E-03,  avg # of iterations =  2.0

     negative rho (up, down):  2.387E-07 0.000E+00

     total cpu time spent up to now is        1.8 secs

     total energy              =     -31.77586082 Ry
     Harris-Foulkes estimate   =     -32.51609674 Ry
     estimated scf accuracy    <       4.12341415 Ry

     iteration # 38     ecut=    30.00 Ry     beta=0.70
     Davidson diagonalization with overlap
     ethr =  1.24E-03,  avg # of iterations =  2.0

     negative rho (up, down):  4.988E-05 0.000E+00

     total cpu time spent up to now is        1.9 secs

     total energy              =     -30.19728628 Ry
     Harris-Foulkes estimate   =     -31.77314929 Ry
     estimated scf accuracy    <       3.00414665 Ry

     iteration # 39     ecut=    30.00 Ry     beta=0.70
     Davidson diagonalization with overlap
     ethr =  1.24E-03,  avg # of iterations =  5.0

     negative rho (up, down):  1.261E+00 0.000E+00

     total cpu time spent up to now is        1.9 secs

     total energy              =     -45.48604136 Ry
     Harris-Foulkes estimate   =     -33.76398726 Ry
     estimated scf accuracy    <      14.82480998 Ry

     iteration # 40     ecut=    30.00 Ry     beta=0.70
     Davidson diagonalization with overlap
     ethr =  1.24E-03,  avg # of iterations = 12.0

     negative rho (up, down):  2.580E-01 0.000E+00

     total cpu time spent up to now is        2.0 secs

     total energy              =     -37.43137052 Ry
     Harris-Foulkes estimate   =     -47.54124795 Ry
     estimated scf accuracy    <      53.12119085 Ry

     iteration # 41     ecut=    30.00 Ry     beta=0.70
     Davidson diagonalization with overlap
     ethr =  1.24E-03,  avg # of iterations =  8.0

     negative rho (up, down):  2.567E-01 0.000E+00

     total cpu time spent up to now is        2.0 secs

     total energy              =     -38.48819031 Ry
     Harris-Foulkes estimate   =     -38.39430974 Ry
     estimated scf accuracy    <      22.35784068 Ry

     iteration # 42     ecut=    30.00 Ry     beta=0.70
     Davidson diagonalization with overlap
     ethr =  1.24E-03,  avg # of iterations =  2.0

     negative rho (up, down):  2.062E-01 0.000E+00

     total cpu time spent up to now is        2.1 secs

     total energy              =     -38.15132845 Ry
     Harris-Foulkes estimate   =     -38.50955461 Ry
     estimated scf accuracy    <      22.41084595 Ry

     iteration # 43     ecut=    30.00 Ry     beta=0.70
     Davidson diagonalization with overlap
     ethr =  1.24E-03,  avg # of iterations =  3.0

     negative rho (up, down):  1.693E-01 0.000E+00

     total cpu time spent up to now is        2.1 secs

     total energy              =     -37.89413109 Ry
     Harris-Foulkes estimate   =     -38.17700552 Ry
     estimated scf accuracy    <      21.54414369 Ry

     iteration # 44     ecut=    30.00 Ry     beta=0.70
     Davidson diagonalization with overlap
     ethr =  1.24E-03,  avg # of iterations =  2.0

     negative rho (up, down):  1.292E-01 0.000E+00

     total cpu time spent up to now is        2.1 secs

     total energy              =     -37.22669512 Ry
     Harris-Foulkes estimate   =     -37.90401867 Ry
     estimated scf accuracy    <      21.17595990 Ry

     iteration # 45     ecut=    30.00 Ry     beta=0.70
     Davidson diagonalization with overlap
     ethr =  1.24E-03,  avg # of iterations =  4.0

     negative rho (up, down):  1.448E-01 0.000E+00

     total cpu time spent up to now is        2.2 secs

     total energy              =     -37.38770884 Ry
     Harris-Foulkes estimate   =     -37.24909718 Ry
     estimated scf accuracy    <      20.33491429 Ry

     iteration # 46     ecut=    30.00 Ry     beta=0.70
     Davidson diagonalization with overlap
     ethr =  1.24E-03,  avg # of iterations =  1.0

     negative rho (up, down):  8.116E-03 0.000E+00

     total cpu time spent up to now is        2.2 secs

     total energy              =     -31.59380521 Ry
     Harris-Foulkes estimate   =     -37.38850378 Ry
     estimated scf accuracy    <      20.52959897 Ry

     iteration # 47     ecut=    30.00 Ry     beta=0.70
     Davidson diagonalization with overlap
     ethr =  1.24E-03,  avg # of iterations = 10.0

     negative rho (up, down):  5.000E-01 0.000E+00

     total cpu time spent up to now is        2.3 secs

     total energy              =     -29.76665936 Ry
     Harris-Foulkes estimate   =     -32.26336236 Ry
     estimated scf accuracy    <       4.83786147 Ry

     iteration # 48     ecut=    30.00 Ry     beta=0.70
     Davidson diagonalization with overlap
     ethr =  1.24E-03,  avg # of iterations =  6.0

     negative rho (up, down):  7.338E-02 0.000E+00

     total cpu time spent up to now is        2.3 secs

     total energy              =     -31.96967089 Ry
     Harris-Foulkes estimate   =     -33.37073543 Ry
     estimated scf accuracy    <       5.64742507 Ry

     iteration # 49     ecut=    30.00 Ry     beta=0.70
     Davidson diagonalization with overlap
     ethr =  1.24E-03,  avg # of iterations =  2.0

     negative rho (up, down):  1.195E-02 0.000E+00

     total cpu time spent up to now is        2.3 secs

     total energy              =     -31.31090791 Ry
     Harris-Foulkes estimate   =     -32.00207404 Ry
     estimated scf accuracy    <       3.37394593 Ry

     iteration # 50     ecut=    30.00 Ry     beta=0.70
     Davidson diagonalization with overlap
     ethr =  1.24E-03,  avg # of iterations =  3.0

     negative rho (up, down):  1.117E-02 0.000E+00

     total cpu time spent up to now is        2.4 secs

     total energy              =     -31.62216011 Ry
     Harris-Foulkes estimate   =     -31.62154640 Ry
     estimated scf accuracy    <       3.91984269 Ry

     iteration # 51     ecut=    30.00 Ry     beta=0.70
     Davidson diagonalization with overlap
     ethr =  1.24E-03,  avg # of iterations =  1.0

     negative rho (up, down):  7.029E-03 0.000E+00

     total cpu time spent up to now is        2.4 secs

     total energy              =     -31.61052189 Ry
     Harris-Foulkes estimate   =     -31.62228874 Ry
     estimated scf accuracy    <       3.91062759 Ry

     iteration # 52     ecut=    30.00 Ry     beta=0.70
     Davidson diagonalization with overlap
     ethr =  1.24E-03,  avg # of iterations =  1.0

     negative rho (up, down):  8.624E-04 0.000E+00

     total cpu time spent up to now is        2.5 secs

     total energy              =     -31.57565121 Ry
     Harris-Foulkes estimate   =     -31.61052659 Ry
     estimated scf accuracy    <       4.03412091 Ry

     iteration # 53     ecut=    30.00 Ry     beta=0.70
     Davidson diagonalization with overlap
     ethr =  1.24E-03,  avg # of iterations =  1.0

     negative rho (up, down):  3.439E-04 0.000E+00

     total cpu time spent up to now is        2.5 secs

     total energy              =     -31.53708771 Ry
     Harris-Foulkes estimate   =     -31.57420298 Ry
     estimated scf accuracy    <       4.60729286 Ry

     iteration # 54     ecut=    30.00 Ry     beta=0.70
     Davidson diagonalization with overlap
     ethr =  1.24E-03,  avg # of iterations =  1.0

     negative rho (up, down):  3.010E-07 0.000E+00

     total cpu time spent up to now is        2.5 secs

     total energy              =     -31.51731238 Ry
     Harris-Foulkes estimate   =     -31.53929040 Ry
     estimated scf accuracy    <       3.46638946 Ry

     iteration # 55     ecut=    30.00 Ry     beta=0.70
     Davidson diagonalization with overlap
     ethr =  1.24E-03,  avg # of iterations =  1.0

     negative rho (up, down):  4.066E-03 0.000E+00

     total cpu time spent up to now is        2.6 secs

     total energy              =     -31.35089274 Ry
     Harris-Foulkes estimate   =     -31.52256041 Ry
     estimated scf accuracy    <       1.86826922 Ry

     iteration # 56     ecut=    30.00 Ry     beta=0.70
     Davidson diagonalization with overlap
     ethr =  1.24E-03,  avg # of iterations =  1.0

     negative rho (up, down):  2.215E-03 0.000E+00

     total cpu time spent up to now is        2.6 secs

     total energy              =     -31.50137933 Ry
     Harris-Foulkes estimate   =     -31.63952385 Ry
     estimated scf accuracy    <       2.77978671 Ry

     iteration # 57     ecut=    30.00 Ry     beta=0.70
     Davidson diagonalization with overlap
     ethr =  1.24E-03,  avg # of iterations =  1.0

     total cpu time spent up to now is        2.6 secs

     total energy              =     -31.43310217 Ry
     Harris-Foulkes estimate   =     -31.50916612 Ry
     estimated scf accuracy    <       1.17920503 Ry

     iteration # 58     ecut=    30.00 Ry     beta=0.70
     Davidson diagonalization with overlap
     ethr =  1.24E-03,  avg # of iterations =  1.0

     negative rho (up, down):  6.242E-05 0.000E+00

     total cpu time spent up to now is        2.7 secs

     total energy              =     -31.44662315 Ry
     Harris-Foulkes estimate   =     -31.54195253 Ry
     estimated scf accuracy    <       4.13955383 Ry

     iteration # 59     ecut=    30.00 Ry     beta=0.70
     Davidson diagonalization with overlap
     ethr =  1.24E-03,  avg # of iterations =  1.0

     negative rho (up, down):  1.721E-05 0.000E+00

     total cpu time spent up to now is        2.7 secs

     total energy              =     -31.49007974 Ry
     Harris-Foulkes estimate   =     -31.49227114 Ry
     estimated scf accuracy    <       0.06610965 Ry

     iteration # 60     ecut=    30.00 Ry     beta=0.70
     Davidson diagonalization with overlap
     ethr =  8.26E-04,  avg # of iterations =  1.0

     negative rho (up, down):  3.499E-05 0.000E+00

     total cpu time spent up to now is        2.7 secs

     total energy              =     -31.49297257 Ry
     Harris-Foulkes estimate   =     -31.49182279 Ry
     estimated scf accuracy    <       0.07080904 Ry

     iteration # 61     ecut=    30.00 Ry     beta=0.70
     Davidson diagonalization with overlap
     ethr =  8.26E-04,  avg # of iterations =  1.0

     negative rho (up, down):  2.548E-05 0.000E+00

     total cpu time spent up to now is        2.8 secs

     total energy              =     -31.49041276 Ry
     Harris-Foulkes estimate   =     -31.49433699 Ry
     estimated scf accuracy    <       0.34662469 Ry

     iteration # 62     ecut=    30.00 Ry     beta=0.70
     Davidson diagonalization with overlap
     ethr =  8.26E-04,  avg # of iterations =  1.0

     negative rho (up, down):  9.735E-07 0.000E+00

     total cpu time spent up to now is        2.8 secs

     total energy              =     -31.49004947 Ry
     Harris-Foulkes estimate   =     -31.49185923 Ry
     estimated scf accuracy    <       0.06016637 Ry

     iteration # 63     ecut=    30.00 Ry     beta=0.70
     Davidson diagonalization with overlap
     ethr =  7.52E-04,  avg # of iterations =  1.0

     total cpu time spent up to now is        2.8 secs

     total energy              =     -31.49105127 Ry
     Harris-Foulkes estimate   =     -31.49118077 Ry
     estimated scf accuracy    <       0.00606008 Ry

     iteration # 64     ecut=    30.00 Ry     beta=0.70
     Davidson diagonalization with overlap
     ethr =  7.58E-05,  avg # of iterations =  1.0

     total cpu time spent up to now is        2.9 secs

     total energy              =     -31.49111360 Ry
     Harris-Foulkes estimate   =     -31.49112203 Ry
     estimated scf accuracy    <       0.00006163 Ry

     iteration # 65     ecut=    30.00 Ry     beta=0.70
     Davidson diagonalization with overlap
     c_bands:  1 eigenvalues not converged
     ethr =  7.70E-07,  avg # of iterations = 20.0

     total cpu time spent up to now is        2.9 secs

     total energy              =     -31.49110339 Ry
     Harris-Foulkes estimate   =     -31.49112857 Ry
     estimated scf accuracy    <       0.00108105 Ry

     iteration # 66     ecut=    30.00 Ry     beta=0.70
     Davidson diagonalization with overlap
     ethr =  7.70E-07,  avg # of iterations =  8.0

     total cpu time spent up to now is        2.9 secs

     total energy              =     -31.49111839 Ry
     Harris-Foulkes estimate   =     -31.49111903 Ry
     estimated scf accuracy    <       0.00006130 Ry

     iteration # 67     ecut=    30.00 Ry     beta=0.70
     Davidson diagonalization with overlap
     ethr =  7.66E-07,  avg # of iterations =  1.0

     total cpu time spent up to now is        3.0 secs

     total energy              =     -31.49111870 Ry
     Harris-Foulkes estimate   =     -31.49111874 Ry
     estimated scf accuracy    <       0.00000410 Ry

     iteration # 68     ecut=    30.00 Ry     beta=0.70
     Davidson diagonalization with overlap
     ethr =  5.12E-08,  avg # of iterations =  1.0

     total cpu time spent up to now is        3.0 secs

     total energy              =     -31.49111872 Ry
     Harris-Foulkes estimate   =     -31.49111874 Ry
     estimated scf accuracy    <       0.00000002 Ry

     iteration # 69     ecut=    30.00 Ry     beta=0.70
     Davidson diagonalization with overlap
     ethr =  2.21E-10,  avg # of iterations =  1.0

     total cpu time spent up to now is        3.0 secs

     End of self-consistent calculation

          k = 0.0000 0.0000 0.0000 ( 22119 PWs)   bands (ev):

   -23.5973  -7.0227  -7.0119  -7.0108  -6.9098  -6.8905  -0.2198   0.6037

     the Fermi energy is    -6.8766 ev

!    total energy              =     -31.49111868 Ry
     Harris-Foulkes estimate   =     -31.49111872 Ry
     estimated scf accuracy    <          3.2E-09 Ry

     convergence has been achieved in  69 iterations

     Forces acting on atoms (Ry/au):

     atom    1 type  1   force =    -0.00068761   -0.00045901   -0.00016319
     atom    2 type  1   force =    -0.00054671   -0.00053581   -0.00072953
     atom    3 type  2   force =     0.00123432    0.00099481    0.00089272

     Total force =     0.002267     Total SCF correction =     0.000017

     Molecular Dynamics Calculation

     Starting temperature  =  1000.00 K

     temperature is controlled by Andersen thermostat
     Collision frequency = 1.0000/timestep
     mass H                =     1.01
     mass O                =    16.00
     Time step             =   100.00 a.u.,  4.8378 femto-seconds

     Entering Dynamics:    iteration =     1
                           time      =   0.0048 pico-seconds


     Andersen thermostat:    3 collisions

ATOMIC_POSITIONS (bohr)
H       13.735711941  12.881632354   6.159429162
H        4.065479095  12.936627816  19.698406302
O        4.220534236  10.591673042  11.693139516


     kinetic energy (Ekin) =     0.01051796 Ry
     temperature           =   553.55073860 K 
     Ekin + Etot (const)   =   -31.48060073 Ry

     Linear momentum :    0.0000000000    0.0000000000   -0.0000000000

     Writing output data file pwscf.save
     Check: negative starting charge=   -0.345188
     NEW-OLD atomic charge density approx. for the potential
     Check: negative starting charge=   -0.344353

     negative rho (up, down):  4.717E-02 0.000E+00

     total cpu time spent up to now is        3.3 secs

     per-process dynamical memory:    20.4 Mb

     Self-consistent Calculation

     iteration #  1     ecut=    30.00 Ry     beta=0.70
     Davidson diagonalization with overlap
     c_bands:  1 eigenvalues not converged
     ethr =  1.00E-06,  avg # of iterations = 20.0

     negative rho (up, down):  1.037E-02 0.000E+00

     total cpu time spent up to now is        3.4 secs

     total energy              =     -31.44964405 Ry
     Harris-Foulkes estimate   =     -31.44736614 Ry
     estimated scf accuracy    <       0.03938355 Ry

     iteration #  2     ecut=    30.00 Ry     beta=0.70
     Davidson diagonalization with overlap
     ethr =  4.92E-04,  avg # of iterations =  2.0

     negative rho (up, down):  9.539E-03 0.000E+00

     total cpu time spent up to now is        3.4 secs

     total energy              =     -31.48351696 Ry
     Harris-Foulkes estimate   =     -31.92781094 Ry
     estimated scf accuracy    <       4.22065563 Ry

     iteration #  3     ecut=    30.00 Ry     beta=0.70
     Davidson diagonalization with overlap
     ethr =  4.92E-04,  avg # of iterations =  2.0

     negative rho (up, down):  9.371E-03 0.000E+00

     total cpu time spent up to now is        3.4 secs

     total energy              =     -31.48455782 Ry
     Harris-Foulkes estimate   =     -31.49430930 Ry
     estimated scf accuracy    <       1.02941693 Ry

     iteration #  4     ecut=    30.00 Ry     beta=0.70
     Davidson diagonalization with overlap
     ethr =  4.92E-04,  avg # of iterations =  1.0

     negative rho (up, down):  5.639E-03 0.000E+00

     total cpu time spent up to now is        3.5 secs

     total energy              =     -31.43919142 Ry
     Harris-Foulkes estimate   =     -31.48815320 Ry
     estimated scf accuracy    <       0.64308350 Ry

     iteration #  5     ecut=    30.00 Ry     beta=0.70
     Davidson diagonalization with overlap
     ethr =  4.92E-04,  avg # of iterations =  1.0

     negative rho (up, down):  1.676E-03 0.000E+00

     total cpu time spent up to now is        3.5 secs

     total energy              =     -31.46403275 Ry
     Harris-Foulkes estimate   =     -31.53938924 Ry
     estimated scf accuracy    <       2.50097134 Ry

     iteration #  6     ecut=    30.00 Ry     beta=0.70
     Davidson diagonalization with overlap
     ethr =  4.92E-04,  avg # of iterations =  3.0

     negative rho (up, down):  3.338E-04 0.000E+00

     total cpu time spent up to now is        3.5 secs

     total energy              =     -31.49143746 Ry
     Harris-Foulkes estimate   =     -31.49053458 Ry
     estimated scf accuracy    <       0.01035399 Ry

     iteration #  7     ecut=    30.00 Ry     beta=0.70
     Davidson diagonalization with overlap
     ethr =  1.29E-04,  avg # of iterations =  3.0

     negative rho (up, down):  1.675E-04 0.000E+00

     total cpu time spent up to now is        3.6 secs

     total energy              =     -31.49156378 Ry
     Harris-Foulkes estimate   =     -31.49150220 Ry
     estimated scf accuracy    <       0.02726616 Ry

     iteration #  8     ecut=    30.00 Ry     beta=0.70
     Davidson diagonalization with overlap
     ethr =  1.29E-04,  avg # of iterations =  1.0

     negative rho (up, down):  4.492E-07 0.000E+00

     total cpu time spent up to now is        3.6 secs

     total energy              =     -31.49113732 Ry
     Harris-Foulkes estimate   =     -31.49157013 Ry
     estimated scf accuracy    <       0.03440024 Ry

     iteration #  9     ecut=    30.00 Ry     beta=0.70
     Davidson diagonalization with overlap
     ethr =  1.29E-04,  avg # of iterations =  1.0

     total cpu time spent up to now is        3.6 secs

     total energy              =     -31.49112048 Ry
     Harris-Foulkes estimate   =     -31.49129117 Ry
     estimated scf accuracy    <       0.00369731 Ry

     iteration # 10     ecut=    30.00 Ry     beta=0.70
     Davidson diagonalization with overlap
     ethr =  4.62E-05,  avg # of iterations =  1.0

     total cpu time spent up to now is        3.7 secs

     total energy              =     -31.49126906 Ry
     Harris-Foulkes estimate   =     -31.49133170 Ry
     estimated scf accuracy    <       0.00789247 Ry

     iteration # 11     ecut=    30.00 Ry     beta=0.70
     Davidson diagonalization with overlap
     ethr =  4.62E-05,  avg # of iterations =  1.0

     total cpu time spent up to now is        3.7 secs

     total energy              =     -31.49119764 Ry
     Harris-Foulkes estimate   =     -31.49128183 Ry
     estimated scf accuracy    <       0.00273253 Ry

     iteration # 12     ecut=    30.00 Ry     beta=0.70
     Davidson diagonalization with overlap
     ethr =  3.42E-05,  avg # of iterations =  1.0

     total cpu time spent up to now is        3.7 secs

     total energy              =     -31.49124724 Ry
     Harris-Foulkes estimate   =     -31.49126556 Ry
     estimated scf accuracy    <       0.00103020 Ry

     iteration # 13     ecut=    30.00 Ry     beta=0.70
     Davidson diagonalization with overlap
     ethr =  1.29E-05,  avg # of iterations =  1.0

     total cpu time spent up to now is        3.8 secs

     total energy              =     -31.49125558 Ry
     Harris-Foulkes estimate   =     -31.49125570 Ry
     estimated scf accuracy    <       0.00000586 Ry

     iteration # 14     ecut=    30.00 Ry     beta=0.70
     Davidson diagonalization with overlap
     ethr =  7.33E-08,  avg # of iterations =  5.0

     total cpu time spent up to now is        3.8 secs

     total energy              =     -31.49125560 Ry
     Harris-Foulkes estimate   =     -31.49125560 Ry
     estimated scf accuracy    <       0.00000119 Ry

     iteration # 15     ecut=    30.00 Ry     beta=0.70
     Davidson diagonalization with overlap
     ethr =  1.49E-08,  avg # of iterations =  1.0

     total cpu time spent up to now is        3.8 secs

     End of self-consistent calculation

          k = 0.0000 0.0000 0.0000 ( 22119 PWs)   bands (ev):

   -23.5944  -7.0235  -7.0088  -7.0079  -6.9056  -6.8849  -0.2180   0.6189

     the Fermi energy is    -6.8736 ev

!    total energy              =     -31.49125562 Ry
     Harris-Foulkes estimate   =     -31.49125561 Ry
     estimated scf accuracy    <          4.7E-10 Ry

     convergence has been achieved in  15 iterations

     Forces acting on atoms (Ry/au):

     atom    1 type  1   force =    -0.00068545   -0.00052996   -0.00026905
     atom    2 type  1   force =    -0.00060904   -0.00073440   -0.00128646
     atom    3 type  2   force =     0.00129449    0.00126435    0.00155551

     Total force =     0.003014     Total SCF correction =     0.000210

     Entering Dynamics:    iteration =     2
                           time      =   0.0097 pico-seconds


     Andersen thermostat:    3 collisions

ATOMIC_POSITIONS (bohr)
H       13.477923106  12.595196480   6.079852395
H        3.936310453  13.078598363  19.681271258
O        4.244960927  10.600792416  11.699244449


     kinetic energy (Ekin) =     0.01195446 Ry
     temperature           =   629.15252054 K 
     Ekin + Etot (const)   =   -31.47930116 Ry
     Message from routine dynamics:
     Total linear momentum <> 0

     Linear momentum :    0.4110128024    0.1455007583   -0.1975580753

     Writing output data file pwscf.save

     first order wave-functions extrapolation
     Check: negative starting charge=   -0.344353
     first order charge density extrapolation
     Check: negative starting charge=   -0.344666

     negative rho (up, down):  1.030E-01 0.000E+00

     total cpu time spent up to now is        4.1 secs

     per-process dynamical memory:    20.4 Mb

     Self-consistent Calculation

     iteration #  1     ecut=    30.00 Ry     beta=0.70
     Davidson diagonalization with overlap
     c_bands:  1 eigenvalues not converged
     ethr =  1.00E-06,  avg # of iterations = 20.0

     negative rho (up, down):  2.396E-02 0.000E+00

     total cpu time spent up to now is        4.2 secs

     total energy              =     -31.45613446 Ry
     Harris-Foulkes estimate   =     -31.42456244 Ry
     estimated scf accuracy    <       0.01814671 Ry

     iteration #  2     ecut=    30.00 Ry     beta=0.70
     Davidson diagonalization with overlap
     ethr =  2.27E-04,  avg # of iterations =  2.0

     negative rho (up, down):  2.195E-02 0.000E+00

     total cpu time spent up to now is        4.3 secs

     total energy              =     -31.46506027 Ry
     Harris-Foulkes estimate   =     -31.58989693 Ry
     estimated scf accuracy    <       1.16941139 Ry

     iteration #  3     ecut=    30.00 Ry     beta=0.70
     Davidson diagonalization with overlap
     ethr =  2.27E-04,  avg # of iterations =  2.0

     negative rho (up, down):  2.168E-02 0.000E+00

     total cpu time spent up to now is        4.3 secs

     total energy              =     -31.46825235 Ry
     Harris-Foulkes estimate   =     -31.47455048 Ry
     estimated scf accuracy    <       0.39206071 Ry

     iteration #  4     ecut=    30.00 Ry     beta=0.70
     Davidson diagonalization with overlap
     ethr =  2.27E-04,  avg # of iterations =  1.0

     negative rho (up, down):  5.860E-03 0.000E+00

     total cpu time spent up to now is        4.3 secs

     total energy              =     -31.47307849 Ry
     Harris-Foulkes estimate   =     -31.47258504 Ry
     estimated scf accuracy    <       0.13239083 Ry

     iteration #  5     ecut=    30.00 Ry     beta=0.70
     Davidson diagonalization with overlap
     ethr =  2.27E-04,  avg # of iterations =  3.0

     negative rho (up, down):  2.892E-03 0.000E+00

     total cpu time spent up to now is        4.4 secs

     total energy              =     -31.48204920 Ry
     Harris-Foulkes estimate   =     -31.50402833 Ry
     estimated scf accuracy    <       0.56023248 Ry

     iteration #  6     ecut=    30.00 Ry     beta=0.70
     Davidson diagonalization with overlap
     ethr =  2.27E-04,  avg # of iterations =  3.0

     negative rho (up, down):  7.821E-04 0.000E+00

     total cpu time spent up to now is        4.4 secs

     total energy              =     -31.49002030 Ry
     Harris-Foulkes estimate   =     -31.48971148 Ry
     estimated scf accuracy    <       0.03141342 Ry

     iteration #  7     ecut=    30.00 Ry     beta=0.70
     Davidson diagonalization with overlap
     ethr =  2.27E-04,  avg # of iterations =  3.0

     negative rho (up, down):  1.290E-04 0.000E+00

     total cpu time spent up to now is        4.4 secs

     total energy              =     -31.49102981 Ry
     Harris-Foulkes estimate   =     -31.49145418 Ry
     estimated scf accuracy    <       0.01606844 Ry

     iteration #  8     ecut=    30.00 Ry     beta=0.70
     Davidson diagonalization with overlap
     ethr =  2.01E-04,  avg # of iterations =  1.0

     negative rho (up, down):  9.909E-06 0.000E+00

     total cpu time spent up to now is        4.5 secs

     total energy              =     -31.49129798 Ry
     Harris-Foulkes estimate   =     -31.49128636 Ry
     estimated scf accuracy    <       0.00000689 Ry

     iteration #  9     ecut=    30.00 Ry     beta=0.70
     Davidson diagonalization with overlap
     ethr =  8.61E-08,  avg # of iterations = 16.0

     total cpu time spent up to now is        4.5 secs

     total energy              =     -31.49109002 Ry
     Harris-Foulkes estimate   =     -31.49135935 Ry
     estimated scf accuracy    <       0.00371952 Ry

     iteration # 10     ecut=    30.00 Ry     beta=0.70
     Davidson diagonalization with overlap
     ethr =  8.61E-08,  avg # of iterations =  2.0

     total cpu time spent up to now is        4.6 secs

     total energy              =     -31.49110035 Ry
     Harris-Foulkes estimate   =     -31.49140668 Ry
     estimated scf accuracy    <       0.00651248 Ry

     iteration # 11     ecut=    30.00 Ry     beta=0.70
     Davidson diagonalization with overlap
     ethr =  8.61E-08,  avg # of iterations =  2.0

     total cpu time spent up to now is        4.6 secs

     total energy              =     -31.49127256 Ry
     Harris-Foulkes estimate   =     -31.49133151 Ry
     estimated scf accuracy    <       0.00180925 Ry

     iteration # 12     ecut=    30.00 Ry     beta=0.70
     Davidson diagonalization with overlap
     ethr =  8.61E-08,  avg # of iterations =  1.0

     total cpu time spent up to now is        4.6 secs

     total energy              =     -31.49130363 Ry
     Harris-Foulkes estimate   =     -31.49130376 Ry
     estimated scf accuracy    <       0.00000825 Ry

     iteration # 13     ecut=    30.00 Ry     beta=0.70
     Davidson diagonalization with overlap
     ethr =  8.61E-08,  avg # of iterations =  1.0

     total cpu time spent up to now is        4.7 secs

     total energy              =     -31.49130365 Ry
     Harris-Foulkes estimate   =     -31.49130367 Ry
     estimated scf accuracy    <       0.00000171 Ry

     iteration # 14     ecut=    30.00 Ry     beta=0.70
     Davidson diagonalization with overlap
     ethr =  2.14E-08,  avg # of iterations =  1.0

     total cpu time spent up to now is        4.7 secs

     total energy              =     -31.49130354 Ry
     Harris-Foulkes estimate   =     -31.49130366 Ry
     estimated scf accuracy    <       0.00000051 Ry

     iteration # 15     ecut=    30.00 Ry     beta=0.70
     Davidson diagonalization with overlap
     ethr =  6.37E-09,  avg # of iterations =  1.0

     total cpu time spent up to now is        4.7 secs

     total energy              =     -31.49130353 Ry
     Harris-Foulkes estimate   =     -31.49130355 Ry
     estimated scf accuracy    <       0.00000002 Ry

     iteration # 16     ecut=    30.00 Ry     beta=0.70
     Davidson diagonalization with overlap
     ethr =  2.50E-10,  avg # of iterations =  1.0

     total cpu time spent up to now is        4.7 secs

     End of self-consistent calculation

          k = 0.0000 0.0000 0.0000 ( 22119 PWs)   bands (ev):

   -23.5937  -7.0229  -7.0089  -7.0079  -6.9058  -6.8853  -0.2176   0.6174

     the Fermi energy is    -6.8736 ev

!    total energy              =     -31.49130352 Ry
     Harris-Foulkes estimate   =     -31.49130353 Ry
     estimated scf accuracy    <          7.0E-10 Ry

     convergence has been achieved in  16 iterations

     Forces acting on atoms (Ry/au):

     atom    1 type  1   force =    -0.00064443   -0.00046633   -0.00021399
     atom    2 type  1   force =    -0.00053615   -0.00069345   -0.00119166
     atom    3 type  2   force =     0.00118058    0.00115977    0.00140566

     Total force =     0.002753     Total SCF correction =     0.000036

     Entering Dynamics:    iteration =     3
                           time      =   0.0145 pico-seconds


     Andersen thermostat:    3 collisions

ATOMIC_POSITIONS (bohr)
H       13.494648524  12.364098605   6.166304055
H        4.015083845  13.084441576  19.848955070
O        4.238932564  10.615011616  11.683202148


     kinetic energy (Ekin) =     0.00703157 Ry
     temperature           =   370.06503089 K 
     Ekin + Etot (const)   =   -31.48427195 Ry
     Message from routine dynamics:
     Total linear momentum <> 0

     Linear momentum :    0.3475506302    0.2237541952    0.0898410001

     Writing output data file pwscf.save

     second order wave-functions extrapolation
     Check: negative starting charge=   -0.344666
     second order charge density extrapolation
     Check: negative starting charge=   -0.344800

     negative rho (up, down):  4.749E-02 0.000E+00

     total cpu time spent up to now is        5.1 secs

     per-process dynamical memory:    20.4 Mb

     Self-consistent Calculation

     iteration #  1     ecut=    30.00 Ry     beta=0.70
     Davidson diagonalization with overlap
     c_bands:  1 eigenvalues not converged
     ethr =  1.00E-06,  avg # of iterations = 20.0

     negative rho (up, down):  1.046E-02 0.000E+00

     total cpu time spent up to now is        5.2 secs

     total energy              =     -31.47377575 Ry
     Harris-Foulkes estimate   =     -31.44781240 Ry
     estimated scf accuracy    <       0.00950523 Ry

     iteration #  2     ecut=    30.00 Ry     beta=0.70
     Davidson diagonalization with overlap
     ethr =  1.19E-04,  avg # of iterations =  2.0

     negative rho (up, down):  1.003E-02 0.000E+00

     total cpu time spent up to now is        5.3 secs

     total energy              =     -31.46127911 Ry
     Harris-Foulkes estimate   =     -31.67039525 Ry
     estimated scf accuracy    <       3.79881081 Ry

     iteration #  3     ecut=    30.00 Ry     beta=0.70
     Davidson diagonalization with overlap
     ethr =  1.19E-04,  avg # of iterations =  2.0

     negative rho (up, down):  9.773E-03 0.000E+00

     total cpu time spent up to now is        5.3 secs

     total energy              =     -31.47617017 Ry
     Harris-Foulkes estimate   =     -31.48917151 Ry
     estimated scf accuracy    <       0.42308423 Ry

     iteration #  4     ecut=    30.00 Ry     beta=0.70
     Davidson diagonalization with overlap
     ethr =  1.19E-04,  avg # of iterations =  1.0

     negative rho (up, down):  2.230E-03 0.000E+00

     total cpu time spent up to now is        5.4 secs

     total energy              =     -31.48796870 Ry
     Harris-Foulkes estimate   =     -31.48227431 Ry
     estimated scf accuracy    <       0.03814743 Ry

     iteration #  5     ecut=    30.00 Ry     beta=0.70
     Davidson diagonalization with overlap
     ethr =  1.19E-04,  avg # of iterations =  4.0

     negative rho (up, down):  9.864E-04 0.000E+00

     total cpu time spent up to now is        5.5 secs

     total energy              =     -31.48870592 Ry
     Harris-Foulkes estimate   =     -31.49146533 Ry
     estimated scf accuracy    <       0.15123264 Ry

     iteration #  6     ecut=    30.00 Ry     beta=0.70
     Davidson diagonalization with overlap
     ethr =  1.19E-04,  avg # of iterations =  3.0

     negative rho (up, down):  1.741E-05 0.000E+00

     total cpu time spent up to now is        5.5 secs

     total energy              =     -31.49090363 Ry
     Harris-Foulkes estimate   =     -31.49115794 Ry
     estimated scf accuracy    <       0.01216854 Ry

     iteration #  7     ecut=    30.00 Ry     beta=0.70
     Davidson diagonalization with overlap
     ethr =  1.19E-04,  avg # of iterations =  1.0

     negative rho (up, down):  2.823E-06 0.000E+00

     total cpu time spent up to now is        5.6 secs

     total energy              =     -31.49113963 Ry
     Harris-Foulkes estimate   =     -31.49128256 Ry
     estimated scf accuracy    <       0.00737810 Ry

     iteration #  8     ecut=    30.00 Ry     beta=0.70
     Davidson diagonalization with overlap
     ethr =  9.22E-05,  avg # of iterations =  1.0

     total cpu time spent up to now is        5.6 secs

     total energy              =     -31.49121611 Ry
     Harris-Foulkes estimate   =     -31.49121390 Ry
     estimated scf accuracy    <       0.00000165 Ry

     iteration #  9     ecut=    30.00 Ry     beta=0.70
     Davidson diagonalization with overlap
     ethr =  2.06E-08,  avg # of iterations = 16.0

     total cpu time spent up to now is        5.7 secs

     total energy              =     -31.49121508 Ry
     Harris-Foulkes estimate   =     -31.49121714 Ry
     estimated scf accuracy    <       0.00010818 Ry

     iteration # 10     ecut=    30.00 Ry     beta=0.70
     Davidson diagonalization with overlap
     ethr =  2.06E-08,  avg # of iterations =  1.0

     total cpu time spent up to now is        5.7 secs

     total energy              =     -31.49121611 Ry
     Harris-Foulkes estimate   =     -31.49121611 Ry
     estimated scf accuracy    <       0.00000003 Ry

     iteration # 11     ecut=    30.00 Ry     beta=0.70
     Davidson diagonalization with overlap
     ethr =  4.37E-10,  avg # of iterations =  1.0

     total cpu time spent up to now is        5.8 secs

     total energy              =     -31.49121606 Ry
     Harris-Foulkes estimate   =     -31.49121617 Ry
     estimated scf accuracy    <       0.00000474 Ry

     iteration # 12     ecut=    30.00 Ry     beta=0.70
     Davidson diagonalization with overlap
     ethr =  4.37E-10,  avg # of iterations =  1.0

     total cpu time spent up to now is        5.8 secs

     End of self-consistent calculation

          k = 0.0000 0.0000 0.0000 ( 22119 PWs)   bands (ev):

   -23.5934  -7.0204  -7.0086  -7.0077  -6.9059  -6.8868  -0.2184   0.6187

     the Fermi energy is    -6.8733 ev

!    total energy              =     -31.49121610 Ry
     Harris-Foulkes estimate   =     -31.49121611 Ry
     estimated scf accuracy    <          5.5E-10 Ry

     convergence has been achieved in  12 iterations

     Forces acting on atoms (Ry/au):

     atom    1 type  1   force =    -0.00060543   -0.00059522   -0.00003178
     atom    2 type  1   force =    -0.00052389   -0.00072633   -0.00062802
     atom    3 type  2   force =     0.00112932    0.00132155    0.00065980

     Total force =     0.002319     Total SCF correction =     0.000113

     Entering Dynamics:    iteration =     4
                           time      =   0.0194 pico-seconds


     Andersen thermostat:    3 collisions

ATOMIC_POSITIONS (bohr)
H       13.502627399  12.569147797   6.432184395
H        3.660980586  13.012466875  20.300468715
O        4.260781666  10.606611289  11.637916652


     kinetic energy (Ekin) =     0.02450265 Ry
     temperature           =  1289.55265513 K 
     Ekin + Etot (const)   =   -31.46671345 Ry
     Message from routine dynamics:
     Total linear momentum <> 0

     Linear momentum :   -0.1743727422    0.3052841419    0.1847668451

     Writing output data file pwscf.save

     second order wave-functions extrapolation
     Check: negative starting charge=   -0.344800
     second order charge density extrapolation
     Check: negative starting charge=   -0.345636

     negative rho (up, down):  9.315E-02 0.000E+00

     total cpu time spent up to now is        6.2 secs

     per-process dynamical memory:    20.4 Mb

     Self-consistent Calculation

     iteration #  1     ecut=    30.00 Ry     beta=0.70
     Davidson diagonalization with overlap
     c_bands:  1 eigenvalues not converged
     ethr =  1.00E-06,  avg # of iterations = 20.0

     negative rho (up, down):  2.131E-02 0.000E+00

     total cpu time spent up to now is        6.3 secs

     total energy              =     -31.44674032 Ry
     Harris-Foulkes estimate   =     -31.42636662 Ry
     estimated scf accuracy    <       0.03181678 Ry

     iteration #  2     ecut=    30.00 Ry     beta=0.70
     Davidson diagonalization with overlap
     ethr =  3.98E-04,  avg # of iterations =  2.0

     negative rho (up, down):  1.987E-02 0.000E+00

     total cpu time spent up to now is        6.3 secs

     total energy              =     -31.45407200 Ry
     Harris-Foulkes estimate   =     -31.81692262 Ry
     estimated scf accuracy    <       4.05623461 Ry

     iteration #  3     ecut=    30.00 Ry     beta=0.70
     Davidson diagonalization with overlap
     ethr =  3.98E-04,  avg # of iterations =  2.0

     negative rho (up, down):  1.914E-02 0.000E+00

     total cpu time spent up to now is        6.4 secs

     total energy              =     -31.45816674 Ry
     Harris-Foulkes estimate   =     -31.52283271 Ry
     estimated scf accuracy    <       1.26396284 Ry

     iteration #  4     ecut=    30.00 Ry     beta=0.70
     Davidson diagonalization with overlap
     ethr =  3.98E-04,  avg # of iterations =  1.0

     negative rho (up, down):  4.704E-03 0.000E+00

     total cpu time spent up to now is        6.4 secs

     total energy              =     -31.46112418 Ry
     Harris-Foulkes estimate   =     -31.47471185 Ry
     estimated scf accuracy    <       0.23035790 Ry

     iteration #  5     ecut=    30.00 Ry     beta=0.70
     Davidson diagonalization with overlap
     ethr =  3.98E-04,  avg # of iterations =  1.0

     negative rho (up, down):  2.599E-03 0.000E+00

     total cpu time spent up to now is        6.4 secs

     total energy              =     -31.46585956 Ry
     Harris-Foulkes estimate   =     -31.52745762 Ry
     estimated scf accuracy    <       1.80335334 Ry

     iteration #  6     ecut=    30.00 Ry     beta=0.70
     Davidson diagonalization with overlap
     ethr =  3.98E-04,  avg # of iterations =  1.0

     negative rho (up, down):  3.625E-04 0.000E+00

     total cpu time spent up to now is        6.5 secs

     total energy              =     -31.48877198 Ry
     Harris-Foulkes estimate   =     -31.49003217 Ry
     estimated scf accuracy    <       0.05773433 Ry

     iteration #  7     ecut=    30.00 Ry     beta=0.70
     Davidson diagonalization with overlap
     ethr =  3.98E-04,  avg # of iterations =  3.0

     negative rho (up, down):  5.711E-05 0.000E+00

     total cpu time spent up to now is        6.5 secs

     total energy              =     -31.49064726 Ry
     Harris-Foulkes estimate   =     -31.49283380 Ry
     estimated scf accuracy    <       0.17973645 Ry

     iteration #  8     ecut=    30.00 Ry     beta=0.70
     Davidson diagonalization with overlap
     ethr =  3.98E-04,  avg # of iterations =  1.0

     negative rho (up, down):  5.932E-05 0.000E+00

     total cpu time spent up to now is        6.5 secs

     total energy              =     -31.49111700 Ry
     Harris-Foulkes estimate   =     -31.49146510 Ry
     estimated scf accuracy    <       0.03551599 Ry

     iteration #  9     ecut=    30.00 Ry     beta=0.70
     Davidson diagonalization with overlap
     ethr =  3.98E-04,  avg # of iterations =  1.0

     negative rho (up, down):  7.795E-07 0.000E+00

     total cpu time spent up to now is        6.6 secs

     total energy              =     -31.49098642 Ry
     Harris-Foulkes estimate   =     -31.49118420 Ry
     estimated scf accuracy    <       0.01288118 Ry

     iteration # 10     ecut=    30.00 Ry     beta=0.70
     Davidson diagonalization with overlap
     ethr =  1.61E-04,  avg # of iterations =  1.0

     total cpu time spent up to now is        6.6 secs

     total energy              =     -31.49084281 Ry
     Harris-Foulkes estimate   =     -31.49138593 Ry
     estimated scf accuracy    <       0.03234208 Ry

     iteration # 11     ecut=    30.00 Ry     beta=0.70
     Davidson diagonalization with overlap
     ethr =  1.61E-04,  avg # of iterations =  1.0

     total cpu time spent up to now is        6.6 secs

     total energy              =     -31.49098349 Ry
     Harris-Foulkes estimate   =     -31.49106086 Ry
     estimated scf accuracy    <       0.00321538 Ry

     iteration # 12     ecut=    30.00 Ry     beta=0.70
     Davidson diagonalization with overlap
     ethr =  4.02E-05,  avg # of iterations =  4.0

     total cpu time spent up to now is        6.7 secs

     total energy              =     -31.49103108 Ry
     Harris-Foulkes estimate   =     -31.49103408 Ry
     estimated scf accuracy    <       0.00037724 Ry

     iteration # 13     ecut=    30.00 Ry     beta=0.70
     Davidson diagonalization with overlap
     ethr =  4.72E-06,  avg # of iterations =  8.0

     total cpu time spent up to now is        6.7 secs

     total energy              =     -31.49103019 Ry
     Harris-Foulkes estimate   =     -31.49103165 Ry
     estimated scf accuracy    <       0.00016461 Ry

     iteration # 14     ecut=    30.00 Ry     beta=0.70
     Davidson diagonalization with overlap
     ethr =  2.06E-06,  avg # of iterations =  5.0

     total cpu time spent up to now is        6.7 secs

     total energy              =     -31.49102926 Ry
     Harris-Foulkes estimate   =     -31.49103051 Ry
     estimated scf accuracy    <       0.00005367 Ry

     iteration # 15     ecut=    30.00 Ry     beta=0.70
     Davidson diagonalization with overlap
     ethr =  6.71E-07,  avg # of iterations =  1.0

     total cpu time spent up to now is        6.8 secs

     total energy              =     -31.49102982 Ry
     Harris-Foulkes estimate   =     -31.49102982 Ry
     estimated scf accuracy    <       0.00000011 Ry

     iteration # 16     ecut=    30.00 Ry     beta=0.70
     Davidson diagonalization with overlap
     ethr =  1.40E-09,  avg # of iterations =  1.0

     total cpu time spent up to now is        6.8 secs

     End of self-consistent calculation

          k = 0.0000 0.0000 0.0000 ( 22119 PWs)   bands (ev):

   -23.5936  -7.0152  -7.0090  -7.0078  -6.9070  -6.8914  -0.2211   0.6080

     the Fermi energy is    -6.8735 ev

!    total energy              =     -31.49102976 Ry
     Harris-Foulkes estimate   =     -31.49102983 Ry
     estimated scf accuracy    <          2.4E-09 Ry

     convergence has been achieved in  16 iterations

     Forces acting on atoms (Ry/au):

     atom    1 type  1   force =    -0.00055538   -0.00042973    0.00042409
     atom    2 type  1   force =    -0.00047896   -0.00056068   -0.00030263
     atom    3 type  2   force =     0.00103435    0.00099041   -0.00012146

     Total force =     0.001837     Total SCF correction =     0.000166

     Entering Dynamics:    iteration =     5
                           time      =   0.0242 pico-seconds


     Andersen thermostat:    3 collisions

ATOMIC_POSITIONS (bohr)
H       13.701336725  12.588698452   6.439767922
H        3.668349251  13.055909681  19.877897161
O        4.247772993  10.602634827  11.664112772


     kinetic energy (Ekin) =     0.01264105 Ry
     temperature           =   665.28708901 K 
     Ekin + Etot (const)   =   -31.47838872 Ry
     Message from routine dynamics:
     Total linear momentum <> 0

     Linear momentum :    0.3007809997   -0.0580176738   -0.2392450716

     Writing output data file pwscf.save

     second order wave-functions extrapolation
     Check: negative starting charge=   -0.345636
     second order charge density extrapolation
     Check: negative starting charge=   -0.344827

     negative rho (up, down):  2.393E-02 0.000E+00

     total cpu time spent up to now is        7.1 secs

     per-process dynamical memory:    20.4 Mb

     Self-consistent Calculation

     iteration #  1     ecut=    30.00 Ry     beta=0.70
     Davidson diagonalization with overlap
     c_bands:  1 eigenvalues not converged
     ethr =  1.00E-06,  avg # of iterations = 20.0

     negative rho (up, down):  4.976E-03 0.000E+00

     total cpu time spent up to now is        7.3 secs

     total energy              =     -31.46620869 Ry
     Harris-Foulkes estimate   =     -31.46671451 Ry
     estimated scf accuracy    <       0.02520796 Ry

     iteration #  2     ecut=    30.00 Ry     beta=0.70
     Davidson diagonalization with overlap
     ethr =  3.15E-04,  avg # of iterations =  2.0

     negative rho (up, down):  4.632E-03 0.000E+00

     total cpu time spent up to now is        7.3 secs

     total energy              =     -31.47867774 Ry
     Harris-Foulkes estimate   =     -31.83589066 Ry
     estimated scf accuracy    <       4.05726430 Ry

     iteration #  3     ecut=    30.00 Ry     beta=0.70
     Davidson diagonalization with overlap
     ethr =  3.15E-04,  avg # of iterations =  2.0

     negative rho (up, down):  4.536E-03 0.000E+00

     total cpu time spent up to now is        7.4 secs

     total energy              =     -31.48484780 Ry
     Harris-Foulkes estimate   =     -31.49660074 Ry
     estimated scf accuracy    <       0.66142378 Ry

     iteration #  4     ecut=    30.00 Ry     beta=0.70
     Davidson diagonalization with overlap
     ethr =  3.15E-04,  avg # of iterations =  1.0

     negative rho (up, down):  2.657E-03 0.000E+00

     total cpu time spent up to now is        7.4 secs

     total energy              =     -31.47398204 Ry
     Harris-Foulkes estimate   =     -31.48994159 Ry
     estimated scf accuracy    <       0.30888737 Ry

     iteration #  5     ecut=    30.00 Ry     beta=0.70
     Davidson diagonalization with overlap
     ethr =  3.15E-04,  avg # of iterations =  1.0

     negative rho (up, down):  6.874E-04 0.000E+00

     total cpu time spent up to now is        7.5 secs

     total energy              =     -31.47532643 Ry
     Harris-Foulkes estimate   =     -31.50139709 Ry
     estimated scf accuracy    <       1.00744194 Ry

     iteration #  6     ecut=    30.00 Ry     beta=0.70
     Davidson diagonalization with overlap
     ethr =  3.15E-04,  avg # of iterations =  3.0

     negative rho (up, down):  9.192E-05 0.000E+00

     total cpu time spent up to now is        7.5 secs

     total energy              =     -31.49006728 Ry
     Harris-Foulkes estimate   =     -31.49187174 Ry
     estimated scf accuracy    <       0.08098128 Ry

     iteration #  7     ecut=    30.00 Ry     beta=0.70
     Davidson diagonalization with overlap
     ethr =  3.15E-04,  avg # of iterations =  1.0

     negative rho (up, down):  4.714E-06 0.000E+00

     total cpu time spent up to now is        7.6 secs

     total energy              =     -31.49125204 Ry
     Harris-Foulkes estimate   =     -31.49120296 Ry
     estimated scf accuracy    <       0.00367040 Ry

     iteration #  8     ecut=    30.00 Ry     beta=0.70
     Davidson diagonalization with overlap
     ethr =  4.59E-05,  avg # of iterations =  1.0

     total cpu time spent up to now is        7.6 secs

     total energy              =     -31.49099495 Ry
     Harris-Foulkes estimate   =     -31.49126538 Ry
     estimated scf accuracy    <       0.00918642 Ry

     iteration #  9     ecut=    30.00 Ry     beta=0.70
     Davidson diagonalization with overlap
     ethr =  4.59E-05,  avg # of iterations =  1.0

     total cpu time spent up to now is        7.7 secs

     total energy              =     -31.49119603 Ry
     Harris-Foulkes estimate   =     -31.49120924 Ry
     estimated scf accuracy    <       0.00287938 Ry

     iteration # 10     ecut=    30.00 Ry     beta=0.70
     Davidson diagonalization with overlap
     ethr =  3.60E-05,  avg # of iterations =  1.0

     total cpu time spent up to now is        7.7 secs

     total energy              =     -31.49117216 Ry
     Harris-Foulkes estimate   =     -31.49119763 Ry
     estimated scf accuracy    <       0.00167866 Ry

     iteration # 11     ecut=    30.00 Ry     beta=0.70
     Davidson diagonalization with overlap
     ethr =  2.10E-05,  avg # of iterations =  1.0

     total cpu time spent up to now is        7.8 secs

     total energy              =     -31.49118027 Ry
     Harris-Foulkes estimate   =     -31.49118196 Ry
     estimated scf accuracy    <       0.00008053 Ry

     iteration # 12     ecut=    30.00 Ry     beta=0.70
     Davidson diagonalization with overlap
     ethr =  1.01E-06,  avg # of iterations = 12.0

     total cpu time spent up to now is        7.9 secs

     total energy              =     -31.49118082 Ry
     Harris-Foulkes estimate   =     -31.49118100 Ry
     estimated scf accuracy    <       0.00000004 Ry

     iteration # 13     ecut=    30.00 Ry     beta=0.70
     Davidson diagonalization with overlap
     ethr =  5.46E-10,  avg # of iterations =  1.0

     total cpu time spent up to now is        7.9 secs

     total energy              =     -31.49118073 Ry
     Harris-Foulkes estimate   =     -31.49118083 Ry
     estimated scf accuracy    <       0.00000065 Ry

     iteration # 14     ecut=    30.00 Ry     beta=0.70
     Davidson diagonalization with overlap
     ethr =  5.46E-10,  avg # of iterations =  1.0

     total cpu time spent up to now is        8.0 secs

     total energy              =     -31.49118077 Ry
     Harris-Foulkes estimate   =     -31.49118073 Ry
     estimated scf accuracy    <       0.00000010 Ry

     iteration # 15     ecut=    30.00 Ry     beta=0.70
     Davidson diagonalization with overlap
     ethr =  5.46E-10,  avg # of iterations =  1.0

     total cpu time spent up to now is        8.0 secs

     End of self-consistent calculation

          k = 0.0000 0.0000 0.0000 ( 22119 PWs)   bands (ev):

   -23.5916  -7.0175  -7.0071  -7.0059  -6.9038  -6.8865  -0.2192   0.6149

     the Fermi energy is    -6.8716 ev

!    total energy              =     -31.49118076 Ry
     Harris-Foulkes estimate   =     -31.49118077 Ry
     estimated scf accuracy    <          4.4E-10 Ry

     convergence has been achieved in  15 iterations

     Forces acting on atoms (Ry/au):

     atom    1 type  1   force =    -0.00064561   -0.00050218    0.00014138
     atom    2 type  1   force =    -0.00055002   -0.00060737   -0.00039639
     atom    3 type  2   force =     0.00119563    0.00110955    0.00025501

     Total force =     0.002060     Total SCF correction =     0.000075

     Entering Dynamics:    iteration =     6
                           time      =   0.0290 pico-seconds


     Andersen thermostat:    3 collisions

ATOMIC_POSITIONS (bohr)
H       13.578315036  12.485826121   6.383425194
H        3.303723064  13.250758319  19.241162593
O        4.278555765  10.596828822  11.707863276


     kinetic energy (Ekin) =     0.03267732 Ry
     temperature           =  1719.77794849 K 
     Ekin + Etot (const)   =   -31.45850345 Ry
     Message from routine dynamics:
     Total linear momentum <> 0

     Linear momentum :   -0.1205571306    0.4132834539   -0.2395188933

     Writing output data file pwscf.save

     second order wave-functions extrapolation
     Check: negative starting charge=   -0.344827
     second order charge density extrapolation
     Check: negative starting charge=   -0.344436

     negative rho (up, down):  9.852E-02 0.000E+00

     total cpu time spent up to now is        8.3 secs

     per-process dynamical memory:    20.4 Mb

     Self-consistent Calculation

     iteration #  1     ecut=    30.00 Ry     beta=0.70
     Davidson diagonalization with overlap
     ethr =  1.00E-06,  avg # of iterations = 10.0

     negative rho (up, down):  1.716E-02 0.000E+00

     total cpu time spent up to now is        8.4 secs

     total energy              =       0.77161204 Ry
     Harris-Foulkes estimate   =    -129.94926916 Ry
     estimated scf accuracy    <       5.43215497 Ry

     iteration #  2     ecut=    30.00 Ry     beta=0.70
     Davidson diagonalization with overlap
     ethr =  1.00E-02,  avg # of iterations =  3.0

     negative rho (up, down):  1.148E-02 0.000E+00

     total cpu time spent up to now is        8.4 secs

     total energy              =     -31.41628166 Ry
     Harris-Foulkes estimate   =     -35.09319754 Ry
     estimated scf accuracy    <       7.77113548 Ry

     iteration #  3     ecut=    30.00 Ry     beta=0.70
     Davidson diagonalization with overlap
     ethr =  1.00E-02,  avg # of iterations =  2.0

     negative rho (up, down):  3.014E-03 0.000E+00

     total cpu time spent up to now is        8.5 secs

     total energy              =     -31.77022153 Ry
     Harris-Foulkes estimate   =     -33.17808110 Ry
     estimated scf accuracy    <       4.65644726 Ry

     iteration #  4     ecut=    30.00 Ry     beta=0.70
     Davidson diagonalization with overlap
     ethr =  1.00E-02,  avg # of iterations =  3.0

     negative rho (up, down):  2.494E-03 0.000E+00

     total cpu time spent up to now is        8.5 secs

     total energy              =     -32.58850578 Ry
     Harris-Foulkes estimate   =     -32.21299875 Ry
     estimated scf accuracy    <       2.04237460 Ry

     iteration #  5     ecut=    30.00 Ry     beta=0.70
     Davidson diagonalization with overlap
     ethr =  1.00E-02,  avg # of iterations =  1.0

     negative rho (up, down):  2.498E-03 0.000E+00

     total cpu time spent up to now is        8.5 secs

     total energy              =     -32.54674219 Ry
     Harris-Foulkes estimate   =     -32.59153647 Ry
     estimated scf accuracy    <       2.58190630 Ry

     iteration #  6     ecut=    30.00 Ry     beta=0.70
     Davidson diagonalization with overlap
     ethr =  1.00E-02,  avg # of iterations =  1.0

     negative rho (up, down):  1.494E-01 0.000E+00

     total cpu time spent up to now is        8.6 secs

     total energy              =     -30.71578730 Ry
     Harris-Foulkes estimate   =     -32.54692765 Ry
     estimated scf accuracy    <       2.52510105 Ry

     iteration #  7     ecut=    30.00 Ry     beta=0.70
     Davidson diagonalization with overlap
     ethr =  1.00E-02,  avg # of iterations =  4.0

     negative rho (up, down):  2.223E-02 0.000E+00

     total cpu time spent up to now is        8.6 secs

     total energy              =     -30.24540778 Ry
     Harris-Foulkes estimate   =     -35.25496720 Ry
     estimated scf accuracy    <       4.30769452 Ry

     iteration #  8     ecut=    30.00 Ry     beta=0.70
     Davidson diagonalization with overlap
     ethr =  1.00E-02,  avg # of iterations =  3.0

     negative rho (up, down):  5.230E-03 0.000E+00

     total cpu time spent up to now is        8.7 secs

     total energy              =     -31.54019892 Ry
     Harris-Foulkes estimate   =     -32.06091195 Ry
     estimated scf accuracy    <       2.01125087 Ry

     iteration #  9     ecut=    30.00 Ry     beta=0.70
     Davidson diagonalization with overlap
     ethr =  1.00E-02,  avg # of iterations =  3.0

     negative rho (up, down):  6.680E-03 0.000E+00

     total cpu time spent up to now is        8.7 secs

     total energy              =     -31.85417206 Ry
     Harris-Foulkes estimate   =     -31.92681317 Ry
     estimated scf accuracy    <       3.19768362 Ry

     iteration # 10     ecut=    30.00 Ry     beta=0.70
     Davidson diagonalization with overlap
     ethr =  1.00E-02,  avg # of iterations =  1.0

     negative rho (up, down):  1.026E-01 0.000E+00

     total cpu time spent up to now is        8.7 secs

     total energy              =     -31.89750863 Ry
     Harris-Foulkes estimate   =     -31.85427749 Ry
     estimated scf accuracy    <       3.08636520 Ry

     iteration # 11     ecut=    30.00 Ry     beta=0.70
     Davidson diagonalization with overlap
     ethr =  1.00E-02,  avg # of iterations =  2.0

     negative rho (up, down):  9.092E-02 0.000E+00

     total cpu time spent up to now is        8.8 secs

     total energy              =     -33.24890695 Ry
     Harris-Foulkes estimate   =     -33.04015182 Ry
     estimated scf accuracy    <       3.71624635 Ry

     iteration # 12     ecut=    30.00 Ry     beta=0.70
     Davidson diagonalization with overlap
     ethr =  1.00E-02,  avg # of iterations =  2.0

     negative rho (up, down):  7.791E-02 0.000E+00

     total cpu time spent up to now is        8.8 secs

     total energy              =     -33.63910406 Ry
     Harris-Foulkes estimate   =     -33.32609754 Ry
     estimated scf accuracy    <       4.03263901 Ry

     iteration # 13     ecut=    30.00 Ry     beta=0.70
     Davidson diagonalization with overlap
     ethr =  1.00E-02,  avg # of iterations =  2.0

     negative rho (up, down):  1.888E-02 0.000E+00

     total cpu time spent up to now is        8.8 secs

     total energy              =     -34.13427285 Ry
     Harris-Foulkes estimate   =     -33.71205889 Ry
     estimated scf accuracy    <       4.23773711 Ry

     iteration # 14     ecut=    30.00 Ry     beta=0.70
     Davidson diagonalization with overlap
     ethr =  1.00E-02,  avg # of iterations =  2.0

     negative rho (up, down):  2.862E-02 0.000E+00

     total cpu time spent up to now is        8.9 secs

     total energy              =     -34.02993991 Ry
     Harris-Foulkes estimate   =     -34.37517810 Ry
     estimated scf accuracy    <       4.41472140 Ry

     iteration # 15     ecut=    30.00 Ry     beta=0.70
     Davidson diagonalization with overlap
     ethr =  1.00E-02,  avg # of iterations =  3.0

     negative rho (up, down):  4.195E-01 0.000E+00

     total cpu time spent up to now is        8.9 secs

     total energy              =     -53.39840319 Ry
     Harris-Foulkes estimate   =     -36.28932852 Ry
     estimated scf accuracy    <       5.71312605 Ry

     iteration # 16     ecut=    30.00 Ry     beta=0.70
     Davidson diagonalization with overlap
     ethr =  1.00E-02,  avg # of iterations =  7.0

     negative rho (up, down):  2.490E-01 0.000E+00

     total cpu time spent up to now is        9.0 secs

     total energy              =    -106.60254876 Ry
     Harris-Foulkes estimate   =    -178.91997903 Ry
     estimated scf accuracy    <      83.91189268 Ry

     iteration # 17     ecut=    30.00 Ry     beta=0.70
     Davidson diagonalization with overlap
     ethr =  1.00E-02,  avg # of iterations =  8.0

     negative rho (up, down):  1.386E-01 0.000E+00

     total cpu time spent up to now is        9.0 secs

     total energy              =      44.64858047 Ry
     Harris-Foulkes estimate   =   -1281.02035080 Ry
     estimated scf accuracy    <      67.61854828 Ry

     iteration # 18     ecut=    30.00 Ry     beta=0.70
     Davidson diagonalization with overlap
     ethr =  1.00E-02,  avg # of iterations =  6.0

     negative rho (up, down):  1.809E-01 0.000E+00

     total cpu time spent up to now is        9.1 secs

     total energy              =      83.22700609 Ry
     Harris-Foulkes estimate   =   -2415.04152929 Ry
[...]
     Harris-Foulkes estimate   =     -61.64937196 Ry
     estimated scf accuracy    <      41.78857333 Ry

     iteration # 59     ecut=    30.00 Ry     beta=0.70
     Davidson diagonalization with overlap
     ethr =  1.00E-02,  avg # of iterations =  1.0

     negative rho (up, down):  7.355E-02 0.000E+00

     total cpu time spent up to now is       11.4 secs

     total energy              =     -52.13790072 Ry
     Harris-Foulkes estimate   =     -56.98614668 Ry
     estimated scf accuracy    <      35.84536999 Ry

     iteration # 60     ecut=    30.00 Ry     beta=0.70
     Davidson diagonalization with overlap
     ethr =  1.00E-02,  avg # of iterations =  8.0

     negative rho (up, down):  4.304E-02 0.000E+00

     total cpu time spent up to now is       11.4 secs

     total energy              =      55.00993970 Ry
     Harris-Foulkes estimate   =    -535.52731514 Ry
     estimated scf accuracy    <      40.35908227 Ry

     iteration # 61     ecut=    30.00 Ry     beta=0.70
     Davidson diagonalization with overlap
     ethr =  1.00E-02,  avg # of iterations =  5.0

     negative rho (up, down):  4.802E-02 0.000E+00

     total cpu time spent up to now is       11.5 secs

     total energy              =      16.50071826 Ry
     Harris-Foulkes estimate   =    -253.05471841 Ry
     estimated scf accuracy    <      22.04759874 Ry

     iteration # 62     ecut=    30.00 Ry     beta=0.70
     Davidson diagonalization with overlap
     ethr =  1.00E-02,  avg # of iterations =  6.0

     negative rho (up, down):  7.083E-02 0.000E+00

     total cpu time spent up to now is       11.5 secs

     total energy              =     -41.72017566 Ry
     Harris-Foulkes estimate   =     -62.05239488 Ry
     estimated scf accuracy    <      30.62605267 Ry

     iteration # 63     ecut=    30.00 Ry     beta=0.70
     Davidson diagonalization with overlap
     ethr =  1.00E-02,  avg # of iterations =  4.0

     negative rho (up, down):  8.701E-02 0.000E+00

     total cpu time spent up to now is       11.6 secs

     total energy              =     -14.27879370 Ry
     Harris-Foulkes estimate   =    -119.76793471 Ry
     estimated scf accuracy    <      20.59122812 Ry

     iteration # 64     ecut=    30.00 Ry     beta=0.70
     Davidson diagonalization with overlap
     ethr =  1.00E-02,  avg # of iterations =  4.0

     negative rho (up, down):  1.155E-02 0.000E+00

     total cpu time spent up to now is       11.6 secs

     total energy              =      -0.79783889 Ry
     Harris-Foulkes estimate   =    -236.11237099 Ry
     estimated scf accuracy    <      13.06695812 Ry

     iteration # 65     ecut=    30.00 Ry     beta=0.70
     Davidson diagonalization with overlap
     ethr =  1.00E-02,  avg # of iterations =  5.0

     negative rho (up, down):  5.537E-02 0.000E+00

     total cpu time spent up to now is       11.7 secs

     total energy              =      15.78159837 Ry
     Harris-Foulkes estimate   =    -220.92945187 Ry
     estimated scf accuracy    <      11.76746657 Ry

     iteration # 66     ecut=    30.00 Ry     beta=0.70
     Davidson diagonalization with overlap
     ethr =  1.00E-02,  avg # of iterations =  4.0

     negative rho (up, down):  2.143E-01 0.000E+00

     total cpu time spent up to now is       11.7 secs

     total energy              =     -12.06527611 Ry
     Harris-Foulkes estimate   =    -491.74706983 Ry
     estimated scf accuracy    <      18.73956663 Ry

     iteration # 67     ecut=    30.00 Ry     beta=0.70
     Davidson diagonalization with overlap
     ethr =  1.00E-02,  avg # of iterations =  7.0

     negative rho (up, down):  1.858E-01 0.000E+00

     total cpu time spent up to now is       11.8 secs

     total energy              =     -46.76211477 Ry
     Harris-Foulkes estimate   =    -462.32154823 Ry
     estimated scf accuracy    <      34.67584741 Ry

     iteration # 68     ecut=    30.00 Ry     beta=0.70
     Davidson diagonalization with overlap
     ethr =  1.00E-02,  avg # of iterations =  6.0

     negative rho (up, down):  1.863E-01 0.000E+00

     total cpu time spent up to now is       11.8 secs

     total energy              =      69.53002432 Ry
     Harris-Foulkes estimate   =    -434.12842908 Ry
     estimated scf accuracy    <      19.15942785 Ry

     iteration # 69     ecut=    30.00 Ry     beta=0.70
     Davidson diagonalization with overlap
     ethr =  1.00E-02,  avg # of iterations =  7.0

     negative rho (up, down):  2.321E-01 0.000E+00

     total cpu time spent up to now is       11.9 secs

     total energy              =     -29.45756554 Ry
     Harris-Foulkes estimate   =     -50.34384576 Ry
     estimated scf accuracy    <      27.75954647 Ry

     iteration # 70     ecut=    30.00 Ry     beta=0.70
     Davidson diagonalization with overlap
     ethr =  1.00E-02,  avg # of iterations = 12.0

     negative rho (up, down):  1.046E-01 0.000E+00

     total cpu time spent up to now is       11.9 secs

     total energy              =      45.45684165 Ry
     Harris-Foulkes estimate   =    -176.12847681 Ry
     estimated scf accuracy    <      19.44716479 Ry

     iteration # 71     ecut=    30.00 Ry     beta=0.70
     Davidson diagonalization with overlap
     ethr =  1.00E-02,  avg # of iterations =  5.0

     negative rho (up, down):  1.388E-01 0.000E+00

     total cpu time spent up to now is       12.0 secs

     total energy              =      37.00022266 Ry
     Harris-Foulkes estimate   =    -233.60707273 Ry
     estimated scf accuracy    <      26.27332218 Ry

     iteration # 72     ecut=    30.00 Ry     beta=0.70
     Davidson diagonalization with overlap
     ethr =  1.00E-02,  avg # of iterations =  5.0

     negative rho (up, down):  1.420E-01 0.000E+00

     total cpu time spent up to now is       12.0 secs

     total energy              =      -7.08846869 Ry
     Harris-Foulkes estimate   =    -116.77619474 Ry
     estimated scf accuracy    <      15.43896978 Ry

     iteration # 73     ecut=    30.00 Ry     beta=0.70
     Davidson diagonalization with overlap
     ethr =  1.00E-02,  avg # of iterations = 12.0

     negative rho (up, down):  1.398E-01 0.000E+00

     total cpu time spent up to now is       12.1 secs

     total energy              =      40.38445489 Ry
     Harris-Foulkes estimate   =    -121.59389736 Ry
     estimated scf accuracy    <      23.22984381 Ry

     iteration # 74     ecut=    30.00 Ry     beta=0.70
     Davidson diagonalization with overlap
     ethr =  1.00E-02,  avg # of iterations =  6.0

     negative rho (up, down):  2.088E-01 0.000E+00

     total cpu time spent up to now is       12.1 secs

     total energy              =   -8678.64890568 Ry
     Harris-Foulkes estimate   =    -106.53649454 Ry
     estimated scf accuracy    <      14.93391830 Ry

     iteration # 75     ecut=    30.00 Ry     beta=0.70
     Davidson diagonalization with overlap
     ethr =  1.00E-02,  avg # of iterations =  5.0

     negative rho (up, down):  3.604E-02 0.000E+00

     total cpu time spent up to now is       12.2 secs

     total energy              =     112.92491872 Ry
     Harris-Foulkes estimate   =  -35659.78305850 Ry
     estimated scf accuracy    <      34.88784244 Ry

     iteration # 76     ecut=    30.00 Ry     beta=0.70
     Davidson diagonalization with overlap
     ethr =  1.00E-02,  avg # of iterations = 10.0

     negative rho (up, down):  2.739E-01 0.000E+00

     total cpu time spent up to now is       12.2 secs

     total energy              =     -88.00680301 Ry
     Harris-Foulkes estimate   =     -55.68746661 Ry
     estimated scf accuracy    <      22.28594304 Ry

     iteration # 77     ecut=    30.00 Ry     beta=0.70
     Davidson diagonalization with overlap
     ethr =  1.00E-02,  avg # of iterations =  8.0

     negative rho (up, down):  4.053E-01 0.000E+00

     total cpu time spent up to now is       12.3 secs

     total energy              =      62.66081305 Ry
     Harris-Foulkes estimate   =   -1121.14062552 Ry
     estimated scf accuracy    <      35.96921711 Ry

     iteration # 78     ecut=    30.00 Ry     beta=0.70
     Davidson diagonalization with overlap
     ethr =  1.00E-02,  avg # of iterations =  7.0

     negative rho (up, down):  5.070E-01 0.000E+00

     total cpu time spent up to now is       12.3 secs

     total energy              =    -733.29021792 Ry
     Harris-Foulkes estimate   =    -163.99596193 Ry
     estimated scf accuracy    <      33.59480141 Ry

     iteration # 79     ecut=    30.00 Ry     beta=0.70
     Davidson diagonalization with overlap
     ethr =  1.00E-02,  avg # of iterations =  8.0

     negative rho (up, down):  5.083E-01 0.000E+00

     total cpu time spent up to now is       12.4 secs

     total energy              =    -653.18055523 Ry
     Harris-Foulkes estimate   =   -7614.03891883 Ry
     estimated scf accuracy    <      33.11405122 Ry

     iteration # 80     ecut=    30.00 Ry     beta=0.70
     Davidson diagonalization with overlap
     ethr =  1.00E-02,  avg # of iterations =  9.0

     negative rho (up, down):  3.583E-03 0.000E+00

     total cpu time spent up to now is       12.4 secs

     total energy              =     131.27004219 Ry
     Harris-Foulkes estimate   =  -10564.60866023 Ry
     estimated scf accuracy    <      30.11480358 Ry

     iteration # 81     ecut=    30.00 Ry     beta=0.70
     Davidson diagonalization with overlap
     ethr =  1.00E-02,  avg # of iterations =  7.0

     negative rho (up, down):  6.549E-02 0.000E+00

     total cpu time spent up to now is       12.5 secs

     total energy              =      -0.73987175 Ry
     Harris-Foulkes estimate   =    -237.00024281 Ry
     estimated scf accuracy    <      10.90528226 Ry

     iteration # 82     ecut=    30.00 Ry     beta=0.70
     Davidson diagonalization with overlap
     ethr =  1.00E-02,  avg # of iterations =  6.0

     negative rho (up, down):  1.500E-01 0.000E+00

     total cpu time spent up to now is       12.5 secs

     total energy              =      27.61402305 Ry
     Harris-Foulkes estimate   =    -257.15208714 Ry
     estimated scf accuracy    <      16.19637613 Ry

     iteration # 83     ecut=    30.00 Ry     beta=0.70
     Davidson diagonalization with overlap
     ethr =  1.00E-02,  avg # of iterations =  5.0

     negative rho (up, down):  1.717E-01 0.000E+00

     total cpu time spent up to now is       12.6 secs

     total energy              =      -9.00490969 Ry
     Harris-Foulkes estimate   =    -350.57527061 Ry
     estimated scf accuracy    <      18.08126930 Ry

     iteration # 84     ecut=    30.00 Ry     beta=0.70
     Davidson diagonalization with overlap
     ethr =  1.00E-02,  avg # of iterations = 12.0

     negative rho (up, down):  2.353E-01 0.000E+00

     total cpu time spent up to now is       12.7 secs

     total energy              =      -6.90768981 Ry
     Harris-Foulkes estimate   =  -11128.06803774 Ry
     estimated scf accuracy    <      21.78704408 Ry

     iteration # 85     ecut=    30.00 Ry     beta=0.70
     Davidson diagonalization with overlap
     ethr =  1.00E-02,  avg # of iterations =  5.0

     negative rho (up, down):  2.442E-01 0.000E+00

     total cpu time spent up to now is       12.7 secs

     total energy              =   -5614.22717182 Ry
     Harris-Foulkes estimate   =    -984.18900169 Ry
     estimated scf accuracy    <      23.11725933 Ry

     iteration # 86     ecut=    30.00 Ry     beta=0.70
     Davidson diagonalization with overlap
     ethr =  1.00E-02,  avg # of iterations =  7.0

     negative rho (up, down):  2.868E-01 0.000E+00

     total cpu time spent up to now is       12.7 secs

     total energy              =    -988.72515835 Ry
     Harris-Foulkes estimate   =  -21033.11985666 Ry
     estimated scf accuracy    <      38.54590519 Ry

     iteration # 87     ecut=    30.00 Ry     beta=0.70
     Davidson diagonalization with overlap
     ethr =  1.00E-02,  avg # of iterations =  9.0

     negative rho (up, down):  2.966E-01 0.000E+00

     total cpu time spent up to now is       12.8 secs

     total energy              =   -2040.20532248 Ry
     Harris-Foulkes estimate   =   -2424.82561839 Ry
     estimated scf accuracy    <      33.42847882 Ry

     iteration # 88     ecut=    30.00 Ry     beta=0.70
     Davidson diagonalization with overlap
     ethr =  1.00E-02,  avg # of iterations =  8.0

     negative rho (up, down):  1.153E-02 0.000E+00

     total cpu time spent up to now is       12.9 secs

     total energy              =      92.64295340 Ry
     Harris-Foulkes estimate   =   -7544.86412375 Ry
     estimated scf accuracy    <      21.33510832 Ry

     iteration # 89     ecut=    30.00 Ry     beta=0.70
     Davidson diagonalization with overlap
     ethr =  1.00E-02,  avg # of iterations = 11.0

     negative rho (up, down):  7.817E-02 0.000E+00

     total cpu time spent up to now is       12.9 secs

     total energy              =     -10.01109904 Ry
     Harris-Foulkes estimate   =     -96.02004269 Ry
     estimated scf accuracy    <      16.33771106 Ry

     iteration # 90     ecut=    30.00 Ry     beta=0.70
     Davidson diagonalization with overlap
     ethr =  1.00E-02,  avg # of iterations =  7.0

     negative rho (up, down):  2.274E-01 0.000E+00

     total cpu time spent up to now is       13.0 secs

     total energy              =     -73.14553166 Ry
     Harris-Foulkes estimate   =    -135.22098707 Ry
     estimated scf accuracy    <      39.24997973 Ry

     iteration # 91     ecut=    30.00 Ry     beta=0.70
     Davidson diagonalization with overlap
     ethr =  1.00E-02,  avg # of iterations =  5.0

     negative rho (up, down):  5.905E-01 0.000E+00

     total cpu time spent up to now is       13.0 secs

     total energy              =       5.26683141 Ry
     Harris-Foulkes estimate   =    -894.93997018 Ry
     estimated scf accuracy    <      33.06686513 Ry

     iteration # 92     ecut=    30.00 Ry     beta=0.70
     Davidson diagonalization with overlap
     ethr =  1.00E-02,  avg # of iterations =  5.0

     negative rho (up, down):  6.858E-01 0.000E+00

     total cpu time spent up to now is       13.1 secs

     total energy              =    -300.03756253 Ry
     Harris-Foulkes estimate   =    -970.29254617 Ry
     estimated scf accuracy    <      33.86042529 Ry

     iteration # 93     ecut=    30.00 Ry     beta=0.70
     Davidson diagonalization with overlap
     ethr =  1.00E-02,  avg # of iterations =  6.0

     negative rho (up, down):  7.664E-01 0.000E+00

     total cpu time spent up to now is       13.1 secs

     total energy              =      -2.98612774 Ry
     Harris-Foulkes estimate   =  -10592.98848753 Ry
     estimated scf accuracy    <      30.44745717 Ry

     iteration # 94     ecut=    30.00 Ry     beta=0.70
     Davidson diagonalization with overlap
     ethr =  1.00E-02,  avg # of iterations =  7.0

     negative rho (up, down):  1.027E+00 0.000E+00

     total cpu time spent up to now is       13.2 secs

     total energy              =   -1586.52776532 Ry
     Harris-Foulkes estimate   =   -1331.40116947 Ry
     estimated scf accuracy    <      26.99283732 Ry

     iteration # 95     ecut=    30.00 Ry     beta=0.70
     Davidson diagonalization with overlap
     ethr =  1.00E-02,  avg # of iterations =  5.0

     negative rho (up, down):  4.315E-01 0.000E+00

     total cpu time spent up to now is       13.2 secs

     total energy              =      63.60708380 Ry
     Harris-Foulkes estimate   =  -28960.59925934 Ry
     estimated scf accuracy    <      27.99997382 Ry

     iteration # 96     ecut=    30.00 Ry     beta=0.70
     Davidson diagonalization with overlap
     ethr =  1.00E-02,  avg # of iterations =  8.0

     negative rho (up, down):  6.048E-01 0.000E+00

     total cpu time spent up to now is       13.3 secs

     total energy              =    -596.71127863 Ry
     Harris-Foulkes estimate   =    -864.01644242 Ry
     estimated scf accuracy    <      25.31011039 Ry

     iteration # 97     ecut=    30.00 Ry     beta=0.70
     Davidson diagonalization with overlap
     ethr =  1.00E-02,  avg # of iterations =  8.0

     negative rho (up, down):  7.621E-01 0.000E+00

     total cpu time spent up to now is       13.4 secs

     total energy              =      84.67075330 Ry
     Harris-Foulkes estimate   =   -5772.15770808 Ry
     estimated scf accuracy    <      34.43541960 Ry

     iteration # 98     ecut=    30.00 Ry     beta=0.70
     Davidson diagonalization with overlap
     ethr =  1.00E-02,  avg # of iterations =  8.0

     negative rho (up, down):  9.821E-01 0.000E+00

     total cpu time spent up to now is       13.4 secs

     total energy              =   -1661.50585492 Ry
     Harris-Foulkes estimate   =    -642.43512985 Ry
     estimated scf accuracy    <      30.39868516 Ry

     iteration # 99     ecut=    30.00 Ry     beta=0.70
     Davidson diagonalization with overlap
     ethr =  1.00E-02,  avg # of iterations = 10.0

     negative rho (up, down):  2.072E-01 0.000E+00

     total cpu time spent up to now is       13.5 secs

     total energy              =     109.18255409 Ry
     Harris-Foulkes estimate   =  -14001.82329748 Ry
     estimated scf accuracy    <      19.35403188 Ry

     iteration #100     ecut=    30.00 Ry     beta=0.70
     Davidson diagonalization with overlap
     ethr =  1.00E-02,  avg # of iterations =  7.0

     negative rho (up, down):  2.021E-01 0.000E+00

     total cpu time spent up to now is       13.5 secs

     total energy              =     114.66115111 Ry
     Harris-Foulkes estimate   =   -1876.21280556 Ry
     estimated scf accuracy    <      31.45451887 Ry

     End of self-consistent calculation

     convergence NOT achieved after 100 iterations: stopping

     Writing output data file pwscf.save
 
     init_run     :      0.16s CPU      0.18s WALL (       1 calls)
     electrons    :      8.76s CPU     11.64s WALL (       7 calls)
     update_pot   :      0.71s CPU      1.07s WALL (       6 calls)
     forces       :      0.16s CPU      0.16s WALL (       6 calls)

     Called by init_run:
     wfcinit      :      0.01s CPU      0.02s WALL (       1 calls)
     potinit      :      0.05s CPU      0.05s WALL (       1 calls)

     Called by electrons:
     c_bands      :      4.44s CPU      4.97s WALL (     243 calls)
     sum_band     :      0.70s CPU      0.78s WALL (     243 calls)
     v_of_rho     :      1.87s CPU      2.19s WALL (     250 calls)
     mix_rho      :      1.48s CPU      2.79s WALL (     243 calls)

     Called by c_bands:
     init_us_2    :      0.02s CPU      0.03s WALL (     487 calls)
     cegterg      :      4.39s CPU      4.84s WALL (     243 calls)

     Called by sum_band:

     Called by *egterg:
     h_psi        :      3.66s CPU      4.03s WALL (    1336 calls)
     g_psi        :      0.04s CPU      0.04s WALL (    1092 calls)
     cdiaghg      :      0.28s CPU      0.31s WALL (    1329 calls)

     Called by h_psi:
     h_psi:pot    :      3.64s CPU      4.01s WALL (    1336 calls)
     h_psi:calbec :      0.10s CPU      0.18s WALL (    1336 calls)
     vloc_psi     :      3.52s CPU      3.81s WALL (    1336 calls)
     add_vuspsi   :      0.01s CPU      0.01s WALL (    1336 calls)

     General routines
     calbec       :      0.14s CPU      0.23s WALL (    1365 calls)
     fft          :      1.23s CPU      1.42s WALL (    2762 calls)
     fftw         :      3.62s CPU      3.96s WALL (   15994 calls)
     davcio       :      0.25s CPU      1.07s WALL (    4250 calls)
 
     Parallel routines
     fft_scatter  :      1.99s CPU      2.41s WALL (   18756 calls)
 
     PWSCF        :    10.06s CPU        13.62s WALL

 
   This run was terminated on:   2:10:43  11Feb2018            

=------------------------------------------------------------------------------=
   JOB DONE.
=------------------------------------------------------------------------------=
