
     Program PWSCF v.6.0 (svn rev. 13079) starts on 11Feb2018 at  2:17: 1 

     This program is part of the open-source Quantum ESPRESSO suite
     for quantum simulation of materials; please cite
         "P. Giannozzi et al., J. Phys.:Condens. Matter 21 395502 (2009);
          URL http://www.quantum-espresso.org", 
     in publications or presentations arising from this work. More details at
     http://www.quantum-espresso.org/quote

     Parallel version (MPI), running on    28 processors
     R & G space division:  proc/nbgrp/npool/nimage =      28
     Reading input from inputs/water-1-md/470.in

     Current dimensions of program PWSCF are:
     Max number of different atomic species (ntypx) = 10
     Max number of k-points (npk) =  40000
     Max angular momentum in pseudopotentials (lmaxx) =  3

     Subspace diagonalization in iterative solution of the eigenvalue problem:
     a serial algorithm will be used

 
     Parallelization info
     --------------------
     sticks:   dense  smooth     PW     G-vecs:    dense   smooth      PW
     Min         136     136     33                 6338     6338     787
     Max         137     137     34                 6341     6341     792
     Sum        3809    3809    949               177509   177509   22119
 


     bravais-lattice index     =            1
     lattice parameter (alat)  =      20.0000  a.u.
     unit-cell volume          =    8000.0000 (a.u.)^3
     number of atoms/cell      =            3
     number of atomic types    =            2
     number of electrons       =         8.00
     number of Kohn-Sham states=            8
     kinetic-energy cutoff     =      30.0000  Ry
     charge density cutoff     =     120.0000  Ry
     convergence threshold     =      1.0E-08
     mixing beta               =       0.7000
     number of iterations used =            8  plain     mixing
     Exchange-correlation      = BLYP ( 1  3  1  3 0 0)
     nstep                     =         5000


     celldm(1)=  20.000000  celldm(2)=   0.000000  celldm(3)=   0.000000
     celldm(4)=   0.000000  celldm(5)=   0.000000  celldm(6)=   0.000000

     crystal axes: (cart. coord. in units of alat)
               a(1) = (   1.000000   0.000000   0.000000 )  
               a(2) = (   0.000000   1.000000   0.000000 )  
               a(3) = (   0.000000   0.000000   1.000000 )  

     reciprocal axes: (cart. coord. in units 2 pi/alat)
               b(1) = (  1.000000  0.000000  0.000000 )  
               b(2) = (  0.000000  1.000000  0.000000 )  
               b(3) = (  0.000000  0.000000  1.000000 )  


     PseudoPot. # 1 for  H read from file:
     ./H.blyp-hgh.UPF
     MD5 check sum: c576e69559cde411e611be972c763230
     Pseudo is Norm-conserving, Zval =  1.0
     Generated in analytical, separable form
     Using radial grid of  929 points,  0 beta functions with: 

     PseudoPot. # 2 for  O read from file:
     ./O.blyp-hgh.UPF
     MD5 check sum: d0b7156309aa9befef28faac7bc56342
     Pseudo is Norm-conserving, Zval =  6.0
     Generated in analytical, separable form
     Using radial grid of 1095 points,  1 beta functions with: 
                l(1) =   0

     atomic species   valence    mass     pseudopotential
        H              1.00     1.01000      H( 1.00)
        O              6.00    16.00000      O( 1.00)

     No symmetry found



   Cartesian axes

     site n.     atom                  positions (alat units)
         1           H   tau(   1) = (   0.3779058   0.1667421   0.3339401  )
         2           H   tau(   2) = (   0.4930401   0.8103008   0.0045027  )
         3           O   tau(   3) = (   0.1755692   0.0832044   0.1447459  )

     number of k points=     1  Marzari-Vanderbilt smearing, width (Ry)=  0.0250
                       cart. coord. in units 2pi/alat
        k(    1) = (   0.0000000   0.0000000   0.0000000), wk =   2.0000000

     Dense  grid:   177509 G-vectors     FFT dimensions: (  72,  72,  72)

     Estimated max dynamical RAM per process >       6.09Mb

     Estimated total allocated dynamical RAM >     170.64Mb

     Initial potential from superposition of free atoms
     Check: negative starting charge=   -0.339860

     starting charge    7.99998, renormalised to    8.00000

     negative rho (up, down):  3.399E-01 0.000E+00
     Starting wfc are    6 randomized atomic wfcs +    2 random wfc

     total cpu time spent up to now is        0.2 secs

     per-process dynamical memory:    18.8 Mb

     Self-consistent Calculation

     iteration #  1     ecut=    30.00 Ry     beta=0.70
     Davidson diagonalization with overlap
     ethr =  1.00E-02,  avg # of iterations =  8.0

     negative rho (up, down):  8.278E-02 0.000E+00

     total cpu time spent up to now is        0.3 secs

     total energy              =     -28.59745489 Ry
     Harris-Foulkes estimate   =     -32.05896668 Ry
     estimated scf accuracy    <       4.00030292 Ry

     iteration #  2     ecut=    30.00 Ry     beta=0.70
     Davidson diagonalization with overlap
     ethr =  1.00E-02,  avg # of iterations =  4.0

     negative rho (up, down):  6.092E-02 0.000E+00

     total cpu time spent up to now is        0.3 secs

     total energy              =     -32.38495367 Ry
     Harris-Foulkes estimate   =     -37.06552902 Ry
     estimated scf accuracy    <      11.59702187 Ry

     iteration #  3     ecut=    30.00 Ry     beta=0.70
     Davidson diagonalization with overlap
     ethr =  1.00E-02,  avg # of iterations =  4.0

     negative rho (up, down):  6.374E-02 0.000E+00

     total cpu time spent up to now is        0.4 secs

     total energy              =     -32.97752168 Ry
     Harris-Foulkes estimate   =     -32.71323027 Ry
     estimated scf accuracy    <       4.36331301 Ry

     iteration #  4     ecut=    30.00 Ry     beta=0.70
     Davidson diagonalization with overlap
     ethr =  1.00E-02,  avg # of iterations =  1.0

     negative rho (up, down):  2.503E-02 0.000E+00

     total cpu time spent up to now is        0.4 secs

     total energy              =     -30.30471915 Ry
     Harris-Foulkes estimate   =     -32.97882987 Ry
     estimated scf accuracy    <       4.77442979 Ry

     iteration #  5     ecut=    30.00 Ry     beta=0.70
     Davidson diagonalization with overlap
     ethr =  1.00E-02,  avg # of iterations =  2.0

     negative rho (up, down):  1.531E-02 0.000E+00

     total cpu time spent up to now is        0.4 secs

     total energy              =     -32.98716142 Ry
     Harris-Foulkes estimate   =     -33.16315620 Ry
     estimated scf accuracy    <      12.87956803 Ry

     iteration #  6     ecut=    30.00 Ry     beta=0.70
     Davidson diagonalization with overlap
     ethr =  1.00E-02,  avg # of iterations =  1.0

     negative rho (up, down):  4.747E-03 0.000E+00

     total cpu time spent up to now is        0.5 secs

     total energy              =     -32.74891793 Ry
     Harris-Foulkes estimate   =     -33.00532898 Ry
     estimated scf accuracy    <       9.06781260 Ry

     iteration #  7     ecut=    30.00 Ry     beta=0.70
     Davidson diagonalization with overlap
     ethr =  1.00E-02,  avg # of iterations =  1.0

     negative rho (up, down):  2.700E-03 0.000E+00

     total cpu time spent up to now is        0.5 secs

     total energy              =     -32.40937350 Ry
     Harris-Foulkes estimate   =     -32.80130943 Ry
     estimated scf accuracy    <       5.64964335 Ry

     iteration #  8     ecut=    30.00 Ry     beta=0.70
     Davidson diagonalization with overlap
     ethr =  1.00E-02,  avg # of iterations =  1.0

     negative rho (up, down):  2.957E-02 0.000E+00

     total cpu time spent up to now is        0.5 secs

     total energy              =     -31.45708910 Ry
     Harris-Foulkes estimate   =     -32.41520825 Ry
     estimated scf accuracy    <       4.93515163 Ry

     iteration #  9     ecut=    30.00 Ry     beta=0.70
     Davidson diagonalization with overlap
     ethr =  1.00E-02,  avg # of iterations =  2.0

     negative rho (up, down):  2.589E-02 0.000E+00

     total cpu time spent up to now is        0.6 secs

     total energy              =     -31.54725145 Ry
     Harris-Foulkes estimate   =     -31.52431846 Ry
     estimated scf accuracy    <       0.73430830 Ry

     iteration # 10     ecut=    30.00 Ry     beta=0.70
     Davidson diagonalization with overlap
     ethr =  9.18E-03,  avg # of iterations =  1.0

     negative rho (up, down):  2.588E-02 0.000E+00

     total cpu time spent up to now is        0.6 secs

     total energy              =     -31.62953339 Ry
     Harris-Foulkes estimate   =     -31.56652982 Ry
     estimated scf accuracy    <       2.97723057 Ry

     iteration # 11     ecut=    30.00 Ry     beta=0.70
     Davidson diagonalization with overlap
     ethr =  9.18E-03,  avg # of iterations =  1.0

     negative rho (up, down):  1.541E-02 0.000E+00

     total cpu time spent up to now is        0.6 secs

     total energy              =     -31.59437537 Ry
     Harris-Foulkes estimate   =     -31.63042269 Ry
     estimated scf accuracy    <       3.08331470 Ry

     iteration # 12     ecut=    30.00 Ry     beta=0.70
     Davidson diagonalization with overlap
     ethr =  9.18E-03,  avg # of iterations =  1.0

     negative rho (up, down):  5.371E-02 0.000E+00

     total cpu time spent up to now is        0.7 secs

     total energy              =     -31.58086470 Ry
     Harris-Foulkes estimate   =     -31.59372830 Ry
     estimated scf accuracy    <       3.25441636 Ry

     iteration # 13     ecut=    30.00 Ry     beta=0.70
     Davidson diagonalization with overlap
     ethr =  9.18E-03,  avg # of iterations =  1.0

     negative rho (up, down):  8.769E-02 0.000E+00

     total cpu time spent up to now is        0.7 secs

     total energy              =     -32.07843090 Ry
     Harris-Foulkes estimate   =     -31.58802580 Ry
     estimated scf accuracy    <       1.81155537 Ry

     iteration # 14     ecut=    30.00 Ry     beta=0.70
     Davidson diagonalization with overlap
     ethr =  9.18E-03,  avg # of iterations =  1.0

     negative rho (up, down):  5.337E-02 0.000E+00

     total cpu time spent up to now is        0.7 secs

     total energy              =     -31.91198764 Ry
     Harris-Foulkes estimate   =     -32.22175275 Ry
     estimated scf accuracy    <       4.44007699 Ry

     iteration # 15     ecut=    30.00 Ry     beta=0.70
     Davidson diagonalization with overlap
     ethr =  9.18E-03,  avg # of iterations =  1.0

     negative rho (up, down):  1.501E-02 0.000E+00

     total cpu time spent up to now is        0.8 secs

     total energy              =     -31.81941595 Ry
     Harris-Foulkes estimate   =     -31.91642705 Ry
     estimated scf accuracy    <       3.86023496 Ry

     iteration # 16     ecut=    30.00 Ry     beta=0.70
     Davidson diagonalization with overlap
     ethr =  9.18E-03,  avg # of iterations =  1.0

     negative rho (up, down):  7.609E-03 0.000E+00

     total cpu time spent up to now is        0.8 secs

     total energy              =     -31.41579433 Ry
     Harris-Foulkes estimate   =     -31.82114818 Ry
     estimated scf accuracy    <       3.56048100 Ry

     iteration # 17     ecut=    30.00 Ry     beta=0.70
     Davidson diagonalization with overlap
     ethr =  9.18E-03,  avg # of iterations =  1.0

     negative rho (up, down):  1.644E-02 0.000E+00

     total cpu time spent up to now is        0.8 secs

     total energy              =     -31.64816361 Ry
     Harris-Foulkes estimate   =     -31.56948762 Ry
     estimated scf accuracy    <       0.72194345 Ry

     iteration # 18     ecut=    30.00 Ry     beta=0.70
     Davidson diagonalization with overlap
     ethr =  9.02E-03,  avg # of iterations =  1.0

     negative rho (up, down):  3.453E-02 0.000E+00

     total cpu time spent up to now is        0.9 secs

     total energy              =     -31.50582164 Ry
     Harris-Foulkes estimate   =     -31.96411157 Ry
     estimated scf accuracy    <       3.87892190 Ry

     iteration # 19     ecut=    30.00 Ry     beta=0.70
     Davidson diagonalization with overlap
     ethr =  9.02E-03,  avg # of iterations =  1.0

     negative rho (up, down):  1.024E-02 0.000E+00

     total cpu time spent up to now is        0.9 secs

     total energy              =     -31.35494954 Ry
     Harris-Foulkes estimate   =     -31.57423567 Ry
     estimated scf accuracy    <       1.13140823 Ry

     iteration # 20     ecut=    30.00 Ry     beta=0.70
     Davidson diagonalization with overlap
     ethr =  9.02E-03,  avg # of iterations =  1.0

     negative rho (up, down):  3.649E-03 0.000E+00

     total cpu time spent up to now is        0.9 secs

     total energy              =     -31.68467044 Ry
     Harris-Foulkes estimate   =     -31.93694902 Ry
     estimated scf accuracy    <       3.11369477 Ry

     iteration # 21     ecut=    30.00 Ry     beta=0.70
     Davidson diagonalization with overlap
     ethr =  9.02E-03,  avg # of iterations =  1.0

     negative rho (up, down):  2.745E-03 0.000E+00

     total cpu time spent up to now is        1.0 secs

     total energy              =     -31.44658164 Ry
     Harris-Foulkes estimate   =     -31.69517917 Ry
     estimated scf accuracy    <       2.39831129 Ry

     iteration # 22     ecut=    30.00 Ry     beta=0.70
     Davidson diagonalization with overlap
     ethr =  9.02E-03,  avg # of iterations =  1.0

     negative rho (up, down):  1.978E-03 0.000E+00

     total cpu time spent up to now is        1.0 secs

     total energy              =     -31.50512114 Ry
     Harris-Foulkes estimate   =     -31.53830585 Ry
     estimated scf accuracy    <       1.34047315 Ry

     iteration # 23     ecut=    30.00 Ry     beta=0.70
     Davidson diagonalization with overlap
     ethr =  9.02E-03,  avg # of iterations =  1.0

     negative rho (up, down):  9.109E-04 0.000E+00

     total cpu time spent up to now is        1.0 secs

     total energy              =     -31.52622294 Ry
     Harris-Foulkes estimate   =     -31.51989294 Ry
     estimated scf accuracy    <       0.04098962 Ry

     iteration # 24     ecut=    30.00 Ry     beta=0.70
     Davidson diagonalization with overlap
     ethr =  5.12E-04,  avg # of iterations =  1.0

     negative rho (up, down):  5.976E-04 0.000E+00

     total cpu time spent up to now is        1.1 secs

     total energy              =     -31.58234152 Ry
     Harris-Foulkes estimate   =     -31.59057962 Ry
     estimated scf accuracy    <       1.63388203 Ry

     iteration # 25     ecut=    30.00 Ry     beta=0.70
     Davidson diagonalization with overlap
     ethr =  5.12E-04,  avg # of iterations =  1.0

     negative rho (up, down):  1.095E-04 0.000E+00

     total cpu time spent up to now is        1.1 secs

     total energy              =     -31.61828926 Ry
     Harris-Foulkes estimate   =     -31.58429635 Ry
     estimated scf accuracy    <       1.25767785 Ry

     iteration # 26     ecut=    30.00 Ry     beta=0.70
     Davidson diagonalization with overlap
     ethr =  5.12E-04,  avg # of iterations =  1.0

     negative rho (up, down):  8.541E-05 0.000E+00

     total cpu time spent up to now is        1.1 secs

     total energy              =     -31.59093846 Ry
     Harris-Foulkes estimate   =     -31.62008054 Ry
     estimated scf accuracy    <       1.67179138 Ry

     iteration # 27     ecut=    30.00 Ry     beta=0.70
     Davidson diagonalization with overlap
     ethr =  5.12E-04,  avg # of iterations =  1.0

     negative rho (up, down):  2.150E-05 0.000E+00

     total cpu time spent up to now is        1.1 secs

     total energy              =     -31.53677658 Ry
     Harris-Foulkes estimate   =     -31.59209040 Ry
     estimated scf accuracy    <       1.32826708 Ry

     iteration # 28     ecut=    30.00 Ry     beta=0.70
     Davidson diagonalization with overlap
     ethr =  5.12E-04,  avg # of iterations =  1.0

     negative rho (up, down):  1.412E-04 0.000E+00

     total cpu time spent up to now is        1.2 secs

     total energy              =     -31.43762605 Ry
     Harris-Foulkes estimate   =     -31.53756647 Ry
     estimated scf accuracy    <       0.96996122 Ry

     iteration # 29     ecut=    30.00 Ry     beta=0.70
     Davidson diagonalization with overlap
     ethr =  5.12E-04,  avg # of iterations =  1.0

     total cpu time spent up to now is        1.2 secs

     total energy              =     -31.50491532 Ry
     Harris-Foulkes estimate   =     -31.58684817 Ry
     estimated scf accuracy    <       1.80434253 Ry

     iteration # 30     ecut=    30.00 Ry     beta=0.70
     Davidson diagonalization with overlap
     ethr =  5.12E-04,  avg # of iterations =  1.0

     total cpu time spent up to now is        1.2 secs

     total energy              =     -31.51646805 Ry
     Harris-Foulkes estimate   =     -31.51980328 Ry
     estimated scf accuracy    <       0.14827896 Ry

     iteration # 31     ecut=    30.00 Ry     beta=0.70
     Davidson diagonalization with overlap
     ethr =  5.12E-04,  avg # of iterations =  1.0

     total cpu time spent up to now is        1.3 secs

     total energy              =     -31.51807650 Ry
     Harris-Foulkes estimate   =     -31.51854360 Ry
     estimated scf accuracy    <       0.01884425 Ry

     iteration # 32     ecut=    30.00 Ry     beta=0.70
     Davidson diagonalization with overlap
     ethr =  2.36E-04,  avg # of iterations =  1.0

     total cpu time spent up to now is        1.3 secs

     total energy              =     -31.51800667 Ry
     Harris-Foulkes estimate   =     -31.51852679 Ry
     estimated scf accuracy    <       0.03372791 Ry

     iteration # 33     ecut=    30.00 Ry     beta=0.70
     Davidson diagonalization with overlap
     ethr =  2.36E-04,  avg # of iterations =  1.0

     negative rho (up, down):  2.432E-08 0.000E+00

     total cpu time spent up to now is        1.4 secs

     total energy              =     -31.52261799 Ry
     Harris-Foulkes estimate   =     -31.51892172 Ry
     estimated scf accuracy    <       0.03734246 Ry

     iteration # 34     ecut=    30.00 Ry     beta=0.70
     Davidson diagonalization with overlap
     ethr =  2.36E-04,  avg # of iterations =  1.0

     negative rho (up, down):  2.683E-08 0.000E+00

     total cpu time spent up to now is        1.4 secs

     total energy              =     -31.52753885 Ry
     Harris-Foulkes estimate   =     -31.52983329 Ry
     estimated scf accuracy    <       0.79047207 Ry

     iteration # 35     ecut=    30.00 Ry     beta=0.70
     Davidson diagonalization with overlap
     ethr =  2.36E-04,  avg # of iterations =  1.0

     total cpu time spent up to now is        1.4 secs

     total energy              =     -31.51996807 Ry
     Harris-Foulkes estimate   =     -31.52768706 Ry
     estimated scf accuracy    <       0.62997625 Ry

     iteration # 36     ecut=    30.00 Ry     beta=0.70
     Davidson diagonalization with overlap
     ethr =  2.36E-04,  avg # of iterations =  1.0

     negative rho (up, down):  2.674E-06 0.000E+00

     total cpu time spent up to now is        1.5 secs

     total energy              =     -31.51928475 Ry
     Harris-Foulkes estimate   =     -31.52140474 Ry
     estimated scf accuracy    <       0.24802959 Ry

     iteration # 37     ecut=    30.00 Ry     beta=0.70
     Davidson diagonalization with overlap
     ethr =  2.36E-04,  avg # of iterations =  1.0

     total cpu time spent up to now is        1.5 secs

     total energy              =     -31.51571019 Ry
     Harris-Foulkes estimate   =     -31.51968926 Ry
     estimated scf accuracy    <       0.14399244 Ry

     iteration # 38     ecut=    30.00 Ry     beta=0.70
     Davidson diagonalization with overlap
     ethr =  2.36E-04,  avg # of iterations =  1.0

     total cpu time spent up to now is        1.5 secs

     total energy              =     -31.51792180 Ry
     Harris-Foulkes estimate   =     -31.51796717 Ry
     estimated scf accuracy    <       0.00241785 Ry

     iteration # 39     ecut=    30.00 Ry     beta=0.70
     Davidson diagonalization with overlap
     ethr =  3.02E-05,  avg # of iterations =  1.0

     total cpu time spent up to now is        1.6 secs

     total energy              =     -31.51792731 Ry
     Harris-Foulkes estimate   =     -31.51793775 Ry
     estimated scf accuracy    <       0.00021811 Ry

     iteration # 40     ecut=    30.00 Ry     beta=0.70
     Davidson diagonalization with overlap
     ethr =  2.73E-06,  avg # of iterations =  7.0

     negative rho (up, down):  1.010E-08 0.000E+00

     total cpu time spent up to now is        1.6 secs

     total energy              =     -31.51793520 Ry
     Harris-Foulkes estimate   =     -31.51793623 Ry
     estimated scf accuracy    <       0.00009853 Ry

     iteration # 41     ecut=    30.00 Ry     beta=0.70
     Davidson diagonalization with overlap
     ethr =  1.23E-06,  avg # of iterations =  1.0

     total cpu time spent up to now is        1.6 secs

     total energy              =     -31.51793556 Ry
     Harris-Foulkes estimate   =     -31.51793576 Ry
     estimated scf accuracy    <       0.00002773 Ry

     iteration # 42     ecut=    30.00 Ry     beta=0.70
     Davidson diagonalization with overlap
     ethr =  3.47E-07,  avg # of iterations =  1.0

     total cpu time spent up to now is        1.7 secs

     total energy              =     -31.51793499 Ry
     Harris-Foulkes estimate   =     -31.51793568 Ry
     estimated scf accuracy    <       0.00002566 Ry

     iteration # 43     ecut=    30.00 Ry     beta=0.70
     Davidson diagonalization with overlap
     ethr =  3.21E-07,  avg # of iterations =  1.0

     total cpu time spent up to now is        1.7 secs

     total energy              =     -31.51793531 Ry
     Harris-Foulkes estimate   =     -31.51793539 Ry
     estimated scf accuracy    <       0.00000931 Ry

     iteration # 44     ecut=    30.00 Ry     beta=0.70
     Davidson diagonalization with overlap
     ethr =  1.16E-07,  avg # of iterations =  1.0

     total cpu time spent up to now is        1.7 secs

     total energy              =     -31.51793536 Ry
     Harris-Foulkes estimate   =     -31.51793547 Ry
     estimated scf accuracy    <       0.00000163 Ry

     iteration # 45     ecut=    30.00 Ry     beta=0.70
     Davidson diagonalization with overlap
     ethr =  2.04E-08,  avg # of iterations =  1.0

     total cpu time spent up to now is        1.8 secs

     total energy              =     -31.51793542 Ry
     Harris-Foulkes estimate   =     -31.51793540 Ry
     estimated scf accuracy    <       0.00000008 Ry

     iteration # 46     ecut=    30.00 Ry     beta=0.70
     Davidson diagonalization with overlap
     ethr =  9.69E-10,  avg # of iterations =  1.0

     total cpu time spent up to now is        1.8 secs

     End of self-consistent calculation

          k = 0.0000 0.0000 0.0000 ( 22119 PWs)   bands (ev):

   -23.6233  -7.2944  -7.0321  -7.0224  -6.9047  -6.6387  -0.1615   0.6807

     the Fermi energy is    -6.8852 ev

!    total energy              =     -31.51793547 Ry
     Harris-Foulkes estimate   =     -31.51793543 Ry
     estimated scf accuracy    <          7.1E-09 Ry

     convergence has been achieved in  46 iterations

     Forces acting on atoms (Ry/au):

     atom    1 type  1   force =    -0.02484702   -0.01036005   -0.02363348
     atom    2 type  1   force =    -0.00013617    0.00031809    0.00002987
     atom    3 type  2   force =     0.02498319    0.01004196    0.02360361

     Total force =     0.050651     Total SCF correction =     0.000082

     Molecular Dynamics Calculation

     Starting temperature  =  1000.00 K

     temperature is controlled by Andersen thermostat
     Collision frequency = 1.0000/timestep
     mass H                =     1.01
     mass O                =    16.00
     Time step             =   100.00 a.u.,  4.8378 femto-seconds

     Entering Dynamics:    iteration =     1
                           time      =   0.0048 pico-seconds


     Andersen thermostat:    3 collisions

ATOMIC_POSITIONS (bohr)
H        7.654717873   3.555111709   6.352309250
H        9.866593773  16.436757729  -0.098679884
O        3.504920401   1.635617903   2.927441681


     kinetic energy (Ekin) =     0.01319564 Ry
     temperature           =   694.47456190 K 
     Ekin + Etot (const)   =   -31.50473983 Ry

     Linear momentum :    0.0000000000    0.0000000000   -0.0000000000

     Writing output data file pwscf.save
     Check: negative starting charge=   -0.339860
     NEW-OLD atomic charge density approx. for the potential
     Check: negative starting charge=   -0.340196

     negative rho (up, down):  8.433E-02 0.000E+00

     total cpu time spent up to now is        2.1 secs

     per-process dynamical memory:    20.4 Mb

     Self-consistent Calculation

     iteration #  1     ecut=    30.00 Ry     beta=0.70
     Davidson diagonalization with overlap
     c_bands:  1 eigenvalues not converged
     ethr =  1.00E-06,  avg # of iterations = 20.0

     negative rho (up, down):  2.055E-02 0.000E+00

     total cpu time spent up to now is        2.2 secs

     total energy              =     -31.47644495 Ry
     Harris-Foulkes estimate   =     -31.45655264 Ry
     estimated scf accuracy    <       0.03345872 Ry

     iteration #  2     ecut=    30.00 Ry     beta=0.70
     Davidson diagonalization with overlap
     ethr =  4.18E-04,  avg # of iterations =  2.0

     negative rho (up, down):  1.910E-02 0.000E+00

     total cpu time spent up to now is        2.2 secs

     total energy              =     -31.46847983 Ry
     Harris-Foulkes estimate   =     -31.84496601 Ry
     estimated scf accuracy    <       3.84880843 Ry

     iteration #  3     ecut=    30.00 Ry     beta=0.70
     Davidson diagonalization with overlap
     ethr =  4.18E-04,  avg # of iterations =  2.0

     negative rho (up, down):  1.813E-02 0.000E+00

     total cpu time spent up to now is        2.2 secs

     total energy              =     -31.49930732 Ry
     Harris-Foulkes estimate   =     -31.51003762 Ry
     estimated scf accuracy    <       0.22974794 Ry

     iteration #  4     ecut=    30.00 Ry     beta=0.70
     Davidson diagonalization with overlap
     ethr =  4.18E-04,  avg # of iterations =  1.0

     negative rho (up, down):  5.317E-03 0.000E+00

     total cpu time spent up to now is        2.3 secs

     total energy              =     -31.49441411 Ry
     Harris-Foulkes estimate   =     -31.50664506 Ry
     estimated scf accuracy    <       0.26081832 Ry

     iteration #  5     ecut=    30.00 Ry     beta=0.70
     Davidson diagonalization with overlap
     ethr =  4.18E-04,  avg # of iterations =  1.0

     negative rho (up, down):  2.974E-03 0.000E+00

     total cpu time spent up to now is        2.3 secs

     total energy              =     -31.51029405 Ry
     Harris-Foulkes estimate   =     -31.54472514 Ry
     estimated scf accuracy    <       1.44457998 Ry

     iteration #  6     ecut=    30.00 Ry     beta=0.70
     Davidson diagonalization with overlap
     ethr =  4.18E-04,  avg # of iterations =  1.0

     negative rho (up, down):  7.375E-04 0.000E+00

     total cpu time spent up to now is        2.3 secs

     total energy              =     -31.51550459 Ry
     Harris-Foulkes estimate   =     -31.52079471 Ry
     estimated scf accuracy    <       0.15421078 Ry

     iteration #  7     ecut=    30.00 Ry     beta=0.70
     Davidson diagonalization with overlap
     ethr =  4.18E-04,  avg # of iterations =  3.0

     negative rho (up, down):  9.884E-06 0.000E+00

     total cpu time spent up to now is        2.4 secs

     total energy              =     -31.51840514 Ry
     Harris-Foulkes estimate   =     -31.52251340 Ry
     estimated scf accuracy    <       0.15633370 Ry

     iteration #  8     ecut=    30.00 Ry     beta=0.70
     Davidson diagonalization with overlap
     ethr =  4.18E-04,  avg # of iterations =  1.0

     negative rho (up, down):  9.460E-06 0.000E+00

     total cpu time spent up to now is        2.4 secs

     total energy              =     -31.52086338 Ry
     Harris-Foulkes estimate   =     -31.52086521 Ry
     estimated scf accuracy    <       0.00498192 Ry

     iteration #  9     ecut=    30.00 Ry     beta=0.70
     Davidson diagonalization with overlap
     ethr =  6.23E-05,  avg # of iterations =  1.0

     negative rho (up, down):  6.595E-08 0.000E+00

     total cpu time spent up to now is        2.4 secs

     total energy              =     -31.52062571 Ry
     Harris-Foulkes estimate   =     -31.52086478 Ry
     estimated scf accuracy    <       0.00487467 Ry

     iteration # 10     ecut=    30.00 Ry     beta=0.70
     Davidson diagonalization with overlap
     ethr =  6.09E-05,  avg # of iterations =  1.0

     total cpu time spent up to now is        2.5 secs

     total energy              =     -31.52082859 Ry
     Harris-Foulkes estimate   =     -31.52090054 Ry
     estimated scf accuracy    <       0.00748151 Ry

     iteration # 11     ecut=    30.00 Ry     beta=0.70
     Davidson diagonalization with overlap
     ethr =  6.09E-05,  avg # of iterations =  1.0

     total cpu time spent up to now is        2.5 secs

     total energy              =     -31.52076966 Ry
     Harris-Foulkes estimate   =     -31.52084363 Ry
     estimated scf accuracy    <       0.00253820 Ry

     iteration # 12     ecut=    30.00 Ry     beta=0.70
     Davidson diagonalization with overlap
     ethr =  3.17E-05,  avg # of iterations =  1.0

     total cpu time spent up to now is        2.5 secs

     total energy              =     -31.52081555 Ry
     Harris-Foulkes estimate   =     -31.52081683 Ry
     estimated scf accuracy    <       0.00021817 Ry

     iteration # 13     ecut=    30.00 Ry     beta=0.70
     Davidson diagonalization with overlap
     ethr =  2.73E-06,  avg # of iterations = 15.0

     total cpu time spent up to now is        2.6 secs

     total energy              =     -31.52081624 Ry
     Harris-Foulkes estimate   =     -31.52081609 Ry
     estimated scf accuracy    <       0.00007873 Ry

     iteration # 14     ecut=    30.00 Ry     beta=0.70
     Davidson diagonalization with overlap
     ethr =  9.84E-07,  avg # of iterations =  1.0

     total cpu time spent up to now is        2.6 secs

     total energy              =     -31.52082160 Ry
     Harris-Foulkes estimate   =     -31.52081664 Ry
     estimated scf accuracy    <       0.00002967 Ry

     iteration # 15     ecut=    30.00 Ry     beta=0.70
     Davidson diagonalization with overlap
     ethr =  3.71E-07,  avg # of iterations =  1.0

     negative rho (up, down):  1.231E-06 0.000E+00

     total cpu time spent up to now is        2.6 secs

     total energy              =     -31.52081624 Ry
     Harris-Foulkes estimate   =     -31.52082305 Ry
     estimated scf accuracy    <       0.00008573 Ry

     iteration # 16     ecut=    30.00 Ry     beta=0.70
     Davidson diagonalization with overlap
     ethr =  3.71E-07,  avg # of iterations =  1.0

     negative rho (up, down):  4.408E-08 0.000E+00

     total cpu time spent up to now is        2.7 secs

     total energy              =     -31.52080942 Ry
     Harris-Foulkes estimate   =     -31.52081679 Ry
     estimated scf accuracy    <       0.00006434 Ry

     iteration # 17     ecut=    30.00 Ry     beta=0.70
     Davidson diagonalization with overlap
     ethr =  3.71E-07,  avg # of iterations =  1.0

     total cpu time spent up to now is        2.7 secs

     total energy              =     -31.52080943 Ry
     Harris-Foulkes estimate   =     -31.52081145 Ry
     estimated scf accuracy    <       0.00000849 Ry

     iteration # 18     ecut=    30.00 Ry     beta=0.70
     Davidson diagonalization with overlap
     ethr =  1.06E-07,  avg # of iterations =  2.0

     total cpu time spent up to now is        2.7 secs

     total energy              =     -31.52081059 Ry
     Harris-Foulkes estimate   =     -31.52081067 Ry
     estimated scf accuracy    <       0.00000010 Ry

     iteration # 19     ecut=    30.00 Ry     beta=0.70
     Davidson diagonalization with overlap
     ethr =  1.19E-09,  avg # of iterations =  2.0

     total cpu time spent up to now is        2.8 secs

     total energy              =     -31.52081036 Ry
     Harris-Foulkes estimate   =     -31.52081060 Ry
     estimated scf accuracy    <       0.00000003 Ry

     iteration # 20     ecut=    30.00 Ry     beta=0.70
     Davidson diagonalization with overlap
     ethr =  4.15E-10,  avg # of iterations =  2.0

     total cpu time spent up to now is        2.8 secs

     End of self-consistent calculation

          k = 0.0000 0.0000 0.0000 ( 22119 PWs)   bands (ev):

   -23.6242  -7.3161  -7.0316  -7.0210  -6.9019  -6.6190  -0.1590   0.6824

     the Fermi energy is    -6.8831 ev

!    total energy              =     -31.52081024 Ry
     Harris-Foulkes estimate   =     -31.52081036 Ry
     estimated scf accuracy    <          4.8E-09 Ry

     convergence has been achieved in  20 iterations

     Forces acting on atoms (Ry/au):

     atom    1 type  1   force =    -0.02808058   -0.01249706   -0.02392770
     atom    2 type  1   force =    -0.00008121    0.00092987   -0.00022523
     atom    3 type  2   force =     0.02816179    0.01156720    0.02415293

     Total force =     0.055031     Total SCF correction =     0.001974

     Entering Dynamics:    iteration =     2
                           time      =   0.0097 pico-seconds


     Andersen thermostat:    3 collisions

ATOMIC_POSITIONS (bohr)
H        7.402093059   3.595506382   6.237514124
H        9.928968075  16.293008167   0.075114618
O        3.516929965   1.642142180   2.923717346


     kinetic energy (Ekin) =     0.00664191 Ry
     temperature           =   349.55771902 K 
     Ekin + Etot (const)   =   -31.51416833 Ry
     Message from routine dynamics:
     Total linear momentum <> 0

     Linear momentum :   -0.0482643422    0.4839037204    0.0463385468

     Writing output data file pwscf.save

     first order wave-functions extrapolation
     Check: negative starting charge=   -0.340196
     first order charge density extrapolation
     Check: negative starting charge=   -0.340099

     negative rho (up, down):  1.130E-01 0.000E+00

     total cpu time spent up to now is        3.1 secs

     per-process dynamical memory:    20.4 Mb

     Self-consistent Calculation

     iteration #  1     ecut=    30.00 Ry     beta=0.70
     Davidson diagonalization with overlap
     c_bands:  1 eigenvalues not converged
     ethr =  1.00E-06,  avg # of iterations = 20.0

     negative rho (up, down):  2.802E-02 0.000E+00

     total cpu time spent up to now is        3.2 secs

     total energy              =     -31.45872239 Ry
     Harris-Foulkes estimate   =     -31.45260517 Ry
     estimated scf accuracy    <       0.05959317 Ry

     iteration #  2     ecut=    30.00 Ry     beta=0.70
     Davidson diagonalization with overlap
     ethr =  7.45E-04,  avg # of iterations =  2.0

     negative rho (up, down):  2.547E-02 0.000E+00

     total cpu time spent up to now is        3.3 secs

     total energy              =     -31.48275041 Ry
     Harris-Foulkes estimate   =     -31.98865653 Ry
     estimated scf accuracy    <       4.09827871 Ry

     iteration #  3     ecut=    30.00 Ry     beta=0.70
     Davidson diagonalization with overlap
     ethr =  7.45E-04,  avg # of iterations =  2.0

     negative rho (up, down):  2.512E-02 0.000E+00

     total cpu time spent up to now is        3.3 secs

     total energy              =     -31.51273553 Ry
     Harris-Foulkes estimate   =     -31.52661071 Ry
     estimated scf accuracy    <       1.46004101 Ry

     iteration #  4     ecut=    30.00 Ry     beta=0.70
     Davidson diagonalization with overlap
     ethr =  7.45E-04,  avg # of iterations =  1.0

     negative rho (up, down):  1.588E-02 0.000E+00

     total cpu time spent up to now is        3.3 secs

     total energy              =     -31.47615285 Ry
     Harris-Foulkes estimate   =     -31.51560161 Ry
     estimated scf accuracy    <       0.73262605 Ry

     iteration #  5     ecut=    30.00 Ry     beta=0.70
     Davidson diagonalization with overlap
     ethr =  7.45E-04,  avg # of iterations =  1.0

     negative rho (up, down):  5.413E-03 0.000E+00

     total cpu time spent up to now is        3.3 secs

     total energy              =     -31.50750903 Ry
     Harris-Foulkes estimate   =     -31.54024224 Ry
     estimated scf accuracy    <       1.17826178 Ry

     iteration #  6     ecut=    30.00 Ry     beta=0.70
     Davidson diagonalization with overlap
     ethr =  7.45E-04,  avg # of iterations =  1.0

     negative rho (up, down):  1.821E-03 0.000E+00

     total cpu time spent up to now is        3.4 secs

     total energy              =     -31.52939833 Ry
     Harris-Foulkes estimate   =     -31.52687884 Ry
     estimated scf accuracy    <       0.01249817 Ry

     iteration #  7     ecut=    30.00 Ry     beta=0.70
     Davidson diagonalization with overlap
     ethr =  1.56E-04,  avg # of iterations =  3.0

     negative rho (up, down):  7.291E-04 0.000E+00

     total cpu time spent up to now is        3.4 secs

     total energy              =     -31.53086161 Ry
     Harris-Foulkes estimate   =     -31.53180014 Ry
     estimated scf accuracy    <       0.11347332 Ry

     iteration #  8     ecut=    30.00 Ry     beta=0.70
     Davidson diagonalization with overlap
     ethr =  1.56E-04,  avg # of iterations =  1.0

     negative rho (up, down):  1.591E-05 0.000E+00

     total cpu time spent up to now is        3.4 secs

     total energy              =     -31.53065424 Ry
     Harris-Foulkes estimate   =     -31.53129937 Ry
     estimated scf accuracy    <       0.02383272 Ry

     iteration #  9     ecut=    30.00 Ry     beta=0.70
     Davidson diagonalization with overlap
     ethr =  1.56E-04,  avg # of iterations =  1.0

     total cpu time spent up to now is        3.5 secs

     total energy              =     -31.53104826 Ry
     Harris-Foulkes estimate   =     -31.53106169 Ry
     estimated scf accuracy    <       0.00101439 Ry

     iteration # 10     ecut=    30.00 Ry     beta=0.70
     Davidson diagonalization with overlap
     ethr =  1.27E-05,  avg # of iterations = 14.0

     total cpu time spent up to now is        3.5 secs

     total energy              =     -31.53105506 Ry
     Harris-Foulkes estimate   =     -31.53105596 Ry
     estimated scf accuracy    <       0.00004832 Ry

     iteration # 11     ecut=    30.00 Ry     beta=0.70
     Davidson diagonalization with overlap
     ethr =  6.04E-07,  avg # of iterations = 10.0

     total cpu time spent up to now is        3.6 secs

     total energy              =     -31.53105448 Ry
     Harris-Foulkes estimate   =     -31.53105520 Ry
     estimated scf accuracy    <       0.00001678 Ry

     iteration # 12     ecut=    30.00 Ry     beta=0.70
     Davidson diagonalization with overlap
     ethr =  2.10E-07,  avg # of iterations =  1.0

     total cpu time spent up to now is        3.6 secs

     total energy              =     -31.53105439 Ry
     Harris-Foulkes estimate   =     -31.53105470 Ry
     estimated scf accuracy    <       0.00000003 Ry

     iteration # 13     ecut=    30.00 Ry     beta=0.70
     Davidson diagonalization with overlap
     ethr =  4.01E-10,  avg # of iterations =  2.0

     total cpu time spent up to now is        3.7 secs

     total energy              =     -31.53105423 Ry
     Harris-Foulkes estimate   =     -31.53105440 Ry
     estimated scf accuracy    <       0.00000017 Ry

     iteration # 14     ecut=    30.00 Ry     beta=0.70
     Davidson diagonalization with overlap
     ethr =  4.01E-10,  avg # of iterations =  2.0

     total cpu time spent up to now is        3.7 secs

     total energy              =     -31.53105422 Ry
     Harris-Foulkes estimate   =     -31.53105423 Ry
     estimated scf accuracy    <       0.00000015 Ry

     iteration # 15     ecut=    30.00 Ry     beta=0.70
     Davidson diagonalization with overlap
     ethr =  4.01E-10,  avg # of iterations =  1.0

     total cpu time spent up to now is        3.7 secs

     End of self-consistent calculation

          k = 0.0000 0.0000 0.0000 ( 22119 PWs)   bands (ev):

   -23.6212  -7.3994  -7.0147  -7.0051  -6.8828  -6.5547  -0.1540   0.6956

     the Fermi energy is    -6.8625 ev

!    total energy              =     -31.53105422 Ry
     Harris-Foulkes estimate   =     -31.53105422 Ry
     estimated scf accuracy    <          7.7E-10 Ry

     convergence has been achieved in  15 iterations

     Forces acting on atoms (Ry/au):

     atom    1 type  1   force =    -0.03081578   -0.01530510   -0.02668663
     atom    2 type  1   force =    -0.00010760    0.00047133    0.00027723
     atom    3 type  2   force =     0.03092337    0.01483376    0.02640940

     Total force =     0.061401     Total SCF correction =     0.000005

     Entering Dynamics:    iteration =     3
                           time      =   0.0145 pico-seconds


     Andersen thermostat:    3 collisions

ATOMIC_POSITIONS (bohr)
H        7.288954766   3.146528442   6.036065758
H       10.071156395  16.370685313   0.417076374
O        3.515096182   1.665580543   2.914847438


     kinetic energy (Ekin) =     0.01642027 Ry
     temperature           =   864.18394391 K 
     Ekin + Etot (const)   =   -31.51463395 Ry
     Message from routine dynamics:
     Total linear momentum <> 0

     Linear momentum :    0.3047675616   -0.3500624036   -0.1369358232

     Writing output data file pwscf.save

     second order wave-functions extrapolation
     Check: negative starting charge=   -0.340099
     second order charge density extrapolation
     Check: negative starting charge=   -0.339875

     negative rho (up, down):  5.622E-02 0.000E+00

     total cpu time spent up to now is        4.1 secs

     per-process dynamical memory:    20.4 Mb

     Self-consistent Calculation

     iteration #  1     ecut=    30.00 Ry     beta=0.70
     Davidson diagonalization with overlap
     c_bands:  1 eigenvalues not converged
     ethr =  1.00E-06,  avg # of iterations = 20.0

     negative rho (up, down):  1.311E-02 0.000E+00

     total cpu time spent up to now is        4.2 secs

     total energy              =     -31.49794325 Ry
     Harris-Foulkes estimate   =     -31.51683237 Ry
     estimated scf accuracy    <       0.04751384 Ry

     iteration #  2     ecut=    30.00 Ry     beta=0.70
     Davidson diagonalization with overlap
     ethr =  5.94E-04,  avg # of iterations =  2.0

     negative rho (up, down):  1.169E-02 0.000E+00

     total cpu time spent up to now is        4.2 secs

     total energy              =     -31.47880744 Ry
     Harris-Foulkes estimate   =     -31.67837022 Ry
     estimated scf accuracy    <       1.48152464 Ry

     iteration #  3     ecut=    30.00 Ry     beta=0.70
     Davidson diagonalization with overlap
     ethr =  5.94E-04,  avg # of iterations =  2.0

     negative rho (up, down):  1.093E-02 0.000E+00

     total cpu time spent up to now is        4.2 secs

     total energy              =     -31.51407861 Ry
     Harris-Foulkes estimate   =     -31.68887351 Ry
     estimated scf accuracy    <       2.35048479 Ry

     iteration #  4     ecut=    30.00 Ry     beta=0.70
     Davidson diagonalization with overlap
     ethr =  5.94E-04,  avg # of iterations =  1.0

     negative rho (up, down):  7.649E-03 0.000E+00

     total cpu time spent up to now is        4.3 secs

     total energy              =     -31.53540169 Ry
     Harris-Foulkes estimate   =     -31.54492985 Ry
     estimated scf accuracy    <       0.15807796 Ry

     iteration #  5     ecut=    30.00 Ry     beta=0.70
     Davidson diagonalization with overlap
     ethr =  5.94E-04,  avg # of iterations =  1.0

     negative rho (up, down):  2.603E-03 0.000E+00

     total cpu time spent up to now is        4.3 secs

     total energy              =     -31.53958293 Ry
     Harris-Foulkes estimate   =     -31.54218745 Ry
     estimated scf accuracy    <       0.12559722 Ry

     iteration #  6     ecut=    30.00 Ry     beta=0.70
     Davidson diagonalization with overlap
     ethr =  5.94E-04,  avg # of iterations =  1.0

     negative rho (up, down):  6.912E-04 0.000E+00

     total cpu time spent up to now is        4.3 secs

     total energy              =     -31.54273557 Ry
     Harris-Foulkes estimate   =     -31.54786307 Ry
     estimated scf accuracy    <       0.12880040 Ry

     iteration #  7     ecut=    30.00 Ry     beta=0.70
     Davidson diagonalization with overlap
     ethr =  5.94E-04,  avg # of iterations =  1.0

     negative rho (up, down):  2.327E-05 0.000E+00

     total cpu time spent up to now is        4.4 secs

     total energy              =     -31.54667915 Ry
     Harris-Foulkes estimate   =     -31.54778682 Ry
     estimated scf accuracy    <       0.04428554 Ry

     iteration #  8     ecut=    30.00 Ry     beta=0.70
     Davidson diagonalization with overlap
     ethr =  5.54E-04,  avg # of iterations =  1.0

     negative rho (up, down):  1.991E-05 0.000E+00

     total cpu time spent up to now is        4.4 secs

     total energy              =     -31.54708597 Ry
     Harris-Foulkes estimate   =     -31.54713486 Ry
     estimated scf accuracy    <       0.00105672 Ry

     iteration #  9     ecut=    30.00 Ry     beta=0.70
     Davidson diagonalization with overlap
     ethr =  1.32E-05,  avg # of iterations = 11.0

     negative rho (up, down):  3.655E-07 0.000E+00

     total cpu time spent up to now is        4.4 secs

     total energy              =     -31.54710950 Ry
     Harris-Foulkes estimate   =     -31.54710947 Ry
     estimated scf accuracy    <       0.00000843 Ry

     iteration # 10     ecut=    30.00 Ry     beta=0.70
     Davidson diagonalization with overlap
     ethr =  1.05E-07,  avg # of iterations = 18.0

     negative rho (up, down):  1.711E-07 0.000E+00

     total cpu time spent up to now is        4.5 secs

     total energy              =     -31.54711048 Ry
     Harris-Foulkes estimate   =     -31.54711018 Ry
     estimated scf accuracy    <       0.00002303 Ry

     iteration # 11     ecut=    30.00 Ry     beta=0.70
     Davidson diagonalization with overlap
     ethr =  1.05E-07,  avg # of iterations =  1.0

     total cpu time spent up to now is        4.5 secs

     total energy              =     -31.54710925 Ry
     Harris-Foulkes estimate   =     -31.54711057 Ry
     estimated scf accuracy    <       0.00002665 Ry

     iteration # 12     ecut=    30.00 Ry     beta=0.70
     Davidson diagonalization with overlap
     ethr =  1.05E-07,  avg # of iterations =  1.0

     total cpu time spent up to now is        4.6 secs

     total energy              =     -31.54710933 Ry
     Harris-Foulkes estimate   =     -31.54710939 Ry
     estimated scf accuracy    <       0.00000514 Ry

     iteration # 13     ecut=    30.00 Ry     beta=0.70
     Davidson diagonalization with overlap
     ethr =  6.43E-08,  avg # of iterations =  1.0

     total cpu time spent up to now is        4.6 secs

     total energy              =     -31.54710947 Ry
     Harris-Foulkes estimate   =     -31.54710939 Ry
     estimated scf accuracy    <       0.00000006 Ry

     iteration # 14     ecut=    30.00 Ry     beta=0.70
     Davidson diagonalization with overlap
     ethr =  7.37E-10,  avg # of iterations =  1.0

     total cpu time spent up to now is        4.6 secs

     End of self-consistent calculation

          k = 0.0000 0.0000 0.0000 ( 22119 PWs)   bands (ev):

   -23.6149  -7.5722  -6.9745  -6.9651  -6.8315  -6.4895  -0.1453   0.7349

     the Fermi energy is    -6.8092 ev

!    total energy              =     -31.54710929 Ry
     Harris-Foulkes estimate   =     -31.54710947 Ry
     estimated scf accuracy    <          3.2E-10 Ry

     convergence has been achieved in  14 iterations

     Forces acting on atoms (Ry/au):

     atom    1 type  1   force =    -0.03644517   -0.01430978   -0.03076839
     atom    2 type  1   force =    -0.00020571    0.00039583    0.00020291
     atom    3 type  2   force =     0.03665088    0.01391395    0.03056548

     Total force =     0.070364     Total SCF correction =     0.000351

     Entering Dynamics:    iteration =     4
                           time      =   0.0194 pico-seconds


     Andersen thermostat:    3 collisions

ATOMIC_POSITIONS (bohr)
H        6.881469352   2.854945849   5.610884970
H        9.872084590  16.040165736   0.223779965
O        3.553385106   1.704850742   2.953888811


     kinetic energy (Ekin) =     0.02663436 Ry
     temperature           =  1401.74258352 K 
     Ekin + Etot (const)   =   -31.52047493 Ry
     Message from routine dynamics:
     Total linear momentum <> 0

     Linear momentum :    0.6585480540    0.4524520681   -0.2987964083

     Writing output data file pwscf.save

     second order wave-functions extrapolation
     Check: negative starting charge=   -0.339875
     second order charge density extrapolation
     Check: negative starting charge=   -0.340402

     negative rho (up, down):  1.180E-01 0.000E+00

     total cpu time spent up to now is        4.9 secs

     per-process dynamical memory:    20.4 Mb

     Self-consistent Calculation

     iteration #  1     ecut=    30.00 Ry     beta=0.70
     Davidson diagonalization with overlap
     ethr =  1.00E-06,  avg # of iterations = 18.0

     negative rho (up, down):  2.993E-02 0.000E+00

     total cpu time spent up to now is        5.1 secs

     total energy              =     -16.93002627 Ry
     Harris-Foulkes estimate   =     -40.73996239 Ry
     estimated scf accuracy    <       5.02906762 Ry

     iteration #  2     ecut=    30.00 Ry     beta=0.70
     Davidson diagonalization with overlap
     ethr =  1.00E-02,  avg # of iterations =  3.0

     negative rho (up, down):  1.886E-02 0.000E+00

     total cpu time spent up to now is        5.1 secs

     total energy              =     -32.11001045 Ry
     Harris-Foulkes estimate   =     -34.51141665 Ry
     estimated scf accuracy    <       5.33482894 Ry

     iteration #  3     ecut=    30.00 Ry     beta=0.70
     Davidson diagonalization with overlap
     ethr =  1.00E-02,  avg # of iterations =  2.0

     negative rho (up, down):  1.718E-02 0.000E+00

     total cpu time spent up to now is        5.1 secs

     total energy              =     -32.03605917 Ry
     Harris-Foulkes estimate   =     -32.80398626 Ry
     estimated scf accuracy    <       4.11585310 Ry

     iteration #  4     ecut=    30.00 Ry     beta=0.70
     Davidson diagonalization with overlap
     ethr =  1.00E-02,  avg # of iterations =  1.0

     negative rho (up, down):  1.398E-02 0.000E+00

     total cpu time spent up to now is        5.2 secs

     total energy              =     -31.87203128 Ry
     Harris-Foulkes estimate   =     -32.21332127 Ry
     estimated scf accuracy    <       1.99387226 Ry

     iteration #  5     ecut=    30.00 Ry     beta=0.70
     Davidson diagonalization with overlap
     ethr =  1.00E-02,  avg # of iterations =  1.0

     negative rho (up, down):  9.526E-03 0.000E+00

     total cpu time spent up to now is        5.2 secs

     total energy              =     -31.52711956 Ry
     Harris-Foulkes estimate   =     -31.93596034 Ry
     estimated scf accuracy    <       2.03161989 Ry

     iteration #  6     ecut=    30.00 Ry     beta=0.70
     Davidson diagonalization with overlap
     ethr =  1.00E-02,  avg # of iterations =  2.0

     negative rho (up, down):  8.184E-03 0.000E+00

     total cpu time spent up to now is        5.2 secs

     total energy              =     -31.72627736 Ry
     Harris-Foulkes estimate   =     -31.83143241 Ry
     estimated scf accuracy    <       1.52602360 Ry

     iteration #  7     ecut=    30.00 Ry     beta=0.70
     Davidson diagonalization with overlap
     ethr =  1.00E-02,  avg # of iterations =  1.0

     negative rho (up, down):  2.171E-03 0.000E+00

     total cpu time spent up to now is        5.3 secs

     total energy              =     -31.48025294 Ry
     Harris-Foulkes estimate   =     -31.74225907 Ry
     estimated scf accuracy    <       1.46657450 Ry

     iteration #  8     ecut=    30.00 Ry     beta=0.70
     Davidson diagonalization with overlap
     ethr =  1.00E-02,  avg # of iterations =  2.0

     negative rho (up, down):  4.535E-03 0.000E+00

     total cpu time spent up to now is        5.3 secs

     total energy              =     -31.54400404 Ry
     Harris-Foulkes estimate   =     -31.69344446 Ry
     estimated scf accuracy    <       1.21423850 Ry

     iteration #  9     ecut=    30.00 Ry     beta=0.70
     Davidson diagonalization with overlap
     ethr =  1.00E-02,  avg # of iterations =  1.0

     negative rho (up, down):  4.250E-03 0.000E+00

     total cpu time spent up to now is        5.3 secs

     total energy              =     -31.60933567 Ry
     Harris-Foulkes estimate   =     -31.60840761 Ry
     estimated scf accuracy    <       0.17486659 Ry

     iteration # 10     ecut=    30.00 Ry     beta=0.70
     Davidson diagonalization with overlap
     ethr =  2.19E-03,  avg # of iterations =  1.0

     negative rho (up, down):  2.128E-06 0.000E+00

     total cpu time spent up to now is        5.4 secs

     total energy              =     -31.55298243 Ry
     Harris-Foulkes estimate   =     -31.61939771 Ry
     estimated scf accuracy    <       0.83330501 Ry

     iteration # 11     ecut=    30.00 Ry     beta=0.70
     Davidson diagonalization with overlap
     ethr =  2.19E-03,  avg # of iterations =  2.0

     negative rho (up, down):  1.979E-05 0.000E+00

     total cpu time spent up to now is        5.4 secs

     total energy              =     -31.58044005 Ry
     Harris-Foulkes estimate   =     -31.78108098 Ry
     estimated scf accuracy    <       3.00650979 Ry

     iteration # 12     ecut=    30.00 Ry     beta=0.70
     Davidson diagonalization with overlap
     ethr =  2.19E-03,  avg # of iterations =  1.0

     negative rho (up, down):  9.443E-06 0.000E+00

     total cpu time spent up to now is        5.4 secs

     total energy              =     -31.56826127 Ry
     Harris-Foulkes estimate   =     -31.62124695 Ry
     estimated scf accuracy    <       1.36777299 Ry

     iteration # 13     ecut=    30.00 Ry     beta=0.70
     Davidson diagonalization with overlap
     ethr =  2.19E-03,  avg # of iterations =  1.0

     negative rho (up, down):  1.051E-06 0.000E+00

     total cpu time spent up to now is        5.5 secs

     total energy              =     -31.59543181 Ry
     Harris-Foulkes estimate   =     -31.59918111 Ry
     estimated scf accuracy    <       0.10239171 Ry

     iteration # 14     ecut=    30.00 Ry     beta=0.70
     Davidson diagonalization with overlap
     ethr =  1.28E-03,  avg # of iterations =  1.0

     total cpu time spent up to now is        5.5 secs

     total energy              =     -31.59829727 Ry
     Harris-Foulkes estimate   =     -31.59821923 Ry
     estimated scf accuracy    <       0.02664659 Ry

     iteration # 15     ecut=    30.00 Ry     beta=0.70
     Davidson diagonalization with overlap
     ethr =  3.33E-04,  avg # of iterations =  1.0

     total cpu time spent up to now is        5.5 secs

     total energy              =     -31.59651890 Ry
     Harris-Foulkes estimate   =     -31.59873786 Ry
     estimated scf accuracy    <       0.09204330 Ry

     iteration # 16     ecut=    30.00 Ry     beta=0.70
     Davidson diagonalization with overlap
     ethr =  3.33E-04,  avg # of iterations =  1.0

     total cpu time spent up to now is        5.6 secs

     total energy              =     -31.59756325 Ry
     Harris-Foulkes estimate   =     -31.59765720 Ry
     estimated scf accuracy    <       0.00100950 Ry

     iteration # 17     ecut=    30.00 Ry     beta=0.70
     Davidson diagonalization with overlap
     ethr =  1.26E-05,  avg # of iterations = 14.0

     total cpu time spent up to now is        5.6 secs

     total energy              =     -31.59745449 Ry
     Harris-Foulkes estimate   =     -31.59764632 Ry
     estimated scf accuracy    <       0.00510283 Ry

     iteration # 18     ecut=    30.00 Ry     beta=0.70
     Davidson diagonalization with overlap
     ethr =  1.26E-05,  avg # of iterations =  1.0

     total cpu time spent up to now is        5.7 secs

     total energy              =     -31.59755809 Ry
     Harris-Foulkes estimate   =     -31.59756527 Ry
     estimated scf accuracy    <       0.00022257 Ry

     iteration # 19     ecut=    30.00 Ry     beta=0.70
     Davidson diagonalization with overlap
     ethr =  2.78E-06,  avg # of iterations =  3.0

     total cpu time spent up to now is        5.7 secs

     total energy              =     -31.59756222 Ry
     Harris-Foulkes estimate   =     -31.59756219 Ry
     estimated scf accuracy    <       0.00000537 Ry

     iteration # 20     ecut=    30.00 Ry     beta=0.70
     Davidson diagonalization with overlap
     ethr =  6.71E-08,  avg # of iterations =  1.0

     total cpu time spent up to now is        5.7 secs

     total energy              =     -31.59756155 Ry
     Harris-Foulkes estimate   =     -31.59756223 Ry
     estimated scf accuracy    <       0.00000583 Ry

     iteration # 21     ecut=    30.00 Ry     beta=0.70
     Davidson diagonalization with overlap
     ethr =  6.71E-08,  avg # of iterations =  1.0

     total cpu time spent up to now is        5.8 secs

     total energy              =     -31.59756186 Ry
     Harris-Foulkes estimate   =     -31.59756191 Ry
     estimated scf accuracy    <       0.00000368 Ry

     iteration # 22     ecut=    30.00 Ry     beta=0.70
     Davidson diagonalization with overlap
     ethr =  4.60E-08,  avg # of iterations =  1.0

     total cpu time spent up to now is        5.8 secs

     End of self-consistent calculation

          k = 0.0000 0.0000 0.0000 ( 22119 PWs)   bands (ev):

   -23.5867  -7.9420  -6.9163  -6.9086  -6.7652  -6.0569  -0.1281   0.7801

     the Fermi energy is    -6.7395 ev

!    total energy              =     -31.59756190 Ry
     Harris-Foulkes estimate   =     -31.59756191 Ry
     estimated scf accuracy    <          6.2E-09 Ry

     convergence has been achieved in  22 iterations

     Forces acting on atoms (Ry/au):

     atom    1 type  1   force =    -0.06873093   -0.02423015   -0.05434965
     atom    2 type  1   force =    -0.00020710   -0.00021310    0.00058418
     atom    3 type  2   force =     0.06893804    0.02444325    0.05376547

     Total force =     0.128476     Total SCF correction =     0.000035

     Entering Dynamics:    iteration =     5
                           time      =   0.0242 pico-seconds


     Andersen thermostat:    3 collisions

ATOMIC_POSITIONS (bohr)
H        5.951536806   2.885129825   5.325408352
H        9.335180682  16.253336188  -0.048458472
O        3.645979157   1.689488994   2.989094574


     kinetic energy (Ekin) =     0.03947609 Ry
     temperature           =  2077.59115660 K 
     Ekin + Etot (const)   =   -31.55808581 Ry
     Message from routine dynamics:
     Total linear momentum <> 0

     Linear momentum :    0.2555715914    0.0401351917   -0.1541686132

     Writing output data file pwscf.save

     second order wave-functions extrapolation
     Check: negative starting charge=   -0.340402
     second order charge density extrapolation
     Check: negative starting charge=   -0.340046

     negative rho (up, down):  1.918E-01 0.000E+00

     total cpu time spent up to now is        6.1 secs

     per-process dynamical memory:    20.4 Mb

     Self-consistent Calculation

     iteration #  1     ecut=    30.00 Ry     beta=0.70
     Davidson diagonalization with overlap
     ethr =  1.00E-06,  avg # of iterations = 19.0

     negative rho (up, down):  3.726E-02 0.000E+00

     total cpu time spent up to now is        6.2 secs

     total energy              =      18.21517591 Ry
     Harris-Foulkes estimate   =    -108.46230695 Ry
     estimated scf accuracy    <      13.50450191 Ry

     iteration #  2     ecut=    30.00 Ry     beta=0.70
     Davidson diagonalization with overlap
     ethr =  1.00E-02,  avg # of iterations =  3.0

     negative rho (up, down):  2.466E-02 0.000E+00

     total cpu time spent up to now is        6.2 secs

     total energy              =     -33.44021090 Ry
     Harris-Foulkes estimate   =     -41.70343350 Ry
     estimated scf accuracy    <      17.08426565 Ry

     iteration #  3     ecut=    30.00 Ry     beta=0.70
     Davidson diagonalization with overlap
     ethr =  1.00E-02,  avg # of iterations =  3.0

     negative rho (up, down):  1.617E-02 0.000E+00

     total cpu time spent up to now is        6.3 secs

     total energy              =     -32.18077976 Ry
     Harris-Foulkes estimate   =     -34.05374218 Ry
     estimated scf accuracy    <       5.08060373 Ry

     iteration #  4     ecut=    30.00 Ry     beta=0.70
     Davidson diagonalization with overlap
     ethr =  1.00E-02,  avg # of iterations =  3.0

     negative rho (up, down):  9.459E-03 0.000E+00

     total cpu time spent up to now is        6.3 secs

     total energy              =     -31.64348908 Ry
     Harris-Foulkes estimate   =     -32.23979150 Ry
     estimated scf accuracy    <       2.07461017 Ry

     iteration #  5     ecut=    30.00 Ry     beta=0.70
     Davidson diagonalization with overlap
     ethr =  1.00E-02,  avg # of iterations =  2.0

     negative rho (up, down):  9.705E-03 0.000E+00

     total cpu time spent up to now is        6.3 secs

     total energy              =     -31.75067670 Ry
     Harris-Foulkes estimate   =     -32.16782690 Ry
     estimated scf accuracy    <       1.86944922 Ry

     iteration #  6     ecut=    30.00 Ry     beta=0.70
     Davidson diagonalization with overlap
     ethr =  1.00E-02,  avg # of iterations =  2.0

     negative rho (up, down):  4.516E-03 0.000E+00

     total cpu time spent up to now is        6.4 secs

     total energy              =     -31.39854260 Ry
     Harris-Foulkes estimate   =     -31.97505959 Ry
     estimated scf accuracy    <       1.76217195 Ry

     iteration #  7     ecut=    30.00 Ry     beta=0.70
     Davidson diagonalization with overlap
     ethr =  1.00E-02,  avg # of iterations =  1.0

     negative rho (up, down):  5.062E-03 0.000E+00

     total cpu time spent up to now is        6.4 secs

     total energy              =     -31.93427093 Ry
     Harris-Foulkes estimate   =     -32.03255781 Ry
     estimated scf accuracy    <       2.08564027 Ry

     iteration #  8     ecut=    30.00 Ry     beta=0.70
     Davidson diagonalization with overlap
     ethr =  1.00E-02,  avg # of iterations =  1.0

     negative rho (up, down):  5.075E-03 0.000E+00

     total cpu time spent up to now is        6.4 secs

     total energy              =     -31.94133808 Ry
     Harris-Foulkes estimate   =     -31.93967976 Ry
     estimated scf accuracy    <       1.77836396 Ry

     iteration #  9     ecut=    30.00 Ry     beta=0.70
     Davidson diagonalization with overlap
     ethr =  1.00E-02,  avg # of iterations =  1.0

     negative rho (up, down):  4.640E-03 0.000E+00

     total cpu time spent up to now is        6.5 secs

     total energy              =     -31.91670092 Ry
     Harris-Foulkes estimate   =     -31.94140945 Ry
     estimated scf accuracy    <       1.77878037 Ry

     iteration # 10     ecut=    30.00 Ry     beta=0.70
     Davidson diagonalization with overlap
     ethr =  1.00E-02,  avg # of iterations =  1.0

     negative rho (up, down):  3.442E-03 0.000E+00

     total cpu time spent up to now is        6.5 secs

     total energy              =     -31.66418372 Ry
     Harris-Foulkes estimate   =     -31.91682885 Ry
     estimated scf accuracy    <       1.73336623 Ry

     iteration # 11     ecut=    30.00 Ry     beta=0.70
     Davidson diagonalization with overlap
     ethr =  1.00E-02,  avg # of iterations =  1.0

     negative rho (up, down):  5.652E-03 0.000E+00

     total cpu time spent up to now is        6.5 secs

     total energy              =     -31.97425220 Ry
     Harris-Foulkes estimate   =     -31.74536168 Ry
     estimated scf accuracy    <       0.69338152 Ry

     iteration # 12     ecut=    30.00 Ry     beta=0.70
     Davidson diagonalization with overlap
     ethr =  8.67E-03,  avg # of iterations =  1.0

     negative rho (up, down):  3.338E-03 0.000E+00

     total cpu time spent up to now is        6.6 secs

     total energy              =     -32.02124205 Ry
     Harris-Foulkes estimate   =     -32.03808842 Ry
     estimated scf accuracy    <       1.49946260 Ry

     iteration # 13     ecut=    30.00 Ry     beta=0.70
     Davidson diagonalization with overlap
     ethr =  8.67E-03,  avg # of iterations =  1.0

     negative rho (up, down):  1.588E-03 0.000E+00

     total cpu time spent up to now is        6.6 secs

     total energy              =     -31.99386655 Ry
     Harris-Foulkes estimate   =     -32.02177219 Ry
     estimated scf accuracy    <       1.42853631 Ry

     iteration # 14     ecut=    30.00 Ry     beta=0.70
     Davidson diagonalization with overlap
     ethr =  8.67E-03,  avg # of iterations =  1.0

     negative rho (up, down):  2.200E-05 0.000E+00

     total cpu time spent up to now is        6.6 secs

     total energy              =     -31.90141225 Ry
     Harris-Foulkes estimate   =     -31.99440250 Ry
     estimated scf accuracy    <       1.34132400 Ry

     iteration # 15     ecut=    30.00 Ry     beta=0.70
     Davidson diagonalization with overlap
     ethr =  8.67E-03,  avg # of iterations =  1.0

     negative rho (up, down):  1.082E-05 0.000E+00

     total cpu time spent up to now is        6.7 secs

     total energy              =     -31.82730198 Ry
     Harris-Foulkes estimate   =     -31.90286988 Ry
     estimated scf accuracy    <       1.14975111 Ry

     iteration # 16     ecut=    30.00 Ry     beta=0.70
     Davidson diagonalization with overlap
     ethr =  8.67E-03,  avg # of iterations =  1.0

     negative rho (up, down):  5.220E-06 0.000E+00

     total cpu time spent up to now is        6.7 secs

     total energy              =     -31.77004535 Ry
     Harris-Foulkes estimate   =     -31.82755176 Ry
     estimated scf accuracy    <       1.07441472 Ry

     iteration # 17     ecut=    30.00 Ry     beta=0.70
     Davidson diagonalization with overlap
     ethr =  8.67E-03,  avg # of iterations =  1.0

     negative rho (up, down):  7.729E-06 0.000E+00

     total cpu time spent up to now is        6.7 secs

     total energy              =     -31.74343497 Ry
     Harris-Foulkes estimate   =     -31.77029682 Ry
     estimated scf accuracy    <       0.97428546 Ry

     iteration # 18     ecut=    30.00 Ry     beta=0.70
     Davidson diagonalization with overlap
     ethr =  8.67E-03,  avg # of iterations =  1.0

     negative rho (up, down):  3.711E-05 0.000E+00

     total cpu time spent up to now is        6.8 secs

     total energy              =     -31.21429128 Ry
     Harris-Foulkes estimate   =     -31.74352107 Ry
     estimated scf accuracy    <       0.92180226 Ry

     iteration # 19     ecut=    30.00 Ry     beta=0.70
     Davidson diagonalization with overlap
     ethr =  8.67E-03,  avg # of iterations =  2.0

     negative rho (up, down):  8.216E-06 0.000E+00

     total cpu time spent up to now is        6.8 secs

     total energy              =     -32.49046691 Ry
     Harris-Foulkes estimate   =     -32.75158370 Ry
     estimated scf accuracy    <       3.21959902 Ry

     iteration # 20     ecut=    30.00 Ry     beta=0.70
     Davidson diagonalization with overlap
     ethr =  8.67E-03,  avg # of iterations =  1.0

     negative rho (up, down):  7.938E-05 0.000E+00

     total cpu time spent up to now is        6.8 secs

     total energy              =     -31.67116467 Ry
     Harris-Foulkes estimate   =     -32.49391093 Ry
     estimated scf accuracy    <       2.66761680 Ry

     iteration # 21     ecut=    30.00 Ry     beta=0.70
     Davidson diagonalization with overlap
     ethr =  8.67E-03,  avg # of iterations =  1.0

     negative rho (up, down):  1.786E-06 0.000E+00

     total cpu time spent up to now is        6.9 secs

     total energy              =     -31.73988779 Ry
     Harris-Foulkes estimate   =     -31.71151532 Ry
     estimated scf accuracy    <       0.51414831 Ry

     iteration # 22     ecut=    30.00 Ry     beta=0.70
     Davidson diagonalization with overlap
     ethr =  6.43E-03,  avg # of iterations =  1.0

     negative rho (up, down):  2.041E-07 0.000E+00

     total cpu time spent up to now is        6.9 secs

     total energy              =     -31.72937111 Ry
     Harris-Foulkes estimate   =     -31.75665111 Ry
     estimated scf accuracy    <       1.38542370 Ry

     iteration # 23     ecut=    30.00 Ry     beta=0.70
     Davidson diagonalization with overlap
     ethr =  6.43E-03,  avg # of iterations =  1.0

     negative rho (up, down):  2.114E-08 0.000E+00

     total cpu time spent up to now is        6.9 secs

     total energy              =     -31.75671029 Ry
     Harris-Foulkes estimate   =     -31.72825655 Ry
     estimated scf accuracy    <       1.37349509 Ry

     iteration # 24     ecut=    30.00 Ry     beta=0.70
     Davidson diagonalization with overlap
     ethr =  6.43E-03,  avg # of iterations =  1.0

     negative rho (up, down):  6.058E-08 0.000E+00

     total cpu time spent up to now is        7.0 secs

     total energy              =     -31.77781601 Ry
     Harris-Foulkes estimate   =     -31.75759865 Ry
     estimated scf accuracy    <       1.36986285 Ry

     iteration # 25     ecut=    30.00 Ry     beta=0.70
     Davidson diagonalization with overlap
     ethr =  6.43E-03,  avg # of iterations =  1.0

     negative rho (up, down):  6.382E-06 0.000E+00

     total cpu time spent up to now is        7.0 secs

     total energy              =     -31.81600300 Ry
     Harris-Foulkes estimate   =     -31.77720335 Ry
     estimated scf accuracy    <       1.26865159 Ry

     iteration # 26     ecut=    30.00 Ry     beta=0.70
     Davidson diagonalization with overlap
     ethr =  6.43E-03,  avg # of iterations =  1.0

     negative rho (up, down):  1.420E-06 0.000E+00

     total cpu time spent up to now is        7.0 secs

     total energy              =     -31.81162325 Ry
     Harris-Foulkes estimate   =     -31.81597403 Ry
     estimated scf accuracy    <       1.32904722 Ry

     iteration # 27     ecut=    30.00 Ry     beta=0.70
     Davidson diagonalization with overlap
     ethr =  6.43E-03,  avg # of iterations =  1.0

     negative rho (up, down):  1.209E-01 0.000E+00

     total cpu time spent up to now is        7.1 secs

     total energy              =     -32.51312613 Ry
     Harris-Foulkes estimate   =     -31.81163173 Ry
     estimated scf accuracy    <       1.32073828 Ry

     iteration # 28     ecut=    30.00 Ry     beta=0.70
     Davidson diagonalization with overlap
     ethr =  6.43E-03,  avg # of iterations =  2.0

     negative rho (up, down):  1.410E-01 0.000E+00

     total cpu time spent up to now is        7.1 secs

     total energy              =     -32.62378441 Ry
     Harris-Foulkes estimate   =     -32.55958082 Ry
     estimated scf accuracy    <       2.91321257 Ry

     iteration # 29     ecut=    30.00 Ry     beta=0.70
     Davidson diagonalization with overlap
     ethr =  6.43E-03,  avg # of iterations =  1.0

     negative rho (up, down):  3.331E-01 0.000E+00

     total cpu time spent up to now is        7.1 secs

     total energy              =     -33.17156386 Ry
     Harris-Foulkes estimate   =     -32.62689774 Ry
     estimated scf accuracy    <       3.04438890 Ry

     iteration # 30     ecut=    30.00 Ry     beta=0.70
     Davidson diagonalization with overlap
     ethr =  6.43E-03,  avg # of iterations =  3.0

     negative rho (up, down):  2.108E-02 0.000E+00

     total cpu time spent up to now is        7.2 secs

     total energy              =     -31.40691095 Ry
     Harris-Foulkes estimate   =     -33.42031317 Ry
     estimated scf accuracy    <      11.39344049 Ry

     iteration # 31     ecut=    30.00 Ry     beta=0.70
     Davidson diagonalization with overlap
     ethr =  6.43E-03,  avg # of iterations =  3.0

     negative rho (up, down):  9.504E-02 0.000E+00

     total cpu time spent up to now is        7.2 secs

     total energy              =     -32.48964578 Ry
     Harris-Foulkes estimate   =     -32.16495525 Ry
     estimated scf accuracy    <       2.12483413 Ry

     iteration # 32     ecut=    30.00 Ry     beta=0.70
     Davidson diagonalization with overlap
     ethr =  6.43E-03,  avg # of iterations =  1.0

     negative rho (up, down):  1.985E-03 0.000E+00

     total cpu time spent up to now is        7.2 secs

     total energy              =     -31.87003048 Ry
     Harris-Foulkes estimate   =     -32.49810801 Ry
     estimated scf accuracy    <       2.75848183 Ry

     iteration # 33     ecut=    30.00 Ry     beta=0.70
     Davidson diagonalization with overlap
     ethr =  6.43E-03,  avg # of iterations =  2.0

     negative rho (up, down):  8.039E-02 0.000E+00

     total cpu time spent up to now is        7.3 secs

     total energy              =     -30.80100405 Ry
     Harris-Foulkes estimate   =     -31.89834197 Ry
     estimated scf accuracy    <       1.53058004 Ry

     iteration # 34     ecut=    30.00 Ry     beta=0.70
     Davidson diagonalization with overlap
     ethr =  6.43E-03,  avg # of iterations =  4.0

     negative rho (up, down):  6.588E-05 0.000E+00

     total cpu time spent up to now is        7.3 secs

     total energy              =     -32.28604309 Ry
     Harris-Foulkes estimate   =     -33.83743869 Ry
     estimated scf accuracy    <       4.33055247 Ry

     iteration # 35     ecut=    30.00 Ry     beta=0.70
     Davidson diagonalization with overlap
     ethr =  6.43E-03,  avg # of iterations =  1.0

     negative rho (up, down):  1.014E-05 0.000E+00

     total cpu time spent up to now is        7.3 secs

     total energy              =     -31.87801278 Ry
     Harris-Foulkes estimate   =     -32.32950040 Ry
     estimated scf accuracy    <       1.89971880 Ry

     iteration # 36     ecut=    30.00 Ry     beta=0.70
     Davidson diagonalization with overlap
     ethr =  6.43E-03,  avg # of iterations =  4.0

     negative rho (up, down):  1.151E-03 0.000E+00

     total cpu time spent up to now is        7.4 secs

     total energy              =     -31.61072281 Ry
     Harris-Foulkes estimate   =     -31.88616836 Ry
     estimated scf accuracy    <       1.16520069 Ry

     iteration # 37     ecut=    30.00 Ry     beta=0.70
     Davidson diagonalization with overlap
     ethr =  6.43E-03,  avg # of iterations =  1.0

     negative rho (up, down):  2.159E-05 0.000E+00

     total cpu time spent up to now is        7.4 secs

     total energy              =     -31.62250090 Ry
     Harris-Foulkes estimate   =     -31.78546223 Ry
     estimated scf accuracy    <       1.26202246 Ry

     iteration # 38     ecut=    30.00 Ry     beta=0.70
     Davidson diagonalization with overlap
     ethr =  6.43E-03,  avg # of iterations =  1.0

     negative rho (up, down):  7.228E-05 0.000E+00

     total cpu time spent up to now is        7.5 secs

     total energy              =     -31.76683787 Ry
     Harris-Foulkes estimate   =     -31.75441921 Ry
     estimated scf accuracy    <       0.93485236 Ry

     iteration # 39     ecut=    30.00 Ry     beta=0.70
     Davidson diagonalization with overlap
     ethr =  6.43E-03,  avg # of iterations =  1.0

     negative rho (up, down):  1.914E-08 0.000E+00

     total cpu time spent up to now is        7.5 secs

     total energy              =     -31.73445180 Ry
     Harris-Foulkes estimate   =     -31.76695655 Ry
     estimated scf accuracy    <       0.96371035 Ry

     iteration # 40     ecut=    30.00 Ry     beta=0.70
     Davidson diagonalization with overlap
     ethr =  6.43E-03,  avg # of iterations =  1.0

     negative rho (up, down):  1.571E-08 0.000E+00

     total cpu time spent up to now is        7.6 secs

     total energy              =     -31.73242196 Ry
     Harris-Foulkes estimate   =     -31.73461769 Ry
     estimated scf accuracy    <       0.87942229 Ry

     iteration # 41     ecut=    30.00 Ry     beta=0.70
     Davidson diagonalization with overlap
     ethr =  6.43E-03,  avg # of iterations =  1.0

     total cpu time spent up to now is        7.6 secs

     total energy              =     -31.68081600 Ry
     Harris-Foulkes estimate   =     -31.73243213 Ry
     estimated scf accuracy    <       0.86274652 Ry

     iteration # 42     ecut=    30.00 Ry     beta=0.70
     Davidson diagonalization with overlap
     ethr =  6.43E-03,  avg # of iterations =  1.0

     total cpu time spent up to now is        7.6 secs

     total energy              =     -31.67300925 Ry
     Harris-Foulkes estimate   =     -31.70808776 Ry
     estimated scf accuracy    <       0.21034456 Ry

     iteration # 43     ecut=    30.00 Ry     beta=0.70
     Davidson diagonalization with overlap
     ethr =  2.63E-03,  avg # of iterations =  1.0

     total cpu time spent up to now is        7.7 secs

     total energy              =     -31.76114854 Ry
     Harris-Foulkes estimate   =     -31.75642513 Ry
     estimated scf accuracy    <       0.94674826 Ry

     iteration # 44     ecut=    30.00 Ry     beta=0.70
     Davidson diagonalization with overlap
     ethr =  2.63E-03,  avg # of iterations =  1.0

     total cpu time spent up to now is        7.7 secs

     total energy              =     -31.73579302 Ry
     Harris-Foulkes estimate   =     -31.76116513 Ry
     estimated scf accuracy    <       0.95462761 Ry

     iteration # 45     ecut=    30.00 Ry     beta=0.70
     Davidson diagonalization with overlap
     ethr =  2.63E-03,  avg # of iterations =  1.0

     total cpu time spent up to now is        7.7 secs

     total energy              =     -31.70711411 Ry
     Harris-Foulkes estimate   =     -31.73590869 Ry
     estimated scf accuracy    <       0.88757809 Ry

     iteration # 46     ecut=    30.00 Ry     beta=0.70
     Davidson diagonalization with overlap
     ethr =  2.63E-03,  avg # of iterations =  1.0

     total cpu time spent up to now is        7.8 secs

     total energy              =     -31.71176684 Ry
     Harris-Foulkes estimate   =     -31.71075013 Ry
     estimated scf accuracy    <       0.32031151 Ry

     iteration # 47     ecut=    30.00 Ry     beta=0.70
     Davidson diagonalization with overlap
     ethr =  2.63E-03,  avg # of iterations =  1.0

     total cpu time spent up to now is        7.8 secs

     total energy              =     -31.71544167 Ry
     Harris-Foulkes estimate   =     -31.71180635 Ry
     estimated scf accuracy    <       0.37097463 Ry

     iteration # 48     ecut=    30.00 Ry     beta=0.70
     Davidson diagonalization with overlap
     ethr =  2.63E-03,  avg # of iterations =  1.0

     total cpu time spent up to now is        7.8 secs

     total energy              =     -31.70441259 Ry
     Harris-Foulkes estimate   =     -31.71581446 Ry
     estimated scf accuracy    <       0.53702271 Ry

     iteration # 49     ecut=    30.00 Ry     beta=0.70
     Davidson diagonalization with overlap
     ethr =  2.63E-03,  avg # of iterations =  1.0

     total cpu time spent up to now is        7.9 secs

     total energy              =     -31.70695998 Ry
     Harris-Foulkes estimate   =     -31.70711077 Ry
     estimated scf accuracy    <       0.11617379 Ry

     iteration # 50     ecut=    30.00 Ry     beta=0.70
[...]

     total cpu time spent up to now is       12.1 secs

     total energy              =      92.19455958 Ry
     Harris-Foulkes estimate   =   -1373.25524264 Ry
     estimated scf accuracy    <      30.64425428 Ry

     iteration # 59     ecut=    30.00 Ry     beta=0.70
     Davidson diagonalization with overlap
     ethr =  1.00E-02,  avg # of iterations =  7.0

     negative rho (up, down):  5.072E-01 0.000E+00

     total cpu time spent up to now is       12.1 secs

     total energy              =    -224.82369366 Ry
     Harris-Foulkes estimate   =   -2606.70780333 Ry
     estimated scf accuracy    <      33.12364806 Ry

     iteration # 60     ecut=    30.00 Ry     beta=0.70
     Davidson diagonalization with overlap
     ethr =  1.00E-02,  avg # of iterations =  6.0

     negative rho (up, down):  3.832E-02 0.000E+00

     total cpu time spent up to now is       12.2 secs

     total energy              =     126.06662594 Ry
     Harris-Foulkes estimate   =   -2782.61178687 Ry
     estimated scf accuracy    <      27.63583787 Ry

     iteration # 61     ecut=    30.00 Ry     beta=0.70
     Davidson diagonalization with overlap
     ethr =  1.00E-02,  avg # of iterations =  9.0

     negative rho (up, down):  3.296E-02 0.000E+00

     total cpu time spent up to now is       12.2 secs

     total energy              =     145.48013943 Ry
     Harris-Foulkes estimate   =    -879.99081658 Ry
     estimated scf accuracy    <      28.34662415 Ry

     iteration # 62     ecut=    30.00 Ry     beta=0.70
     Davidson diagonalization with overlap
     ethr =  1.00E-02,  avg # of iterations =  9.0

     negative rho (up, down):  1.611E-01 0.000E+00

     total cpu time spent up to now is       12.3 secs

     total energy              =   -6479.66820059 Ry
     Harris-Foulkes estimate   =    -667.91656318 Ry
     estimated scf accuracy    <      17.89771912 Ry

     iteration # 63     ecut=    30.00 Ry     beta=0.70
     Davidson diagonalization with overlap
     ethr =  1.00E-02,  avg # of iterations =  5.0

     negative rho (up, down):  2.280E-01 0.000E+00

     total cpu time spent up to now is       12.3 secs

     total energy              =     128.33438361 Ry
     Harris-Foulkes estimate   =  -30873.38916083 Ry
     estimated scf accuracy    <      19.90933587 Ry

     iteration # 64     ecut=    30.00 Ry     beta=0.70
     Davidson diagonalization with overlap
     ethr =  1.00E-02,  avg # of iterations = 11.0

     negative rho (up, down):  1.145E-01 0.000E+00

     total cpu time spent up to now is       12.4 secs

     total energy              =    -408.31815753 Ry
     Harris-Foulkes estimate   =    -104.44485056 Ry
     estimated scf accuracy    <      20.09257182 Ry

     iteration # 65     ecut=    30.00 Ry     beta=0.70
     Davidson diagonalization with overlap
     ethr =  1.00E-02,  avg # of iterations =  5.0

     negative rho (up, down):  1.076E-01 0.000E+00

     total cpu time spent up to now is       12.4 secs

     total energy              =    -569.99956880 Ry
     Harris-Foulkes estimate   =   -1339.88616352 Ry
     estimated scf accuracy    <      12.11280762 Ry

     iteration # 66     ecut=    30.00 Ry     beta=0.70
     Davidson diagonalization with overlap
     ethr =  1.00E-02,  avg # of iterations =  6.0

     negative rho (up, down):  9.933E-02 0.000E+00

     total cpu time spent up to now is       12.5 secs

     total energy              =      -8.14118771 Ry
     Harris-Foulkes estimate   =   -1737.42211779 Ry
     estimated scf accuracy    <      21.63244860 Ry

     iteration # 67     ecut=    30.00 Ry     beta=0.70
     Davidson diagonalization with overlap
     ethr =  1.00E-02,  avg # of iterations =  8.0

     negative rho (up, down):  1.192E-05 0.000E+00

     total cpu time spent up to now is       12.5 secs

     total energy              =     115.92061161 Ry
     Harris-Foulkes estimate   =    -134.32400761 Ry
     estimated scf accuracy    <      23.09863430 Ry

     iteration # 68     ecut=    30.00 Ry     beta=0.70
     Davidson diagonalization with overlap
     ethr =  1.00E-02,  avg # of iterations = 10.0

     negative rho (up, down):  3.567E-03 0.000E+00

     total cpu time spent up to now is       12.6 secs

     total energy              =     -70.38569190 Ry
     Harris-Foulkes estimate   =     -72.82787630 Ry
     estimated scf accuracy    <      54.63498599 Ry

     iteration # 69     ecut=    30.00 Ry     beta=0.70
     Davidson diagonalization with overlap
     ethr =  1.00E-02,  avg # of iterations =  4.0

     negative rho (up, down):  2.335E-01 0.000E+00

     total cpu time spent up to now is       12.6 secs

     total energy              =     -53.83003053 Ry
     Harris-Foulkes estimate   =    -435.64254426 Ry
     estimated scf accuracy    <      33.00160905 Ry

     iteration # 70     ecut=    30.00 Ry     beta=0.70
     Davidson diagonalization with overlap
     ethr =  1.00E-02,  avg # of iterations =  9.0

     negative rho (up, down):  1.899E-01 0.000E+00

     total cpu time spent up to now is       12.7 secs

     total energy              =      79.50896597 Ry
     Harris-Foulkes estimate   =  -18403.88269676 Ry
     estimated scf accuracy    <      20.73856964 Ry

     iteration # 71     ecut=    30.00 Ry     beta=0.70
     Davidson diagonalization with overlap
     ethr =  1.00E-02,  avg # of iterations =  5.0

     negative rho (up, down):  7.728E-01 0.000E+00

     total cpu time spent up to now is       12.7 secs

     total energy              =     -74.99886040 Ry
     Harris-Foulkes estimate   =     -69.03143501 Ry
     estimated scf accuracy    <      49.40182120 Ry

     iteration # 72     ecut=    30.00 Ry     beta=0.70
     Davidson diagonalization with overlap
     ethr =  1.00E-02,  avg # of iterations = 12.0

     negative rho (up, down):  3.534E-01 0.000E+00

     total cpu time spent up to now is       12.8 secs

     total energy              =     117.56834440 Ry
     Harris-Foulkes estimate   =    -436.67966938 Ry
     estimated scf accuracy    <      27.77716016 Ry

     iteration # 73     ecut=    30.00 Ry     beta=0.70
     Davidson diagonalization with overlap
     ethr =  1.00E-02,  avg # of iterations = 11.0

     negative rho (up, down):  2.655E-01 0.000E+00

     total cpu time spent up to now is       12.9 secs

     total energy              =     -25.54195731 Ry
     Harris-Foulkes estimate   =     -75.92331966 Ry
     estimated scf accuracy    <      30.62389474 Ry

     iteration # 74     ecut=    30.00 Ry     beta=0.70
     Davidson diagonalization with overlap
     ethr =  1.00E-02,  avg # of iterations =  9.0

     negative rho (up, down):  5.866E-03 0.000E+00

     total cpu time spent up to now is       12.9 secs

     total energy              =      17.95608568 Ry
     Harris-Foulkes estimate   =     -97.99501777 Ry
     estimated scf accuracy    <      24.57266651 Ry

     iteration # 75     ecut=    30.00 Ry     beta=0.70
     Davidson diagonalization with overlap
     ethr =  1.00E-02,  avg # of iterations =  7.0

     negative rho (up, down):  2.904E-02 0.000E+00

     total cpu time spent up to now is       13.0 secs

     total energy              =     -38.78984503 Ry
     Harris-Foulkes estimate   =    -104.17439924 Ry
     estimated scf accuracy    <      29.11514643 Ry

     iteration # 76     ecut=    30.00 Ry     beta=0.70
     Davidson diagonalization with overlap
     ethr =  1.00E-02,  avg # of iterations =  6.0

     negative rho (up, down):  2.396E-01 0.000E+00

     total cpu time spent up to now is       13.0 secs

     total energy              =   -2458.14313686 Ry
     Harris-Foulkes estimate   =    -282.27638008 Ry
     estimated scf accuracy    <      38.03405166 Ry

     iteration # 77     ecut=    30.00 Ry     beta=0.70
     Davidson diagonalization with overlap
     ethr =  1.00E-02,  avg # of iterations =  7.0

     negative rho (up, down):  1.631E-01 0.000E+00

     total cpu time spent up to now is       13.1 secs

     total energy              =      97.80114347 Ry
     Harris-Foulkes estimate   =  -12935.76286730 Ry
     estimated scf accuracy    <      29.02598077 Ry

     iteration # 78     ecut=    30.00 Ry     beta=0.70
     Davidson diagonalization with overlap
     ethr =  1.00E-02,  avg # of iterations =  9.0

     negative rho (up, down):  2.388E-02 0.000E+00

     total cpu time spent up to now is       13.1 secs

     total energy              =     115.06649901 Ry
     Harris-Foulkes estimate   =    -813.52987973 Ry
     estimated scf accuracy    <      23.09295246 Ry

     iteration # 79     ecut=    30.00 Ry     beta=0.70
     Davidson diagonalization with overlap
     ethr =  1.00E-02,  avg # of iterations =  8.0

     negative rho (up, down):  1.614E-01 0.000E+00

     total cpu time spent up to now is       13.2 secs

     total energy              =     -33.44334175 Ry
     Harris-Foulkes estimate   =    -107.58470475 Ry
     estimated scf accuracy    <      25.89263289 Ry

     iteration # 80     ecut=    30.00 Ry     beta=0.70
     Davidson diagonalization with overlap
     ethr =  1.00E-02,  avg # of iterations =  6.0

     negative rho (up, down):  1.280E-01 0.000E+00

     total cpu time spent up to now is       13.3 secs

     total energy              =      94.54165635 Ry
     Harris-Foulkes estimate   =   -4117.36155508 Ry
     estimated scf accuracy    <      23.35679112 Ry

     iteration # 81     ecut=    30.00 Ry     beta=0.70
     Davidson diagonalization with overlap
     ethr =  1.00E-02,  avg # of iterations =  8.0

     negative rho (up, down):  1.704E-01 0.000E+00

     total cpu time spent up to now is       13.3 secs

     total energy              =     117.33228377 Ry
     Harris-Foulkes estimate   =   -1120.04492202 Ry
     estimated scf accuracy    <      27.16420173 Ry

     iteration # 82     ecut=    30.00 Ry     beta=0.70
     Davidson diagonalization with overlap
     ethr =  1.00E-02,  avg # of iterations =  8.0

     negative rho (up, down):  1.139E-01 0.000E+00

     total cpu time spent up to now is       13.4 secs

     total energy              =    -363.66417887 Ry
     Harris-Foulkes estimate   =   -2777.87430794 Ry
     estimated scf accuracy    <      25.13257001 Ry

     iteration # 83     ecut=    30.00 Ry     beta=0.70
     Davidson diagonalization with overlap
     ethr =  1.00E-02,  avg # of iterations =  7.0

     negative rho (up, down):  1.056E-01 0.000E+00

     total cpu time spent up to now is       13.4 secs

     total energy              =       7.75825773 Ry
     Harris-Foulkes estimate   =   -2419.14249869 Ry
     estimated scf accuracy    <      30.49714482 Ry

     iteration # 84     ecut=    30.00 Ry     beta=0.70
     Davidson diagonalization with overlap
     ethr =  1.00E-02,  avg # of iterations =  6.0

     negative rho (up, down):  7.340E-02 0.000E+00

     total cpu time spent up to now is       13.5 secs

     total energy              =      32.83904403 Ry
     Harris-Foulkes estimate   =    -554.75085244 Ry
     estimated scf accuracy    <      24.53731324 Ry

     iteration # 85     ecut=    30.00 Ry     beta=0.70
     Davidson diagonalization with overlap
     ethr =  1.00E-02,  avg # of iterations =  6.0

     negative rho (up, down):  5.660E-03 0.000E+00

     total cpu time spent up to now is       13.5 secs

     total energy              =      55.17072868 Ry
     Harris-Foulkes estimate   =   -2950.22151157 Ry
     estimated scf accuracy    <      14.80600624 Ry

     iteration # 86     ecut=    30.00 Ry     beta=0.70
     Davidson diagonalization with overlap
     ethr =  1.00E-02,  avg # of iterations =  5.0

     negative rho (up, down):  1.023E-01 0.000E+00

     total cpu time spent up to now is       13.6 secs

     total energy              =    -113.62724899 Ry
     Harris-Foulkes estimate   =    -126.56193396 Ry
     estimated scf accuracy    <      27.84733806 Ry

     iteration # 87     ecut=    30.00 Ry     beta=0.70
     Davidson diagonalization with overlap
     ethr =  1.00E-02,  avg # of iterations =  6.0

     negative rho (up, down):  1.624E-01 0.000E+00

     total cpu time spent up to now is       13.6 secs

     total energy              =       1.96428745 Ry
     Harris-Foulkes estimate   =    -960.72126899 Ry
     estimated scf accuracy    <      47.90989169 Ry

     iteration # 88     ecut=    30.00 Ry     beta=0.70
     Davidson diagonalization with overlap
     ethr =  1.00E-02,  avg # of iterations =  7.0

     total cpu time spent up to now is       13.7 secs

     total energy              =      81.77925094 Ry
     Harris-Foulkes estimate   =    -411.43566417 Ry
     estimated scf accuracy    <      21.87925190 Ry

     iteration # 89     ecut=    30.00 Ry     beta=0.70
     Davidson diagonalization with overlap
     ethr =  1.00E-02,  avg # of iterations =  8.0

     total cpu time spent up to now is       13.8 secs

     total energy              =     -49.90586269 Ry
     Harris-Foulkes estimate   =     -50.68702262 Ry
     estimated scf accuracy    <      27.38952921 Ry

     iteration # 90     ecut=    30.00 Ry     beta=0.70
     Davidson diagonalization with overlap
     ethr =  1.00E-02,  avg # of iterations =  1.0

     negative rho (up, down):  4.858E-03 0.000E+00

     total cpu time spent up to now is       13.8 secs

     total energy              =     -46.54038859 Ry
     Harris-Foulkes estimate   =     -49.91741992 Ry
     estimated scf accuracy    <      26.19361551 Ry

     iteration # 91     ecut=    30.00 Ry     beta=0.70
     Davidson diagonalization with overlap
     ethr =  1.00E-02,  avg # of iterations =  7.0

     negative rho (up, down):  3.117E-01 0.000E+00

     total cpu time spent up to now is       13.8 secs

     total energy              =      20.36069739 Ry
     Harris-Foulkes estimate   =     -91.11435641 Ry
     estimated scf accuracy    <      19.02231494 Ry

     iteration # 92     ecut=    30.00 Ry     beta=0.70
     Davidson diagonalization with overlap
     ethr =  1.00E-02,  avg # of iterations =  5.0

     negative rho (up, down):  4.297E-01 0.000E+00

     total cpu time spent up to now is       13.9 secs

     total energy              =    -134.43490864 Ry
     Harris-Foulkes estimate   =    -155.48041920 Ry
     estimated scf accuracy    <      26.40848027 Ry

     iteration # 93     ecut=    30.00 Ry     beta=0.70
     Davidson diagonalization with overlap
     ethr =  1.00E-02,  avg # of iterations =  5.0

     negative rho (up, down):  4.689E-01 0.000E+00

     total cpu time spent up to now is       13.9 secs

     total energy              =      75.01999776 Ry
     Harris-Foulkes estimate   =   -2679.17950874 Ry
     estimated scf accuracy    <      41.61028046 Ry

     iteration # 94     ecut=    30.00 Ry     beta=0.70
     Davidson diagonalization with overlap
     ethr =  1.00E-02,  avg # of iterations =  8.0

     negative rho (up, down):  7.215E-01 0.000E+00

     total cpu time spent up to now is       14.0 secs

     total energy              =      -9.19017911 Ry
     Harris-Foulkes estimate   =    -964.79557211 Ry
     estimated scf accuracy    <      32.84062342 Ry

     iteration # 95     ecut=    30.00 Ry     beta=0.70
     Davidson diagonalization with overlap
     ethr =  1.00E-02,  avg # of iterations =  7.0

     negative rho (up, down):  7.673E-01 0.000E+00

     total cpu time spent up to now is       14.1 secs

     total energy              =      67.81480589 Ry
     Harris-Foulkes estimate   =   -7384.08127805 Ry
     estimated scf accuracy    <      34.13148412 Ry

     iteration # 96     ecut=    30.00 Ry     beta=0.70
     Davidson diagonalization with overlap
     ethr =  1.00E-02,  avg # of iterations =  8.0

     negative rho (up, down):  1.283E-01 0.000E+00

     total cpu time spent up to now is       14.1 secs

     total energy              =     -22.68853577 Ry
     Harris-Foulkes estimate   =    -460.59579758 Ry
     estimated scf accuracy    <      26.72442977 Ry

     iteration # 97     ecut=    30.00 Ry     beta=0.70
     Davidson diagonalization with overlap
     ethr =  1.00E-02,  avg # of iterations =  6.0

     negative rho (up, down):  2.657E-01 0.000E+00

     total cpu time spent up to now is       14.2 secs

     total energy              =      67.47306489 Ry
     Harris-Foulkes estimate   =   -1291.28944083 Ry
     estimated scf accuracy    <      28.12584247 Ry

     iteration # 98     ecut=    30.00 Ry     beta=0.70
     Davidson diagonalization with overlap
     ethr =  1.00E-02,  avg # of iterations =  8.0

     negative rho (up, down):  8.747E-01 0.000E+00

     total cpu time spent up to now is       14.2 secs

     total energy              =     112.40896047 Ry
     Harris-Foulkes estimate   =   -3352.75745596 Ry
     estimated scf accuracy    <      25.64438633 Ry

     iteration # 99     ecut=    30.00 Ry     beta=0.70
     Davidson diagonalization with overlap
     ethr =  1.00E-02,  avg # of iterations = 10.0

     negative rho (up, down):  6.463E-01 0.000E+00

     total cpu time spent up to now is       14.3 secs

     total energy              =    -185.60422028 Ry
     Harris-Foulkes estimate   =   -4048.23831539 Ry
     estimated scf accuracy    <      27.08293245 Ry

     iteration #100     ecut=    30.00 Ry     beta=0.70
     Davidson diagonalization with overlap
     ethr =  1.00E-02,  avg # of iterations =  8.0

     negative rho (up, down):  3.339E-01 0.000E+00

     total cpu time spent up to now is       14.3 secs

     total energy              =      94.06716604 Ry
     Harris-Foulkes estimate   =   -7882.02031285 Ry
     estimated scf accuracy    <      22.75633278 Ry

     End of self-consistent calculation

     convergence NOT achieved after 100 iterations: stopping

     Writing output data file pwscf.save
 
     init_run     :      0.09s CPU      0.11s WALL (       1 calls)
     electrons    :      9.83s CPU     12.42s WALL (       7 calls)
     update_pot   :      0.70s CPU      1.20s WALL (       6 calls)
     forces       :      0.16s CPU      0.16s WALL (       6 calls)

     Called by init_run:
     wfcinit      :      0.01s CPU      0.02s WALL (       1 calls)
     potinit      :      0.02s CPU      0.03s WALL (       1 calls)

     Called by electrons:
     c_bands      :      4.77s CPU      5.13s WALL (     280 calls)
     sum_band     :      0.80s CPU      0.87s WALL (     280 calls)
     v_of_rho     :      2.09s CPU      2.29s WALL (     287 calls)
     mix_rho      :      1.84s CPU      3.21s WALL (     280 calls)

     Called by c_bands:
     init_us_2    :      0.03s CPU      0.03s WALL (     561 calls)
     cegterg      :      4.70s CPU      4.97s WALL (     280 calls)

     Called by sum_band:

     Called by *egterg:
     h_psi        :      3.93s CPU      4.14s WALL (    1426 calls)
     g_psi        :      0.04s CPU      0.04s WALL (    1145 calls)
     cdiaghg      :      0.28s CPU      0.30s WALL (    1419 calls)

     Called by h_psi:
     h_psi:pot    :      3.91s CPU      4.12s WALL (    1426 calls)
     h_psi:calbec :      0.07s CPU      0.11s WALL (    1426 calls)
     vloc_psi     :      3.82s CPU      3.99s WALL (    1426 calls)
     add_vuspsi   :      0.01s CPU      0.01s WALL (    1426 calls)

     General routines
     calbec       :      0.11s CPU      0.16s WALL (    1455 calls)
     fft          :      1.27s CPU      1.36s WALL (    3169 calls)
     fftw         :      3.95s CPU      4.16s WALL (   17868 calls)
     davcio       :      0.31s CPU      1.18s WALL (    4990 calls)
 
     Parallel routines
     fft_scatter  :      2.01s CPU      2.20s WALL (   21037 calls)
 
     PWSCF        :    11.03s CPU        14.42s WALL

 
   This run was terminated on:   2:17:16  11Feb2018            

=------------------------------------------------------------------------------=
   JOB DONE.
=------------------------------------------------------------------------------=
