
     Program PWSCF v.6.0 (svn rev. 13079) starts on 11Feb2018 at  2:18:47 

     This program is part of the open-source Quantum ESPRESSO suite
     for quantum simulation of materials; please cite
         "P. Giannozzi et al., J. Phys.:Condens. Matter 21 395502 (2009);
          URL http://www.quantum-espresso.org", 
     in publications or presentations arising from this work. More details at
     http://www.quantum-espresso.org/quote

     Parallel version (MPI), running on    28 processors
     R & G space division:  proc/nbgrp/npool/nimage =      28
     Reading input from inputs/water-1-md/477.in

     Current dimensions of program PWSCF are:
     Max number of different atomic species (ntypx) = 10
     Max number of k-points (npk) =  40000
     Max angular momentum in pseudopotentials (lmaxx) =  3

     Subspace diagonalization in iterative solution of the eigenvalue problem:
     a serial algorithm will be used

 
     Parallelization info
     --------------------
     sticks:   dense  smooth     PW     G-vecs:    dense   smooth      PW
     Min         136     136     33                 6338     6338     787
     Max         137     137     34                 6341     6341     792
     Sum        3809    3809    949               177509   177509   22119
 


     bravais-lattice index     =            1
     lattice parameter (alat)  =      20.0000  a.u.
     unit-cell volume          =    8000.0000 (a.u.)^3
     number of atoms/cell      =            3
     number of atomic types    =            2
     number of electrons       =         8.00
     number of Kohn-Sham states=            8
     kinetic-energy cutoff     =      30.0000  Ry
     charge density cutoff     =     120.0000  Ry
     convergence threshold     =      1.0E-08
     mixing beta               =       0.7000
     number of iterations used =            8  plain     mixing
     Exchange-correlation      = BLYP ( 1  3  1  3 0 0)
     nstep                     =         5000


     celldm(1)=  20.000000  celldm(2)=   0.000000  celldm(3)=   0.000000
     celldm(4)=   0.000000  celldm(5)=   0.000000  celldm(6)=   0.000000

     crystal axes: (cart. coord. in units of alat)
               a(1) = (   1.000000   0.000000   0.000000 )  
               a(2) = (   0.000000   1.000000   0.000000 )  
               a(3) = (   0.000000   0.000000   1.000000 )  

     reciprocal axes: (cart. coord. in units 2 pi/alat)
               b(1) = (  1.000000  0.000000  0.000000 )  
               b(2) = (  0.000000  1.000000  0.000000 )  
               b(3) = (  0.000000  0.000000  1.000000 )  


     PseudoPot. # 1 for  H read from file:
     ./H.blyp-hgh.UPF
     MD5 check sum: c576e69559cde411e611be972c763230
     Pseudo is Norm-conserving, Zval =  1.0
     Generated in analytical, separable form
     Using radial grid of  929 points,  0 beta functions with: 

     PseudoPot. # 2 for  O read from file:
     ./O.blyp-hgh.UPF
     MD5 check sum: d0b7156309aa9befef28faac7bc56342
     Pseudo is Norm-conserving, Zval =  6.0
     Generated in analytical, separable form
     Using radial grid of 1095 points,  1 beta functions with: 
                l(1) =   0

     atomic species   valence    mass     pseudopotential
        H              1.00     1.01000      H( 1.00)
        O              6.00    16.00000      O( 1.00)

     No symmetry found



   Cartesian axes

     site n.     atom                  positions (alat units)
         1           H   tau(   1) = (   0.8158349   0.5738630   0.8324598  )
         2           H   tau(   2) = (   0.2061640   0.4541810   0.9841473  )
         3           O   tau(   3) = (   0.3909229   0.9889100   0.3013441  )

     number of k points=     1  Marzari-Vanderbilt smearing, width (Ry)=  0.0250
                       cart. coord. in units 2pi/alat
        k(    1) = (   0.0000000   0.0000000   0.0000000), wk =   2.0000000

     Dense  grid:   177509 G-vectors     FFT dimensions: (  72,  72,  72)

     Estimated max dynamical RAM per process >       6.09Mb

     Estimated total allocated dynamical RAM >     170.64Mb

     Initial potential from superposition of free atoms
     Check: negative starting charge=   -0.353757

     starting charge    7.99998, renormalised to    8.00000

     negative rho (up, down):  3.538E-01 0.000E+00
     Starting wfc are    6 randomized atomic wfcs +    2 random wfc

     total cpu time spent up to now is        0.3 secs

     per-process dynamical memory:    18.8 Mb

     Self-consistent Calculation

     iteration #  1     ecut=    30.00 Ry     beta=0.70
     Davidson diagonalization with overlap
     ethr =  1.00E-02,  avg # of iterations =  8.0

     negative rho (up, down):  8.672E-02 0.000E+00

     total cpu time spent up to now is        0.4 secs

     total energy              =     -27.98415603 Ry
     Harris-Foulkes estimate   =     -32.08494689 Ry
     estimated scf accuracy    <       4.69316666 Ry

     iteration #  2     ecut=    30.00 Ry     beta=0.70
     Davidson diagonalization with overlap
     ethr =  1.00E-02,  avg # of iterations =  4.0

     negative rho (up, down):  6.352E-02 0.000E+00

     total cpu time spent up to now is        0.5 secs

     total energy              =     -32.71412860 Ry
     Harris-Foulkes estimate   =     -38.14932308 Ry
     estimated scf accuracy    <      13.21455041 Ry

     iteration #  3     ecut=    30.00 Ry     beta=0.70
     Davidson diagonalization with overlap
     ethr =  1.00E-02,  avg # of iterations =  2.0

     negative rho (up, down):  6.550E-02 0.000E+00

     total cpu time spent up to now is        0.5 secs

     total energy              =     -33.26525585 Ry
     Harris-Foulkes estimate   =     -33.05252751 Ry
     estimated scf accuracy    <       5.17096154 Ry

     iteration #  4     ecut=    30.00 Ry     beta=0.70
     Davidson diagonalization with overlap
     ethr =  1.00E-02,  avg # of iterations =  1.0

     negative rho (up, down):  2.576E-02 0.000E+00

     total cpu time spent up to now is        0.6 secs

     total energy              =     -30.11997058 Ry
     Harris-Foulkes estimate   =     -33.26578287 Ry
     estimated scf accuracy    <       5.47899870 Ry

     iteration #  5     ecut=    30.00 Ry     beta=0.70
     Davidson diagonalization with overlap
     ethr =  1.00E-02,  avg # of iterations =  6.0

     negative rho (up, down):  2.726E-02 0.000E+00

     total cpu time spent up to now is        0.7 secs

     total energy              =     -33.48878681 Ry
     Harris-Foulkes estimate   =     -33.45902824 Ry
     estimated scf accuracy    <      14.08425729 Ry

     iteration #  6     ecut=    30.00 Ry     beta=0.70
     Davidson diagonalization with overlap
     ethr =  1.00E-02,  avg # of iterations =  1.0

     negative rho (up, down):  2.918E-02 0.000E+00

     total cpu time spent up to now is        0.7 secs

     total energy              =     -33.48077234 Ry
     Harris-Foulkes estimate   =     -33.49917047 Ry
     estimated scf accuracy    <      14.19448707 Ry

     iteration #  7     ecut=    30.00 Ry     beta=0.70
     Davidson diagonalization with overlap
     ethr =  1.00E-02,  avg # of iterations =  1.0

     negative rho (up, down):  6.687E-02 0.000E+00

     total cpu time spent up to now is        0.8 secs

     total energy              =     -32.85688586 Ry
     Harris-Foulkes estimate   =     -33.48350643 Ry
     estimated scf accuracy    <      14.22895436 Ry

     iteration #  8     ecut=    30.00 Ry     beta=0.70
     Davidson diagonalization with overlap
     ethr =  1.00E-02,  avg # of iterations =  1.0

     negative rho (up, down):  4.301E-02 0.000E+00

     total cpu time spent up to now is        0.8 secs

     total energy              =     -32.53365596 Ry
     Harris-Foulkes estimate   =     -32.92705263 Ry
     estimated scf accuracy    <       6.83676730 Ry

     iteration #  9     ecut=    30.00 Ry     beta=0.70
     Davidson diagonalization with overlap
     ethr =  1.00E-02,  avg # of iterations =  3.0

     negative rho (up, down):  1.611E-02 0.000E+00

     total cpu time spent up to now is        0.8 secs

     total energy              =     -32.23017252 Ry
     Harris-Foulkes estimate   =     -32.57475295 Ry
     estimated scf accuracy    <       5.47654800 Ry

     iteration # 10     ecut=    30.00 Ry     beta=0.70
     Davidson diagonalization with overlap
     ethr =  1.00E-02,  avg # of iterations =  1.0

     negative rho (up, down):  1.537E-03 0.000E+00

     total cpu time spent up to now is        0.9 secs

     total energy              =     -31.71254320 Ry
     Harris-Foulkes estimate   =     -32.23684046 Ry
     estimated scf accuracy    <       4.88691048 Ry

     iteration # 11     ecut=    30.00 Ry     beta=0.70
     Davidson diagonalization with overlap
     ethr =  1.00E-02,  avg # of iterations =  1.0

     negative rho (up, down):  3.381E-03 0.000E+00

     total cpu time spent up to now is        0.9 secs

     total energy              =     -31.58020010 Ry
     Harris-Foulkes estimate   =     -31.72178573 Ry
     estimated scf accuracy    <       4.05268551 Ry

     iteration # 12     ecut=    30.00 Ry     beta=0.70
     Davidson diagonalization with overlap
     ethr =  1.00E-02,  avg # of iterations =  1.0

     negative rho (up, down):  9.779E-04 0.000E+00

     total cpu time spent up to now is        0.9 secs

     total energy              =     -31.66429592 Ry
     Harris-Foulkes estimate   =     -31.57889136 Ry
     estimated scf accuracy    <       4.78985061 Ry

     iteration # 13     ecut=    30.00 Ry     beta=0.70
     Davidson diagonalization with overlap
     ethr =  1.00E-02,  avg # of iterations =  1.0

     negative rho (up, down):  3.177E-01 0.000E+00

     total cpu time spent up to now is        1.0 secs

     total energy              =     -35.02679692 Ry
     Harris-Foulkes estimate   =     -31.65853990 Ry
     estimated scf accuracy    <       3.95583791 Ry

     iteration # 14     ecut=    30.00 Ry     beta=0.70
     Davidson diagonalization with overlap
     ethr =  1.00E-02,  avg # of iterations =  5.0

     negative rho (up, down):  1.633E+00 0.000E+00

     total cpu time spent up to now is        1.0 secs

     total energy              =     -46.25552124 Ry
     Harris-Foulkes estimate   =     -36.22773258 Ry
     estimated scf accuracy    <      19.45646044 Ry

     iteration # 15     ecut=    30.00 Ry     beta=0.70
     Davidson diagonalization with overlap
     ethr =  1.00E-02,  avg # of iterations =  6.0

     negative rho (up, down):  1.372E+00 0.000E+00

     total cpu time spent up to now is        1.1 secs

     total energy              =     -37.13352590 Ry
     Harris-Foulkes estimate   =     -52.27976516 Ry
     estimated scf accuracy    <      59.44598329 Ry

     iteration # 16     ecut=    30.00 Ry     beta=0.70
     Davidson diagonalization with overlap
     ethr =  1.00E-02,  avg # of iterations =  4.0

     negative rho (up, down):  2.576E-01 0.000E+00

     total cpu time spent up to now is        1.1 secs

     total energy              =     -19.28348477 Ry
     Harris-Foulkes estimate   =     -48.00630771 Ry
     estimated scf accuracy    <      53.82457839 Ry

     iteration # 17     ecut=    30.00 Ry     beta=0.70
     Davidson diagonalization with overlap
     ethr =  1.00E-02,  avg # of iterations = 11.0

     negative rho (up, down):  1.064E-01 0.000E+00

     total cpu time spent up to now is        1.2 secs

     total energy              =     -32.42610635 Ry
     Harris-Foulkes estimate   =     -30.90416012 Ry
     estimated scf accuracy    <       3.04690064 Ry

     iteration # 18     ecut=    30.00 Ry     beta=0.70
     Davidson diagonalization with overlap
     ethr =  1.00E-02,  avg # of iterations =  2.0

     negative rho (up, down):  6.165E-02 0.000E+00

     total cpu time spent up to now is        1.2 secs

     total energy              =     -33.72553975 Ry
     Harris-Foulkes estimate   =     -32.49387085 Ry
     estimated scf accuracy    <       5.38090910 Ry

     iteration # 19     ecut=    30.00 Ry     beta=0.70
     Davidson diagonalization with overlap
     ethr =  1.00E-02,  avg # of iterations =  1.0

     negative rho (up, down):  3.603E-01 0.000E+00

     total cpu time spent up to now is        1.2 secs

     total energy              =     -35.53222447 Ry
     Harris-Foulkes estimate   =     -34.10001510 Ry
     estimated scf accuracy    <      15.47106331 Ry

     iteration # 20     ecut=    30.00 Ry     beta=0.70
     Davidson diagonalization with overlap
     ethr =  1.00E-02,  avg # of iterations =  4.0

     negative rho (up, down):  2.942E-01 0.000E+00

     total cpu time spent up to now is        1.3 secs

     total energy              =     -26.24614834 Ry
     Harris-Foulkes estimate   =     -35.69982391 Ry
     estimated scf accuracy    <      18.72923818 Ry

     iteration # 21     ecut=    30.00 Ry     beta=0.70
     Davidson diagonalization with overlap
     ethr =  1.00E-02,  avg # of iterations =  9.0

     negative rho (up, down):  6.487E-02 0.000E+00

     total cpu time spent up to now is        1.3 secs

     total energy              =     -32.88024868 Ry
     Harris-Foulkes estimate   =     -34.28636869 Ry
     estimated scf accuracy    <       7.07696162 Ry

     iteration # 22     ecut=    30.00 Ry     beta=0.70
     Davidson diagonalization with overlap
     ethr =  1.00E-02,  avg # of iterations =  1.0

     negative rho (up, down):  2.735E-02 0.000E+00

     total cpu time spent up to now is        1.4 secs

     total energy              =     -30.41332094 Ry
     Harris-Foulkes estimate   =     -32.90847366 Ry
     estimated scf accuracy    <       4.96374044 Ry

     iteration # 23     ecut=    30.00 Ry     beta=0.70
     Davidson diagonalization with overlap
     ethr =  1.00E-02,  avg # of iterations =  3.0

     negative rho (up, down):  5.655E-04 0.000E+00

     total cpu time spent up to now is        1.4 secs

     total energy              =     -31.18816600 Ry
     Harris-Foulkes estimate   =     -32.79198111 Ry
     estimated scf accuracy    <       5.79517147 Ry

     iteration # 24     ecut=    30.00 Ry     beta=0.70
     Davidson diagonalization with overlap
     ethr =  1.00E-02,  avg # of iterations =  2.0

     negative rho (up, down):  7.616E-04 0.000E+00

     total cpu time spent up to now is        1.4 secs

     total energy              =     -31.50389468 Ry
     Harris-Foulkes estimate   =     -31.65461151 Ry
     estimated scf accuracy    <       2.98402887 Ry

     iteration # 25     ecut=    30.00 Ry     beta=0.70
     Davidson diagonalization with overlap
     ethr =  1.00E-02,  avg # of iterations =  1.0

     negative rho (up, down):  9.228E-04 0.000E+00

     total cpu time spent up to now is        1.5 secs

     total energy              =     -31.47324149 Ry
     Harris-Foulkes estimate   =     -31.50943345 Ry
     estimated scf accuracy    <       1.51898113 Ry

     iteration # 26     ecut=    30.00 Ry     beta=0.70
     Davidson diagonalization with overlap
     ethr =  1.00E-02,  avg # of iterations =  1.0

     negative rho (up, down):  1.117E-03 0.000E+00

     total cpu time spent up to now is        1.5 secs

     total energy              =     -31.49762825 Ry
     Harris-Foulkes estimate   =     -31.49147838 Ry
     estimated scf accuracy    <       0.09884582 Ry

     iteration # 27     ecut=    30.00 Ry     beta=0.70
     Davidson diagonalization with overlap
     ethr =  1.24E-03,  avg # of iterations =  1.0

     negative rho (up, down):  2.098E-03 0.000E+00

     total cpu time spent up to now is        1.5 secs

     total energy              =     -31.13043023 Ry
     Harris-Foulkes estimate   =     -31.55125720 Ry
     estimated scf accuracy    <       4.45752040 Ry

     iteration # 28     ecut=    30.00 Ry     beta=0.70
     Davidson diagonalization with overlap
     ethr =  1.24E-03,  avg # of iterations =  1.0

     negative rho (up, down):  3.320E-03 0.000E+00

     total cpu time spent up to now is        1.6 secs

     total energy              =     -31.63149399 Ry
     Harris-Foulkes estimate   =     -31.72673025 Ry
     estimated scf accuracy    <       3.10706591 Ry

     iteration # 29     ecut=    30.00 Ry     beta=0.70
     Davidson diagonalization with overlap
     ethr =  1.24E-03,  avg # of iterations =  1.0

     negative rho (up, down):  1.345E-05 0.000E+00

     total cpu time spent up to now is        1.6 secs

     total energy              =     -31.68550808 Ry
     Harris-Foulkes estimate   =     -31.63175712 Ry
     estimated scf accuracy    <       2.98741927 Ry

     iteration # 30     ecut=    30.00 Ry     beta=0.70
     Davidson diagonalization with overlap
     ethr =  1.24E-03,  avg # of iterations =  1.0

     total cpu time spent up to now is        1.6 secs

     total energy              =     -31.67527393 Ry
     Harris-Foulkes estimate   =     -31.68553686 Ry
     estimated scf accuracy    <       3.05195218 Ry

     iteration # 31     ecut=    30.00 Ry     beta=0.70
     Davidson diagonalization with overlap
     ethr =  1.24E-03,  avg # of iterations =  1.0

     negative rho (up, down):  3.631E-04 0.000E+00

     total cpu time spent up to now is        1.7 secs

     total energy              =     -31.59225457 Ry
     Harris-Foulkes estimate   =     -31.67527942 Ry
     estimated scf accuracy    <       3.03584049 Ry

     iteration # 32     ecut=    30.00 Ry     beta=0.70
     Davidson diagonalization with overlap
     ethr =  1.24E-03,  avg # of iterations =  1.0

     negative rho (up, down):  1.242E-03 0.000E+00

     total cpu time spent up to now is        1.7 secs

     total energy              =     -31.61055468 Ry
     Harris-Foulkes estimate   =     -31.59239829 Ry
     estimated scf accuracy    <       2.90601036 Ry

     iteration # 33     ecut=    30.00 Ry     beta=0.70
     Davidson diagonalization with overlap
     ethr =  1.24E-03,  avg # of iterations =  1.0

     negative rho (up, down):  7.283E-07 0.000E+00

     total cpu time spent up to now is        1.7 secs

     total energy              =     -31.53286544 Ry
     Harris-Foulkes estimate   =     -31.61063636 Ry
     estimated scf accuracy    <       2.94701498 Ry

     iteration # 34     ecut=    30.00 Ry     beta=0.70
     Davidson diagonalization with overlap
     ethr =  1.24E-03,  avg # of iterations =  1.0

     negative rho (up, down):  1.764E-08 0.000E+00

     total cpu time spent up to now is        1.8 secs

     total energy              =     -31.53796864 Ry
     Harris-Foulkes estimate   =     -31.54161961 Ry
     estimated scf accuracy    <       1.29856943 Ry

     iteration # 35     ecut=    30.00 Ry     beta=0.70
     Davidson diagonalization with overlap
     ethr =  1.24E-03,  avg # of iterations =  1.0

     total cpu time spent up to now is        1.8 secs

     total energy              =     -31.53516185 Ry
     Harris-Foulkes estimate   =     -31.53798875 Ry
     estimated scf accuracy    <       1.27432305 Ry

     iteration # 36     ecut=    30.00 Ry     beta=0.70
     Davidson diagonalization with overlap
     ethr =  1.24E-03,  avg # of iterations =  1.0

     negative rho (up, down):  4.733E-01 0.000E+00

     total cpu time spent up to now is        1.9 secs

     total energy              =     -31.69639946 Ry
     Harris-Foulkes estimate   =     -31.53571049 Ry
     estimated scf accuracy    <       0.99185627 Ry

     iteration # 37     ecut=    30.00 Ry     beta=0.70
     Davidson diagonalization with overlap
     ethr =  1.24E-03,  avg # of iterations = 12.0

     negative rho (up, down):  2.149E-02 0.000E+00

     total cpu time spent up to now is        1.9 secs

     total energy              =     -28.85963960 Ry
     Harris-Foulkes estimate   =     -41.91971488 Ry
     estimated scf accuracy    <      46.67108176 Ry

     iteration # 38     ecut=    30.00 Ry     beta=0.70
     Davidson diagonalization with overlap
     ethr =  1.24E-03,  avg # of iterations =  6.0

     total cpu time spent up to now is        2.0 secs

     total energy              =     -31.60907719 Ry
     Harris-Foulkes estimate   =     -32.15403188 Ry
     estimated scf accuracy    <      13.71740027 Ry

     iteration # 39     ecut=    30.00 Ry     beta=0.70
     Davidson diagonalization with overlap
     ethr =  1.24E-03,  avg # of iterations = 11.0

     total cpu time spent up to now is        2.0 secs

     total energy              =     -31.91273414 Ry
     Harris-Foulkes estimate   =     -32.24649026 Ry
     estimated scf accuracy    <       4.99509570 Ry

     iteration # 40     ecut=    30.00 Ry     beta=0.70
     Davidson diagonalization with overlap
     ethr =  1.24E-03,  avg # of iterations =  2.0

     total cpu time spent up to now is        2.1 secs

     total energy              =     -31.63603045 Ry
     Harris-Foulkes estimate   =     -31.91893399 Ry
     estimated scf accuracy    <       4.38395355 Ry

     iteration # 41     ecut=    30.00 Ry     beta=0.70
     Davidson diagonalization with overlap
     ethr =  1.24E-03,  avg # of iterations =  1.0

     negative rho (up, down):  5.584E-05 0.000E+00

     total cpu time spent up to now is        2.1 secs

     total energy              =     -31.53222369 Ry
     Harris-Foulkes estimate   =     -31.63851087 Ry
     estimated scf accuracy    <       4.09105002 Ry

     iteration # 42     ecut=    30.00 Ry     beta=0.70
     Davidson diagonalization with overlap
     ethr =  1.24E-03,  avg # of iterations =  1.0

     total cpu time spent up to now is        2.1 secs

     total energy              =     -31.63658677 Ry
     Harris-Foulkes estimate   =     -31.53422668 Ry
     estimated scf accuracy    <       2.40579730 Ry

     iteration # 43     ecut=    30.00 Ry     beta=0.70
     Davidson diagonalization with overlap
     ethr =  1.24E-03,  avg # of iterations =  1.0

     total cpu time spent up to now is        2.2 secs

     total energy              =     -31.61079464 Ry
     Harris-Foulkes estimate   =     -31.66166853 Ry
     estimated scf accuracy    <       4.06265303 Ry

     iteration # 44     ecut=    30.00 Ry     beta=0.70
     Davidson diagonalization with overlap
     ethr =  1.24E-03,  avg # of iterations =  1.0

     total cpu time spent up to now is        2.2 secs

     total energy              =     -31.56898425 Ry
     Harris-Foulkes estimate   =     -31.60865683 Ry
     estimated scf accuracy    <       4.36881489 Ry

     iteration # 45     ecut=    30.00 Ry     beta=0.70
     Davidson diagonalization with overlap
     ethr =  1.24E-03,  avg # of iterations =  1.0

     negative rho (up, down):  3.218E-03 0.000E+00

     total cpu time spent up to now is        2.2 secs

     total energy              =     -32.38018832 Ry
     Harris-Foulkes estimate   =     -31.57764315 Ry
     estimated scf accuracy    <       1.98519551 Ry

     iteration # 46     ecut=    30.00 Ry     beta=0.70
     Davidson diagonalization with overlap
     ethr =  1.24E-03,  avg # of iterations =  2.0

     negative rho (up, down):  2.487E-05 0.000E+00

     total cpu time spent up to now is        2.3 secs

     total energy              =     -31.20866690 Ry
     Harris-Foulkes estimate   =     -32.66524882 Ry
     estimated scf accuracy    <       5.57493833 Ry

     iteration # 47     ecut=    30.00 Ry     beta=0.70
     Davidson diagonalization with overlap
     ethr =  1.24E-03,  avg # of iterations =  3.0

     negative rho (up, down):  8.765E-05 0.000E+00

     total cpu time spent up to now is        2.3 secs

     total energy              =     -31.78042503 Ry
     Harris-Foulkes estimate   =     -31.64612264 Ry
     estimated scf accuracy    <       3.03367123 Ry

     iteration # 48     ecut=    30.00 Ry     beta=0.70
     Davidson diagonalization with overlap
     ethr =  1.24E-03,  avg # of iterations =  1.0

     negative rho (up, down):  1.107E-04 0.000E+00

     total cpu time spent up to now is        2.3 secs

     total energy              =     -31.75176148 Ry
     Harris-Foulkes estimate   =     -31.78096812 Ry
     estimated scf accuracy    <       3.24581962 Ry

     iteration # 49     ecut=    30.00 Ry     beta=0.70
     Davidson diagonalization with overlap
     ethr =  1.24E-03,  avg # of iterations =  1.0

     negative rho (up, down):  7.033E-05 0.000E+00

     total cpu time spent up to now is        2.4 secs

     total energy              =     -31.68305292 Ry
     Harris-Foulkes estimate   =     -31.75181070 Ry
     estimated scf accuracy    <       3.20290548 Ry

     iteration # 50     ecut=    30.00 Ry     beta=0.70
     Davidson diagonalization with overlap
     ethr =  1.24E-03,  avg # of iterations =  1.0

     negative rho (up, down):  7.650E-06 0.000E+00

     total cpu time spent up to now is        2.4 secs

     total energy              =     -31.63380760 Ry
     Harris-Foulkes estimate   =     -31.68326630 Ry
     estimated scf accuracy    <       3.08517997 Ry

     iteration # 51     ecut=    30.00 Ry     beta=0.70
     Davidson diagonalization with overlap
     ethr =  1.24E-03,  avg # of iterations =  1.0

     negative rho (up, down):  1.643E-06 0.000E+00

     total cpu time spent up to now is        2.4 secs

     total energy              =     -31.51598227 Ry
     Harris-Foulkes estimate   =     -31.63386695 Ry
     estimated scf accuracy    <       3.00914389 Ry

     iteration # 52     ecut=    30.00 Ry     beta=0.70
     Davidson diagonalization with overlap
     ethr =  1.24E-03,  avg # of iterations =  1.0

     negative rho (up, down):  5.720E-07 0.000E+00

     total cpu time spent up to now is        2.5 secs

     total energy              =     -31.50342778 Ry
     Harris-Foulkes estimate   =     -31.52444574 Ry
     estimated scf accuracy    <       1.33266845 Ry

     iteration # 53     ecut=    30.00 Ry     beta=0.70
     Davidson diagonalization with overlap
     ethr =  1.24E-03,  avg # of iterations =  1.0

     negative rho (up, down):  1.736E-06 0.000E+00

     total cpu time spent up to now is        2.5 secs

     total energy              =     -31.55412473 Ry
     Harris-Foulkes estimate   =     -31.50924963 Ry
     estimated scf accuracy    <       0.59992289 Ry

     iteration # 54     ecut=    30.00 Ry     beta=0.70
     Davidson diagonalization with overlap
     ethr =  1.24E-03,  avg # of iterations =  1.0

     negative rho (up, down):  1.075E-03 0.000E+00

     total cpu time spent up to now is        2.5 secs

     total energy              =     -30.99451114 Ry
     Harris-Foulkes estimate   =     -31.56821149 Ry
     estimated scf accuracy    <       1.84930369 Ry

     iteration # 55     ecut=    30.00 Ry     beta=0.70
     Davidson diagonalization with overlap
     ethr =  1.24E-03,  avg # of iterations =  3.0

     negative rho (up, down):  4.470E-04 0.000E+00

     total cpu time spent up to now is        2.6 secs

     total energy              =     -31.93696896 Ry
     Harris-Foulkes estimate   =     -32.44637483 Ry
     estimated scf accuracy    <       5.14080708 Ry

     iteration # 56     ecut=    30.00 Ry     beta=0.70
     Davidson diagonalization with overlap
     ethr =  1.24E-03,  avg # of iterations =  2.0

     negative rho (up, down):  3.443E-07 0.000E+00

     total cpu time spent up to now is        2.6 secs

     total energy              =     -31.75142468 Ry
     Harris-Foulkes estimate   =     -31.94278800 Ry
     estimated scf accuracy    <       4.37188632 Ry

     iteration # 57     ecut=    30.00 Ry     beta=0.70
     Davidson diagonalization with overlap
     ethr =  1.24E-03,  avg # of iterations =  1.0

     total cpu time spent up to now is        2.6 secs

     total energy              =     -31.59405372 Ry
     Harris-Foulkes estimate   =     -31.75264100 Ry
     estimated scf accuracy    <       4.08120303 Ry

     iteration # 58     ecut=    30.00 Ry     beta=0.70
     Davidson diagonalization with overlap
     ethr =  1.24E-03,  avg # of iterations =  1.0

     negative rho (up, down):  1.695E-07 0.000E+00

     total cpu time spent up to now is        2.7 secs

     total energy              =     -31.35752537 Ry
     Harris-Foulkes estimate   =     -31.59131277 Ry
     estimated scf accuracy    <       3.29377919 Ry

     iteration # 59     ecut=    30.00 Ry     beta=0.70
     Davidson diagonalization with overlap
     ethr =  1.24E-03,  avg # of iterations =  1.0

     total cpu time spent up to now is        2.7 secs

     total energy              =     -31.48653752 Ry
     Harris-Foulkes estimate   =     -31.56281211 Ry
     estimated scf accuracy    <       2.78546908 Ry

     iteration # 60     ecut=    30.00 Ry     beta=0.70
     Davidson diagonalization with overlap
     ethr =  1.24E-03,  avg # of iterations =  1.0

     total cpu time spent up to now is        2.7 secs

     total energy              =     -31.51144464 Ry
     Harris-Foulkes estimate   =     -31.51156079 Ry
     estimated scf accuracy    <       0.60986892 Ry

     iteration # 61     ecut=    30.00 Ry     beta=0.70
     Davidson diagonalization with overlap
     ethr =  1.24E-03,  avg # of iterations =  1.0

     total cpu time spent up to now is        2.8 secs

     total energy              =     -31.51347773 Ry
     Harris-Foulkes estimate   =     -31.51255643 Ry
     estimated scf accuracy    <       0.66599840 Ry

     iteration # 62     ecut=    30.00 Ry     beta=0.70
     Davidson diagonalization with overlap
     ethr =  1.24E-03,  avg # of iterations =  1.0

     total cpu time spent up to now is        2.8 secs

     total energy              =     -31.52528809 Ry
     Harris-Foulkes estimate   =     -31.52441782 Ry
     estimated scf accuracy    <       1.15400245 Ry

     iteration # 63     ecut=    30.00 Ry     beta=0.70
     Davidson diagonalization with overlap
     ethr =  1.24E-03,  avg # of iterations =  1.0

     total cpu time spent up to now is        2.8 secs

     total energy              =     -31.52894403 Ry
     Harris-Foulkes estimate   =     -31.52530102 Ry
     estimated scf accuracy    <       1.15678241 Ry

     iteration # 64     ecut=    30.00 Ry     beta=0.70
     Davidson diagonalization with overlap
     ethr =  1.24E-03,  avg # of iterations =  1.0

     total cpu time spent up to now is        2.9 secs

     total energy              =     -31.52424098 Ry
     Harris-Foulkes estimate   =     -31.52922538 Ry
     estimated scf accuracy    <       1.18258329 Ry

     iteration # 65     ecut=    30.00 Ry     beta=0.70
     Davidson diagonalization with overlap
     ethr =  1.24E-03,  avg # of iterations =  1.0

     total cpu time spent up to now is        2.9 secs

     total energy              =     -31.52834752 Ry
     Harris-Foulkes estimate   =     -31.52450069 Ry
     estimated scf accuracy    <       1.16029239 Ry

     iteration # 66     ecut=    30.00 Ry     beta=0.70
     Davidson diagonalization with overlap
     ethr =  1.24E-03,  avg # of iterations =  1.0

     total cpu time spent up to now is        2.9 secs

     total energy              =     -31.51758446 Ry
     Harris-Foulkes estimate   =     -31.52871372 Ry
     estimated scf accuracy    <       1.19874022 Ry

     iteration # 67     ecut=    30.00 Ry     beta=0.70
     Davidson diagonalization with overlap
     ethr =  1.24E-03,  avg # of iterations =  1.0

     total cpu time spent up to now is        3.0 secs

     total energy              =     -31.49981237 Ry
     Harris-Foulkes estimate   =     -31.52132441 Ry
     estimated scf accuracy    <       1.10566242 Ry

     iteration # 68     ecut=    30.00 Ry     beta=0.70
     Davidson diagonalization with overlap
     ethr =  1.24E-03,  avg # of iterations =  1.0

     total cpu time spent up to now is        3.0 secs

     total energy              =     -31.50134842 Ry
     Harris-Foulkes estimate   =     -31.50264495 Ry
     estimated scf accuracy    <       0.53520646 Ry

     iteration # 69     ecut=    30.00 Ry     beta=0.70
     Davidson diagonalization with overlap
     ethr =  1.24E-03,  avg # of iterations =  1.0

     total cpu time spent up to now is        3.0 secs

     total energy              =     -31.49875618 Ry
     Harris-Foulkes estimate   =     -31.51091964 Ry
     estimated scf accuracy    <       0.85241157 Ry

     iteration # 70     ecut=    30.00 Ry     beta=0.70
     Davidson diagonalization with overlap
     ethr =  1.24E-03,  avg # of iterations =  1.0

     total cpu time spent up to now is        3.1 secs

     total energy              =     -31.50181942 Ry
     Harris-Foulkes estimate   =     -31.51239396 Ry
     estimated scf accuracy    <       0.83026310 Ry

     iteration # 71     ecut=    30.00 Ry     beta=0.70
     Davidson diagonalization with overlap
     ethr =  1.24E-03,  avg # of iterations =  1.0

     total cpu time spent up to now is        3.1 secs

     total energy              =     -31.49779530 Ry
     Harris-Foulkes estimate   =     -31.50265394 Ry
     estimated scf accuracy    <       0.55902094 Ry

     iteration # 72     ecut=    30.00 Ry     beta=0.70
     Davidson diagonalization with overlap
     ethr =  1.24E-03,  avg # of iterations =  1.0

     total cpu time spent up to now is        3.1 secs

     total energy              =     -31.49019916 Ry
     Harris-Foulkes estimate   =     -31.49818027 Ry
     estimated scf accuracy    <       0.39626569 Ry

     iteration # 73     ecut=    30.00 Ry     beta=0.70
     Davidson diagonalization with overlap
     ethr =  1.24E-03,  avg # of iterations =  1.0

     total cpu time spent up to now is        3.2 secs

     total energy              =     -31.49029064 Ry
     Harris-Foulkes estimate   =     -31.49306284 Ry
     estimated scf accuracy    <       0.24850207 Ry

     iteration # 74     ecut=    30.00 Ry     beta=0.70
     Davidson diagonalization with overlap
     ethr =  1.24E-03,  avg # of iterations =  1.0

     total cpu time spent up to now is        3.2 secs

     total energy              =     -31.49058763 Ry
     Harris-Foulkes estimate   =     -31.49097601 Ry
     estimated scf accuracy    <       0.06420805 Ry

     iteration # 75     ecut=    30.00 Ry     beta=0.70
     Davidson diagonalization with overlap
     ethr =  8.03E-04,  avg # of iterations =  1.0

     total cpu time spent up to now is        3.2 secs

     total energy              =     -31.48949582 Ry
     Harris-Foulkes estimate   =     -31.49063181 Ry
     estimated scf accuracy    <       0.04325345 Ry

     iteration # 76     ecut=    30.00 Ry     beta=0.70
     Davidson diagonalization with overlap
     ethr =  5.41E-04,  avg # of iterations =  1.0

     total cpu time spent up to now is        3.3 secs

     total energy              =     -31.49003708 Ry
     Harris-Foulkes estimate   =     -31.49005516 Ry
     estimated scf accuracy    <       0.00146123 Ry

     iteration # 77     ecut=    30.00 Ry     beta=0.70
     Davidson diagonalization with overlap
     ethr =  1.83E-05,  avg # of iterations =  1.0

     total cpu time spent up to now is        3.3 secs

     total energy              =     -31.49002628 Ry
     Harris-Foulkes estimate   =     -31.49004592 Ry
     estimated scf accuracy    <       0.00050788 Ry

     iteration # 78     ecut=    30.00 Ry     beta=0.70
     Davidson diagonalization with overlap
     ethr =  6.35E-06,  avg # of iterations =  1.0

     total cpu time spent up to now is        3.3 secs

     total energy              =     -31.49003154 Ry
     Harris-Foulkes estimate   =     -31.49003596 Ry
     estimated scf accuracy    <       0.00020141 Ry

     iteration # 79     ecut=    30.00 Ry     beta=0.70
     Davidson diagonalization with overlap
     ethr =  2.52E-06,  avg # of iterations =  1.0

     total cpu time spent up to now is        3.4 secs

     total energy              =     -31.49003247 Ry
     Harris-Foulkes estimate   =     -31.49003659 Ry
     estimated scf accuracy    <       0.00014901 Ry

     iteration # 80     ecut=    30.00 Ry     beta=0.70
     Davidson diagonalization with overlap
     ethr =  1.86E-06,  avg # of iterations =  7.0

     total cpu time spent up to now is        3.4 secs

     total energy              =     -31.49003451 Ry
     Harris-Foulkes estimate   =     -31.49003460 Ry
     estimated scf accuracy    <       0.00000052 Ry

     iteration # 81     ecut=    30.00 Ry     beta=0.70
     Davidson diagonalization with overlap
     ethr =  6.55E-09,  avg # of iterations =  1.0

     total cpu time spent up to now is        3.4 secs

     total energy              =     -31.49003443 Ry
     Harris-Foulkes estimate   =     -31.49003453 Ry
     estimated scf accuracy    <       0.00000029 Ry

     iteration # 82     ecut=    30.00 Ry     beta=0.70
     Davidson diagonalization with overlap
     ethr =  3.65E-09,  avg # of iterations =  1.0

     total cpu time spent up to now is        3.5 secs

     End of self-consistent calculation

          k = 0.0000 0.0000 0.0000 ( 22119 PWs)   bands (ev):

   -23.6517  -7.0568  -7.0564  -7.0559  -6.9867  -6.9177  -0.2414   0.5803

     the Fermi energy is    -6.9224 ev

!    total energy              =     -31.49003438 Ry
     Harris-Foulkes estimate   =     -31.49003443 Ry
     estimated scf accuracy    <          4.5E-09 Ry

     convergence has been achieved in  82 iterations

     Forces acting on atoms (Ry/au):

     atom    1 type  1   force =    -0.00002415   -0.00049733    0.00066487
     atom    2 type  1   force =    -0.00059067   -0.00037196    0.00045137
     atom    3 type  2   force =     0.00061483    0.00086929   -0.00111624

     Total force =     0.001939     Total SCF correction =     0.000034

     Molecular Dynamics Calculation

     Starting temperature  =  1000.00 K

     temperature is controlled by Andersen thermostat
     Collision frequency = 1.0000/timestep
     mass H                =     1.01
     mass O                =    16.00
     Time step             =   100.00 a.u.,  4.8378 femto-seconds

     Entering Dynamics:    iteration =     1
                           time      =   0.0048 pico-seconds


     Andersen thermostat:    3 collisions

ATOMIC_POSITIONS (bohr)
H       16.548124895  11.751098913  16.454679365
H        4.126603161   9.310613713  19.496501490
O        7.803639403  19.746584940   6.050930172


     kinetic energy (Ekin) =     0.01319564 Ry
     temperature           =   694.47456190 K 
     Ekin + Etot (const)   =   -31.47683874 Ry

     Linear momentum :   -0.0000000000    0.0000000000    0.0000000000

     Writing output data file pwscf.save
     Check: negative starting charge=   -0.353757
     NEW-OLD atomic charge density approx. for the potential
     Check: negative starting charge=   -0.353445

     negative rho (up, down):  8.033E-02 0.000E+00

     total cpu time spent up to now is        3.7 secs

     per-process dynamical memory:    20.4 Mb

     Self-consistent Calculation

     iteration #  1     ecut=    30.00 Ry     beta=0.70
     Davidson diagonalization with overlap
     c_bands:  1 eigenvalues not converged
     ethr =  1.00E-06,  avg # of iterations = 20.0

     negative rho (up, down):  1.841E-02 0.000E+00

     total cpu time spent up to now is        3.8 secs

     total energy              =     -31.44734515 Ry
     Harris-Foulkes estimate   =     -31.42807976 Ry
     estimated scf accuracy    <       0.03213824 Ry

     iteration #  2     ecut=    30.00 Ry     beta=0.70
     Davidson diagonalization with overlap
     ethr =  4.02E-04,  avg # of iterations =  2.0

     negative rho (up, down):  1.717E-02 0.000E+00

     total cpu time spent up to now is        3.8 secs

     total energy              =     -31.46596569 Ry
     Harris-Foulkes estimate   =     -31.86336940 Ry
     estimated scf accuracy    <       4.29413137 Ry

     iteration #  3     ecut=    30.00 Ry     beta=0.70
     Davidson diagonalization with overlap
     ethr =  4.02E-04,  avg # of iterations =  2.0

     negative rho (up, down):  1.671E-02 0.000E+00

     total cpu time spent up to now is        3.9 secs

     total energy              =     -31.46329065 Ry
     Harris-Foulkes estimate   =     -31.50071889 Ry
     estimated scf accuracy    <       1.10830014 Ry

     iteration #  4     ecut=    30.00 Ry     beta=0.70
     Davidson diagonalization with overlap
     ethr =  4.02E-04,  avg # of iterations =  1.0

     negative rho (up, down):  5.619E-03 0.000E+00

     total cpu time spent up to now is        3.9 secs

     total energy              =     -31.44377337 Ry
     Harris-Foulkes estimate   =     -31.47742680 Ry
     estimated scf accuracy    <       0.40182674 Ry

     iteration #  5     ecut=    30.00 Ry     beta=0.70
     Davidson diagonalization with overlap
     ethr =  4.02E-04,  avg # of iterations =  1.0

     negative rho (up, down):  2.676E-03 0.000E+00

     total cpu time spent up to now is        3.9 secs

     total energy              =     -31.45883739 Ry
     Harris-Foulkes estimate   =     -31.55411495 Ry
     estimated scf accuracy    <       2.80825818 Ry

     iteration #  6     ecut=    30.00 Ry     beta=0.70
     Davidson diagonalization with overlap
     ethr =  4.02E-04,  avg # of iterations =  1.0

     negative rho (up, down):  5.513E-04 0.000E+00

     total cpu time spent up to now is        4.0 secs

     total energy              =     -31.48987028 Ry
     Harris-Foulkes estimate   =     -31.48828001 Ry
     estimated scf accuracy    <       0.01270527 Ry

     iteration #  7     ecut=    30.00 Ry     beta=0.70
     Davidson diagonalization with overlap
     ethr =  1.59E-04,  avg # of iterations =  5.0

     negative rho (up, down):  2.477E-04 0.000E+00

     total cpu time spent up to now is        4.0 secs

     total energy              =     -31.48992211 Ry
     Harris-Foulkes estimate   =     -31.49004592 Ry
     estimated scf accuracy    <       0.01193816 Ry

     iteration #  8     ecut=    30.00 Ry     beta=0.70
     Davidson diagonalization with overlap
     ethr =  1.49E-04,  avg # of iterations =  1.0

     negative rho (up, down):  2.824E-06 0.000E+00

     total cpu time spent up to now is        4.0 secs

     total energy              =     -31.49001459 Ry
     Harris-Foulkes estimate   =     -31.48997224 Ry
     estimated scf accuracy    <       0.00168418 Ry

     iteration #  9     ecut=    30.00 Ry     beta=0.70
     Davidson diagonalization with overlap
     ethr =  2.11E-05,  avg # of iterations = 10.0

     total cpu time spent up to now is        4.1 secs

     total energy              =     -31.48990105 Ry
     Harris-Foulkes estimate   =     -31.49004484 Ry
     estimated scf accuracy    <       0.00600385 Ry

     iteration # 10     ecut=    30.00 Ry     beta=0.70
     Davidson diagonalization with overlap
     ethr =  2.11E-05,  avg # of iterations =  1.0

     total cpu time spent up to now is        4.1 secs

     total energy              =     -31.48999416 Ry
     Harris-Foulkes estimate   =     -31.48999357 Ry
     estimated scf accuracy    <       0.00030159 Ry

     iteration # 11     ecut=    30.00 Ry     beta=0.70
     Davidson diagonalization with overlap
     ethr =  3.77E-06,  avg # of iterations =  1.0

     total cpu time spent up to now is        4.1 secs

     total energy              =     -31.48998530 Ry
     Harris-Foulkes estimate   =     -31.48999492 Ry
     estimated scf accuracy    <       0.00052962 Ry

     iteration # 12     ecut=    30.00 Ry     beta=0.70
     Davidson diagonalization with overlap
     ethr =  3.77E-06,  avg # of iterations =  1.0

     total cpu time spent up to now is        4.2 secs

     total energy              =     -31.48998823 Ry
     Harris-Foulkes estimate   =     -31.48998947 Ry
     estimated scf accuracy    <       0.00001651 Ry

     iteration # 13     ecut=    30.00 Ry     beta=0.70
     Davidson diagonalization with overlap
     ethr =  2.06E-07,  avg # of iterations =  1.0

     total cpu time spent up to now is        4.2 secs

     total energy              =     -31.48998387 Ry
     Harris-Foulkes estimate   =     -31.48999468 Ry
     estimated scf accuracy    <       0.00048684 Ry

     iteration # 14     ecut=    30.00 Ry     beta=0.70
     Davidson diagonalization with overlap
     ethr =  2.06E-07,  avg # of iterations =  1.0

     total cpu time spent up to now is        4.2 secs

     total energy              =     -31.48999003 Ry
     Harris-Foulkes estimate   =     -31.48999024 Ry
     estimated scf accuracy    <       0.00001418 Ry

     iteration # 15     ecut=    30.00 Ry     beta=0.70
     Davidson diagonalization with overlap
     ethr =  1.77E-07,  avg # of iterations =  1.0

     total cpu time spent up to now is        4.3 secs

     End of self-consistent calculation

          k = 0.0000 0.0000 0.0000 ( 22119 PWs)   bands (ev):

   -23.6558  -7.0596  -7.0593  -7.0589  -6.9942  -6.9157  -0.2420   0.5971

     the Fermi energy is    -6.9253 ev

!    total energy              =     -31.48999027 Ry
     Harris-Foulkes estimate   =     -31.48999017 Ry
     estimated scf accuracy    <          1.6E-09 Ry

     convergence has been achieved in  15 iterations

     Forces acting on atoms (Ry/au):

     atom    1 type  1   force =     0.00000179   -0.00051506    0.00101109
     atom    2 type  1   force =    -0.00075621   -0.00030117    0.00069853
     atom    3 type  2   force =     0.00075441    0.00081622   -0.00170961

     Total force =     0.002568     Total SCF correction =     0.000189

     Entering Dynamics:    iteration =     2
                           time      =   0.0097 pico-seconds


     Andersen thermostat:    3 collisions

ATOMIC_POSITIONS (bohr)
H       16.600558039  11.921653733  16.610793486
H        4.181644966   9.153491476  19.680330763
O        7.796855047  19.745737009   6.029471246


     kinetic energy (Ekin) =     0.00858033 Ry
     temperature           =   451.57529955 K 
     Ekin + Etot (const)   =   -31.48140994 Ry
     Message from routine dynamics:
     Total linear momentum <> 0

     Linear momentum :   -0.0482643422    0.4839037204    0.0463385468

     Writing output data file pwscf.save

     first order wave-functions extrapolation
     Check: negative starting charge=   -0.353445
     first order charge density extrapolation
     Check: negative starting charge=   -0.353490

     negative rho (up, down):  1.136E-01 0.000E+00

     total cpu time spent up to now is        4.6 secs

     per-process dynamical memory:    20.4 Mb

     Self-consistent Calculation

     iteration #  1     ecut=    30.00 Ry     beta=0.70
     Davidson diagonalization with overlap
     c_bands:  1 eigenvalues not converged
     ethr =  1.00E-06,  avg # of iterations = 20.0

     negative rho (up, down):  2.687E-02 0.000E+00

     total cpu time spent up to now is        4.7 secs

     total energy              =     -31.39551126 Ry
     Harris-Foulkes estimate   =     -31.41394872 Ry
     estimated scf accuracy    <       0.08721119 Ry

     iteration #  2     ecut=    30.00 Ry     beta=0.70
     Davidson diagonalization with overlap
     ethr =  1.09E-03,  avg # of iterations =  2.0

     negative rho (up, down):  2.407E-02 0.000E+00

     total cpu time spent up to now is        4.7 secs

     total energy              =     -31.49038852 Ry
     Harris-Foulkes estimate   =     -32.14728686 Ry
     estimated scf accuracy    <       4.78154032 Ry

     iteration #  3     ecut=    30.00 Ry     beta=0.70
     Davidson diagonalization with overlap
     ethr =  1.09E-03,  avg # of iterations =  2.0

     negative rho (up, down):  2.287E-02 0.000E+00

     total cpu time spent up to now is        4.8 secs

     total energy              =     -31.47673068 Ry
     Harris-Foulkes estimate   =     -31.53428929 Ry
     estimated scf accuracy    <       0.95803447 Ry

     iteration #  4     ecut=    30.00 Ry     beta=0.70
     Davidson diagonalization with overlap
     ethr =  1.09E-03,  avg # of iterations =  1.0

     negative rho (up, down):  2.209E-02 0.000E+00

     total cpu time spent up to now is        4.8 secs

     total energy              =     -31.41373865 Ry
     Harris-Foulkes estimate   =     -31.49565010 Ry
     estimated scf accuracy    <       2.75544040 Ry

     iteration #  5     ecut=    30.00 Ry     beta=0.70
     Davidson diagonalization with overlap
     ethr =  1.09E-03,  avg # of iterations =  1.0

     negative rho (up, down):  8.205E-03 0.000E+00

     total cpu time spent up to now is        4.8 secs

     total energy              =     -31.48482918 Ry
     Harris-Foulkes estimate   =     -31.47732030 Ry
     estimated scf accuracy    <       0.78027200 Ry

     iteration #  6     ecut=    30.00 Ry     beta=0.70
     Davidson diagonalization with overlap
     ethr =  1.09E-03,  avg # of iterations =  1.0

     negative rho (up, down):  2.207E-03 0.000E+00

     total cpu time spent up to now is        4.9 secs

     total energy              =     -31.48343970 Ry
     Harris-Foulkes estimate   =     -31.48604687 Ry
     estimated scf accuracy    <       0.35935419 Ry

     iteration #  7     ecut=    30.00 Ry     beta=0.70
     Davidson diagonalization with overlap
     ethr =  1.09E-03,  avg # of iterations =  1.0

     negative rho (up, down):  1.446E-04 0.000E+00

     total cpu time spent up to now is        4.9 secs

     total energy              =     -31.48927232 Ry
     Harris-Foulkes estimate   =     -31.48880878 Ry
     estimated scf accuracy    <       0.02411685 Ry

     iteration #  8     ecut=    30.00 Ry     beta=0.70
     Davidson diagonalization with overlap
     ethr =  3.01E-04,  avg # of iterations =  5.0

     negative rho (up, down):  1.213E-06 0.000E+00

     total cpu time spent up to now is        4.9 secs

     total energy              =     -31.49037152 Ry
     Harris-Foulkes estimate   =     -31.49025470 Ry
     estimated scf accuracy    <       0.02729475 Ry

     iteration #  9     ecut=    30.00 Ry     beta=0.70
     Davidson diagonalization with overlap
     ethr =  3.01E-04,  avg # of iterations =  1.0

     negative rho (up, down):  9.745E-08 0.000E+00

     total cpu time spent up to now is        5.0 secs

     total energy              =     -31.48980389 Ry
     Harris-Foulkes estimate   =     -31.49042632 Ry
     estimated scf accuracy    <       0.04527462 Ry

     iteration # 10     ecut=    30.00 Ry     beta=0.70
     Davidson diagonalization with overlap
     ethr =  3.01E-04,  avg # of iterations =  1.0

     total cpu time spent up to now is        5.0 secs

     total energy              =     -31.48991629 Ry
     Harris-Foulkes estimate   =     -31.49003578 Ry
     estimated scf accuracy    <       0.00281483 Ry

     iteration # 11     ecut=    30.00 Ry     beta=0.70
     Davidson diagonalization with overlap
     ethr =  3.52E-05,  avg # of iterations =  7.0

     total cpu time spent up to now is        5.0 secs

     total energy              =     -31.48996721 Ry
     Harris-Foulkes estimate   =     -31.49006136 Ry
     estimated scf accuracy    <       0.00557434 Ry

     iteration # 12     ecut=    30.00 Ry     beta=0.70
     Davidson diagonalization with overlap
     ethr =  3.52E-05,  avg # of iterations =  1.0

     total cpu time spent up to now is        5.1 secs

     total energy              =     -31.49001006 Ry
     Harris-Foulkes estimate   =     -31.49001152 Ry
     estimated scf accuracy    <       0.00003209 Ry

     iteration # 13     ecut=    30.00 Ry     beta=0.70
     Davidson diagonalization with overlap
     ethr =  4.01E-07,  avg # of iterations = 14.0

     total cpu time spent up to now is        5.1 secs

     total energy              =     -31.49001034 Ry
     Harris-Foulkes estimate   =     -31.49001084 Ry
     estimated scf accuracy    <       0.00000396 Ry

     iteration # 14     ecut=    30.00 Ry     beta=0.70
     Davidson diagonalization with overlap
     ethr =  4.95E-08,  avg # of iterations =  1.0

     total cpu time spent up to now is        5.2 secs

     total energy              =     -31.49001035 Ry
     Harris-Foulkes estimate   =     -31.49001040 Ry
     estimated scf accuracy    <       0.00000006 Ry

     iteration # 15     ecut=    30.00 Ry     beta=0.70
     Davidson diagonalization with overlap
     ethr =  7.03E-10,  avg # of iterations =  1.0

     total cpu time spent up to now is        5.2 secs

     End of self-consistent calculation

          k = 0.0000 0.0000 0.0000 ( 22119 PWs)   bands (ev):

   -23.6523  -7.0571  -7.0565  -7.0560  -6.9884  -6.9161  -0.2417   0.5973

     the Fermi energy is    -6.9225 ev

!    total energy              =     -31.49001031 Ry
     Harris-Foulkes estimate   =     -31.49001035 Ry
     estimated scf accuracy    <          6.9E-10 Ry

     convergence has been achieved in  15 iterations

     Forces acting on atoms (Ry/au):

     atom    1 type  1   force =     0.00009912   -0.00032722    0.00082395
     atom    2 type  1   force =    -0.00052012   -0.00012841    0.00059012
     atom    3 type  2   force =     0.00042100    0.00045563   -0.00141407

     Total force =     0.001953     Total SCF correction =     0.000224
     SCF correction compared to forces is large: reduce conv_thr to get better values

     Entering Dynamics:    iteration =     3
                           time      =   0.0145 pico-seconds


     Andersen thermostat:    3 collisions

ATOMIC_POSITIONS (bohr)
H       16.823247316  11.635379997  16.708191713
H        4.319352044   9.224653586  20.025691354
O        7.774105027  19.759315930   6.001522095


     kinetic energy (Ekin) =     0.01684476 Ry
     temperature           =   886.52456387 K 
     Ekin + Etot (const)   =   -31.47316555 Ry
     Message from routine dynamics:
     Total linear momentum <> 0

     Linear momentum :    0.3047675616   -0.3500624036   -0.1369358232

     Writing output data file pwscf.save

     second order wave-functions extrapolation
     Check: negative starting charge=   -0.353490
     second order charge density extrapolation
     Check: negative starting charge=   -0.353469

     negative rho (up, down):  7.564E-02 0.000E+00

     total cpu time spent up to now is        5.5 secs

     per-process dynamical memory:    20.4 Mb

     Self-consistent Calculation

     iteration #  1     ecut=    30.00 Ry     beta=0.70
     Davidson diagonalization with overlap
     ethr =  1.00E-06,  avg # of iterations = 18.0

     negative rho (up, down):  1.728E-02 0.000E+00

     total cpu time spent up to now is        5.6 secs

     total energy              =     -31.43881829 Ry
     Harris-Foulkes estimate   =     -31.43031338 Ry
     estimated scf accuracy    <       0.04386404 Ry

     iteration #  2     ecut=    30.00 Ry     beta=0.70
     Davidson diagonalization with overlap
     ethr =  5.48E-04,  avg # of iterations =  2.0

     negative rho (up, down):  1.592E-02 0.000E+00

     total cpu time spent up to now is        5.6 secs

     total energy              =     -31.47875696 Ry
     Harris-Foulkes estimate   =     -31.95555715 Ry
     estimated scf accuracy    <       4.43868005 Ry

     iteration #  3     ecut=    30.00 Ry     beta=0.70
     Davidson diagonalization with overlap
     ethr =  5.48E-04,  avg # of iterations =  2.0

     negative rho (up, down):  1.561E-02 0.000E+00

     total cpu time spent up to now is        5.6 secs

     total energy              =     -31.47474905 Ry
     Harris-Foulkes estimate   =     -31.49326509 Ry
     estimated scf accuracy    <       1.23042159 Ry

     iteration #  4     ecut=    30.00 Ry     beta=0.70
     Davidson diagonalization with overlap
     ethr =  5.48E-04,  avg # of iterations =  1.0

     negative rho (up, down):  8.438E-03 0.000E+00

     total cpu time spent up to now is        5.7 secs

     total energy              =     -31.41081321 Ry
     Harris-Foulkes estimate   =     -31.48181627 Ry
     estimated scf accuracy    <       0.76703691 Ry

     iteration #  5     ecut=    30.00 Ry     beta=0.70
     Davidson diagonalization with overlap
     ethr =  5.48E-04,  avg # of iterations =  1.0

     negative rho (up, down):  3.015E-03 0.000E+00

     total cpu time spent up to now is        5.7 secs

     total energy              =     -31.46118763 Ry
     Harris-Foulkes estimate   =     -31.57901554 Ry
     estimated scf accuracy    <       2.93952901 Ry

     iteration #  6     ecut=    30.00 Ry     beta=0.70
     Davidson diagonalization with overlap
     ethr =  5.48E-04,  avg # of iterations =  1.0

     negative rho (up, down):  7.540E-04 0.000E+00

     total cpu time spent up to now is        5.7 secs

     total energy              =     -31.49051755 Ry
     Harris-Foulkes estimate   =     -31.48831011 Ry
     estimated scf accuracy    <       0.04648194 Ry

     iteration #  7     ecut=    30.00 Ry     beta=0.70
     Davidson diagonalization with overlap
     ethr =  5.48E-04,  avg # of iterations =  3.0

     negative rho (up, down):  3.492E-04 0.000E+00

     total cpu time spent up to now is        5.8 secs

     total energy              =     -31.49018759 Ry
     Harris-Foulkes estimate   =     -31.49057975 Ry
     estimated scf accuracy    <       0.06187325 Ry

     iteration #  8     ecut=    30.00 Ry     beta=0.70
     Davidson diagonalization with overlap
     ethr =  5.48E-04,  avg # of iterations =  1.0

     negative rho (up, down):  1.752E-06 0.000E+00

     total cpu time spent up to now is        5.8 secs

     total energy              =     -31.48979136 Ry
     Harris-Foulkes estimate   =     -31.49028780 Ry
     estimated scf accuracy    <       0.02180852 Ry

     iteration #  9     ecut=    30.00 Ry     beta=0.70
     Davidson diagonalization with overlap
     ethr =  2.73E-04,  avg # of iterations =  1.0

     total cpu time spent up to now is        5.8 secs

     total energy              =     -31.49019821 Ry
     Harris-Foulkes estimate   =     -31.49013545 Ry
     estimated scf accuracy    <       0.00217754 Ry

     iteration # 10     ecut=    30.00 Ry     beta=0.70
     Davidson diagonalization with overlap
     ethr =  2.72E-05,  avg # of iterations =  6.0

     total cpu time spent up to now is        5.9 secs

     total energy              =     -31.48963432 Ry
     Harris-Foulkes estimate   =     -31.49024435 Ry
     estimated scf accuracy    <       0.01393381 Ry

     iteration # 11     ecut=    30.00 Ry     beta=0.70
     Davidson diagonalization with overlap
     ethr =  2.72E-05,  avg # of iterations =  1.0

     total cpu time spent up to now is        5.9 secs

     total energy              =     -31.48987080 Ry
     Harris-Foulkes estimate   =     -31.49038336 Ry
     estimated scf accuracy    <       0.02842013 Ry

     iteration # 12     ecut=    30.00 Ry     beta=0.70
     Davidson diagonalization with overlap
     ethr =  2.72E-05,  avg # of iterations =  1.0

     total cpu time spent up to now is        5.9 secs

     total energy              =     -31.49011958 Ry
     Harris-Foulkes estimate   =     -31.49011930 Ry
     estimated scf accuracy    <       0.00001170 Ry

     iteration # 13     ecut=    30.00 Ry     beta=0.70
     Davidson diagonalization with overlap
     ethr =  1.46E-07,  avg # of iterations = 11.0

     total cpu time spent up to now is        6.0 secs

     total energy              =     -31.49011953 Ry
     Harris-Foulkes estimate   =     -31.49011966 Ry
     estimated scf accuracy    <       0.00000218 Ry

     iteration # 14     ecut=    30.00 Ry     beta=0.70
     Davidson diagonalization with overlap
     ethr =  2.72E-08,  avg # of iterations =  1.0

     total cpu time spent up to now is        6.0 secs

     total energy              =     -31.49011956 Ry
     Harris-Foulkes estimate   =     -31.49011961 Ry
     estimated scf accuracy    <       0.00000200 Ry

     iteration # 15     ecut=    30.00 Ry     beta=0.70
     Davidson diagonalization with overlap
     ethr =  2.50E-08,  avg # of iterations =  1.0

     total cpu time spent up to now is        6.1 secs

     total energy              =     -31.49011969 Ry
     Harris-Foulkes estimate   =     -31.49011957 Ry
     estimated scf accuracy    <       0.00000023 Ry

     iteration # 16     ecut=    30.00 Ry     beta=0.70
     Davidson diagonalization with overlap
     ethr =  2.90E-09,  avg # of iterations =  1.0

     total cpu time spent up to now is        6.1 secs

     total energy              =     -31.49011973 Ry
     Harris-Foulkes estimate   =     -31.49011970 Ry
     estimated scf accuracy    <       0.00000019 Ry

     iteration # 17     ecut=    30.00 Ry     beta=0.70
     Davidson diagonalization with overlap
     ethr =  2.37E-09,  avg # of iterations =  1.0

     total cpu time spent up to now is        6.1 secs

     total energy              =     -31.49011972 Ry
     Harris-Foulkes estimate   =     -31.49011973 Ry
     estimated scf accuracy    <       0.00000002 Ry

     iteration # 18     ecut=    30.00 Ry     beta=0.70
     Davidson diagonalization with overlap
     ethr =  2.34E-10,  avg # of iterations =  1.0

     total cpu time spent up to now is        6.1 secs

     End of self-consistent calculation

          k = 0.0000 0.0000 0.0000 ( 22119 PWs)   bands (ev):

   -23.6528  -7.0582  -7.0576  -7.0569  -6.9916  -6.9147  -0.2406   0.6043

     the Fermi energy is    -6.9236 ev

!    total energy              =     -31.49011973 Ry
     Harris-Foulkes estimate   =     -31.49011972 Ry
     estimated scf accuracy    <          8.2E-10 Ry

     convergence has been achieved in  18 iterations

     Forces acting on atoms (Ry/au):

     atom    1 type  1   force =     0.00040928   -0.00040518    0.00058312
     atom    2 type  1   force =    -0.00031487   -0.00020259    0.00032868
     atom    3 type  2   force =    -0.00009441    0.00060777   -0.00091180

     Total force =     0.001459     Total SCF correction =     0.000024

     Entering Dynamics:    iteration =     4
                           time      =   0.0194 pico-seconds


     Andersen thermostat:    3 collisions

ATOMIC_POSITIONS (bohr)
H       16.816110623  11.494842669  16.623581349
H        4.119094450   8.887633324  19.833761185
O        7.787196791  19.789461753   6.018978716


     kinetic energy (Ekin) =     0.01984546 Ry
     temperature           =  1044.44860616 K 
     Ekin + Etot (const)   =   -31.47027427 Ry
     Message from routine dynamics:
     Total linear momentum <> 0

     Linear momentum :    0.6585480540    0.4524520681   -0.2987964083

     Writing output data file pwscf.save

     second order wave-functions extrapolation
     Check: negative starting charge=   -0.353469
     second order charge density extrapolation
     Check: negative starting charge=   -0.353738

     negative rho (up, down):  6.212E-02 0.000E+00

     total cpu time spent up to now is        6.5 secs

     per-process dynamical memory:    20.4 Mb

     Self-consistent Calculation

     iteration #  1     ecut=    30.00 Ry     beta=0.70
     Davidson diagonalization with overlap
     c_bands:  1 eigenvalues not converged
     ethr =  1.00E-06,  avg # of iterations = 20.0

     negative rho (up, down):  1.387E-02 0.000E+00

     total cpu time spent up to now is        6.6 secs

     total energy              =     -31.46001129 Ry
     Harris-Foulkes estimate   =     -31.43922473 Ry
     estimated scf accuracy    <       0.02210464 Ry

     iteration #  2     ecut=    30.00 Ry     beta=0.70
     Davidson diagonalization with overlap
     ethr =  2.76E-04,  avg # of iterations =  2.0

     negative rho (up, down):  1.310E-02 0.000E+00

     total cpu time spent up to now is        6.6 secs

     total energy              =     -31.45803264 Ry
     Harris-Foulkes estimate   =     -31.77360647 Ry
     estimated scf accuracy    <       4.14431581 Ry

     iteration #  3     ecut=    30.00 Ry     beta=0.70
     Davidson diagonalization with overlap
     ethr =  2.76E-04,  avg # of iterations =  2.0

     negative rho (up, down):  1.263E-02 0.000E+00

     total cpu time spent up to now is        6.6 secs

     total energy              =     -31.46081736 Ry
     Harris-Foulkes estimate   =     -31.51648162 Ry
     estimated scf accuracy    <       1.17114801 Ry

     iteration #  4     ecut=    30.00 Ry     beta=0.70
     Davidson diagonalization with overlap
     ethr =  2.76E-04,  avg # of iterations =  1.0

     negative rho (up, down):  3.236E-03 0.000E+00

     total cpu time spent up to now is        6.6 secs

     total energy              =     -31.47671056 Ry
     Harris-Foulkes estimate   =     -31.47935961 Ry
     estimated scf accuracy    <       0.13593693 Ry

     iteration #  5     ecut=    30.00 Ry     beta=0.70
     Davidson diagonalization with overlap
     ethr =  2.76E-04,  avg # of iterations =  3.0

     negative rho (up, down):  1.623E-03 0.000E+00

     total cpu time spent up to now is        6.7 secs

     total energy              =     -31.47156402 Ry
     Harris-Foulkes estimate   =     -31.50337722 Ry
     estimated scf accuracy    <       1.15142596 Ry

     iteration #  6     ecut=    30.00 Ry     beta=0.70
     Davidson diagonalization with overlap
     ethr =  2.76E-04,  avg # of iterations =  1.0

     negative rho (up, down):  6.106E-04 0.000E+00

     total cpu time spent up to now is        6.7 secs

     total energy              =     -31.48834472 Ry
     Harris-Foulkes estimate   =     -31.49014906 Ry
     estimated scf accuracy    <       0.08944825 Ry

     iteration #  7     ecut=    30.00 Ry     beta=0.70
     Davidson diagonalization with overlap
     ethr =  2.76E-04,  avg # of iterations =  3.0

     negative rho (up, down):  2.322E-05 0.000E+00

     total cpu time spent up to now is        6.7 secs

     total energy              =     -31.49010252 Ry
     Harris-Foulkes estimate   =     -31.49043813 Ry
     estimated scf accuracy    <       0.03097860 Ry

     iteration #  8     ecut=    30.00 Ry     beta=0.70
     Davidson diagonalization with overlap
     ethr =  2.76E-04,  avg # of iterations =  1.0

     negative rho (up, down):  4.486E-07 0.000E+00

     total cpu time spent up to now is        6.8 secs

     total energy              =     -31.48982984 Ry
     Harris-Foulkes estimate   =     -31.49023401 Ry
     estimated scf accuracy    <       0.00740633 Ry

     iteration #  9     ecut=    30.00 Ry     beta=0.70
     Davidson diagonalization with overlap
     ethr =  9.26E-05,  avg # of iterations =  1.0

     total cpu time spent up to now is        6.8 secs

     total energy              =     -31.49002248 Ry
     Harris-Foulkes estimate   =     -31.49050209 Ry
     estimated scf accuracy    <       0.03551287 Ry

     iteration # 10     ecut=    30.00 Ry     beta=0.70
     Davidson diagonalization with overlap
     ethr =  9.26E-05,  avg # of iterations =  1.0

     total cpu time spent up to now is        6.8 secs

     total energy              =     -31.49015196 Ry
     Harris-Foulkes estimate   =     -31.49020437 Ry
     estimated scf accuracy    <       0.00221627 Ry

     iteration # 11     ecut=    30.00 Ry     beta=0.70
     Davidson diagonalization with overlap
     ethr =  2.77E-05,  avg # of iterations =  4.0

     total cpu time spent up to now is        6.9 secs

     total energy              =     -31.49018018 Ry
     Harris-Foulkes estimate   =     -31.49018748 Ry
     estimated scf accuracy    <       0.00025836 Ry

     iteration # 12     ecut=    30.00 Ry     beta=0.70
     Davidson diagonalization with overlap
     ethr =  3.23E-06,  avg # of iterations = 12.0

     total cpu time spent up to now is        6.9 secs

     total energy              =     -31.49018427 Ry
     Harris-Foulkes estimate   =     -31.49018595 Ry
     estimated scf accuracy    <       0.00005587 Ry

     iteration # 13     ecut=    30.00 Ry     beta=0.70
     Davidson diagonalization with overlap
     ethr =  6.98E-07,  avg # of iterations =  1.0

     total cpu time spent up to now is        7.0 secs

     total energy              =     -31.49018501 Ry
     Harris-Foulkes estimate   =     -31.49018501 Ry
     estimated scf accuracy    <       0.00000028 Ry

     iteration # 14     ecut=    30.00 Ry     beta=0.70
     Davidson diagonalization with overlap
     ethr =  3.51E-09,  avg # of iterations =  1.0

     total cpu time spent up to now is        7.0 secs

     End of self-consistent calculation

          k = 0.0000 0.0000 0.0000 ( 22119 PWs)   bands (ev):

   -23.6560  -7.0610  -7.0606  -7.0599  -6.9985  -6.9132  -0.2405   0.6177

     the Fermi energy is    -6.9265 ev

!    total energy              =     -31.49018493 Ry
     Harris-Foulkes estimate   =     -31.49018501 Ry
     estimated scf accuracy    <          9.4E-09 Ry

     convergence has been achieved in  14 iterations

     Forces acting on atoms (Ry/au):

     atom    1 type  1   force =     0.00040724   -0.00051766    0.00069979
     atom    2 type  1   force =    -0.00048737   -0.00023958    0.00034611
     atom    3 type  2   force =     0.00008013    0.00075724   -0.00104589

     Total force =     0.001735     Total SCF correction =     0.000262
     SCF correction compared to forces is large: reduce conv_thr to get better values

     Entering Dynamics:    iteration =     5
                           time      =   0.0242 pico-seconds


     Andersen thermostat:    3 collisions

ATOMIC_POSITIONS (bohr)
H       16.637223890  11.782614664  16.936105008
H        3.579145996   9.100516150  19.558936569
O        7.832573262  19.757857917   6.016598964


     kinetic energy (Ekin) =     0.03205384 Ry
     temperature           =  1686.96502744 K 
     Ekin + Etot (const)   =   -31.45813109 Ry
     Message from routine dynamics:
     Total linear momentum <> 0

     Linear momentum :    0.2555715914    0.0401351917   -0.1541686132

     Writing output data file pwscf.save

     second order wave-functions extrapolation
     Check: negative starting charge=   -0.353738
     second order charge density extrapolation
     Check: negative starting charge=   -0.354613

     negative rho (up, down):  7.538E-02 0.000E+00

     total cpu time spent up to now is        7.3 secs

     per-process dynamical memory:    20.4 Mb

     Self-consistent Calculation

     iteration #  1     ecut=    30.00 Ry     beta=0.70
     Davidson diagonalization with overlap
     c_bands:  1 eigenvalues not converged
     ethr =  1.00E-06,  avg # of iterations = 20.0

     negative rho (up, down):  1.726E-02 0.000E+00

     total cpu time spent up to now is        7.4 secs

     total energy              =     -31.41347385 Ry
     Harris-Foulkes estimate   =     -31.43823287 Ry
     estimated scf accuracy    <       0.08153114 Ry

     iteration #  2     ecut=    30.00 Ry     beta=0.70
     Davidson diagonalization with overlap
     ethr =  1.02E-03,  avg # of iterations =  2.0

     negative rho (up, down):  1.434E-02 0.000E+00

     total cpu time spent up to now is        7.5 secs

     total energy              =     -31.50547914 Ry
     Harris-Foulkes estimate   =     -31.74101225 Ry
     estimated scf accuracy    <       1.11268991 Ry

     iteration #  3     ecut=    30.00 Ry     beta=0.70
     Davidson diagonalization with overlap
     ethr =  1.02E-03,  avg # of iterations =  2.0

     negative rho (up, down):  1.412E-02 0.000E+00

     total cpu time spent up to now is        7.6 secs

     total energy              =     -31.49101984 Ry
     Harris-Foulkes estimate   =     -31.59793455 Ry
     estimated scf accuracy    <       3.02420283 Ry

     iteration #  4     ecut=    30.00 Ry     beta=0.70
     Davidson diagonalization with overlap
     ethr =  1.02E-03,  avg # of iterations =  1.0

     negative rho (up, down):  1.330E-02 0.000E+00

     total cpu time spent up to now is        7.6 secs

     total energy              =     -31.47676989 Ry
     Harris-Foulkes estimate   =     -31.51328267 Ry
     estimated scf accuracy    <       0.69064911 Ry

     iteration #  5     ecut=    30.00 Ry     beta=0.70
     Davidson diagonalization with overlap
     ethr =  1.02E-03,  avg # of iterations =  1.0

     negative rho (up, down):  2.804E-03 0.000E+00

     total cpu time spent up to now is        7.6 secs

     total energy              =     -31.46373898 Ry
     Harris-Foulkes estimate   =     -31.48114176 Ry
     estimated scf accuracy    <       0.17526292 Ry

     iteration #  6     ecut=    30.00 Ry     beta=0.70
     Davidson diagonalization with overlap
     ethr =  1.02E-03,  avg # of iterations =  1.0

     negative rho (up, down):  1.497E-03 0.000E+00

     total cpu time spent up to now is        7.7 secs

     total energy              =     -31.49670723 Ry
     Harris-Foulkes estimate   =     -31.52843630 Ry
     estimated scf accuracy    <       1.15630228 Ry

     iteration #  7     ecut=    30.00 Ry     beta=0.70
     Davidson diagonalization with overlap
     ethr =  1.02E-03,  avg # of iterations =  1.0

     negative rho (up, down):  6.652E-04 0.000E+00

     total cpu time spent up to now is        7.7 secs

     total energy              =     -31.45440540 Ry
     Harris-Foulkes estimate   =     -31.49857906 Ry
     estimated scf accuracy    <       0.58873583 Ry

     iteration #  8     ecut=    30.00 Ry     beta=0.70
     Davidson diagonalization with overlap
     ethr =  1.02E-03,  avg # of iterations =  1.0

     negative rho (up, down):  7.280E-05 0.000E+00

     total cpu time spent up to now is        7.7 secs

     total energy              =     -31.49286000 Ry
     Harris-Foulkes estimate   =     -31.50957882 Ry
     estimated scf accuracy    <       0.64324107 Ry

     iteration #  9     ecut=    30.00 Ry     beta=0.70
     Davidson diagonalization with overlap
     ethr =  1.02E-03,  avg # of iterations =  1.0

     negative rho (up, down):  1.076E-05 0.000E+00

     total cpu time spent up to now is        7.8 secs

     total energy              =     -31.49058049 Ry
     Harris-Foulkes estimate   =     -31.49508848 Ry
     estimated scf accuracy    <       0.26367420 Ry

     iteration # 10     ecut=    30.00 Ry     beta=0.70
     Davidson diagonalization with overlap
     ethr =  1.02E-03,  avg # of iterations =  1.0

     negative rho (up, down):  6.034E-06 0.000E+00

     total cpu time spent up to now is        7.8 secs

     total energy              =     -31.49113288 Ry
     Harris-Foulkes estimate   =     -31.49161219 Ry
     estimated scf accuracy    <       0.06713522 Ry

     iteration # 11     ecut=    30.00 Ry     beta=0.70
     Davidson diagonalization with overlap
     ethr =  8.39E-04,  avg # of iterations =  1.0

     total cpu time spent up to now is        7.8 secs

     total energy              =     -31.48933956 Ry
     Harris-Foulkes estimate   =     -31.49118770 Ry
     estimated scf accuracy    <       0.03926080 Ry

     iteration # 12     ecut=    30.00 Ry     beta=0.70
     Davidson diagonalization with overlap
     ethr =  4.91E-04,  avg # of iterations =  1.0

     total cpu time spent up to now is        7.9 secs

     total energy              =     -31.49051270 Ry
     Harris-Foulkes estimate   =     -31.49085690 Ry
     estimated scf accuracy    <       0.01775291 Ry

     iteration # 13     ecut=    30.00 Ry     beta=0.70
     Davidson diagonalization with overlap
     ethr =  2.22E-04,  avg # of iterations =  1.0

     total cpu time spent up to now is        7.9 secs

     total energy              =     -31.49070149 Ry
     Harris-Foulkes estimate   =     -31.49063325 Ry
     estimated scf accuracy    <       0.00159215 Ry

     iteration # 14     ecut=    30.00 Ry     beta=0.70
     Davidson diagonalization with overlap
     ethr =  1.99E-05,  avg # of iterations =  6.0

     total cpu time spent up to now is        7.9 secs

     total energy              =     -31.49063777 Ry
     Harris-Foulkes estimate   =     -31.49075187 Ry
     estimated scf accuracy    <       0.01035507 Ry

     iteration # 15     ecut=    30.00 Ry     beta=0.70
     Davidson diagonalization with overlap
     ethr =  1.99E-05,  avg # of iterations =  1.0

     total cpu time spent up to now is        8.0 secs

     total energy              =     -31.49056146 Ry
     Harris-Foulkes estimate   =     -31.49066100 Ry
     estimated scf accuracy    <       0.00357560 Ry

     iteration # 16     ecut=    30.00 Ry     beta=0.70
     Davidson diagonalization with overlap
     ethr =  1.99E-05,  avg # of iterations =  1.0

     total cpu time spent up to now is        8.0 secs

     total energy              =     -31.49061356 Ry
     Harris-Foulkes estimate   =     -31.49061334 Ry
     estimated scf accuracy    <       0.00000598 Ry

     iteration # 17     ecut=    30.00 Ry     beta=0.70
     Davidson diagonalization with overlap
     ethr =  7.48E-08,  avg # of iterations = 20.0

     total cpu time spent up to now is        8.1 secs

     total energy              =     -31.49061250 Ry
     Harris-Foulkes estimate   =     -31.49061388 Ry
     estimated scf accuracy    <       0.00005259 Ry

     iteration # 18     ecut=    30.00 Ry     beta=0.70
     Davidson diagonalization with overlap
     ethr =  7.48E-08,  avg # of iterations =  1.0

     total cpu time spent up to now is        8.1 secs

     total energy              =     -31.49061308 Ry
     Harris-Foulkes estimate   =     -31.49061307 Ry
     estimated scf accuracy    <       0.00000059 Ry

     iteration # 19     ecut=    30.00 Ry     beta=0.70
     Davidson diagonalization with overlap
     ethr =  7.41E-09,  avg # of iterations =  1.0

     total cpu time spent up to now is        8.1 secs

     End of self-consistent calculation

          k = 0.0000 0.0000 0.0000 ( 22119 PWs)   bands (ev):

   -23.6696  -7.0733  -7.0728  -7.0726  -7.0292  -6.9052  -0.2420   0.6269

     the Fermi energy is    -6.9390 ev

!    total energy              =     -31.49061325 Ry
     Harris-Foulkes estimate   =     -31.49061309 Ry
     estimated scf accuracy    <          6.1E-09 Ry

     convergence has been achieved in  19 iterations

     Forces acting on atoms (Ry/au):

     atom    1 type  1   force =     0.00089251   -0.00083082    0.00092993
     atom    2 type  1   force =    -0.00157950    0.00020133   -0.00005439
     atom    3 type  2   force =     0.00068699    0.00062949   -0.00087555

     Total force =     0.002554     Total SCF correction =     0.000259
     SCF correction compared to forces is large: reduce conv_thr to get better values

     Entering Dynamics:    iteration =     6
                           time      =   0.0290 pico-seconds


     Andersen thermostat:    3 collisions

ATOMIC_POSITIONS (bohr)
H       16.621473983  11.186270850  16.827823319
H        3.195208217   8.885597531  19.908746035
O        7.857803547  19.809068858   6.001352523


     kinetic energy (Ekin) =     0.03414879 Ry
     temperature           =  1797.22040789 K 
     Ekin + Etot (const)   =   -31.45646446 Ry
     Message from routine dynamics:
     Total linear momentum <> 0

     Linear momentum :    0.0271839412   -0.0722010692   -0.2133873842

     Writing output data file pwscf.save

     second order wave-functions extrapolation
     Check: negative starting charge=   -0.354613
     second order charge density extrapolation
     Check: negative starting charge=   -0.356166

     negative rho (up, down):  9.112E-02 0.000E+00

     total cpu time spent up to now is        8.4 secs

     per-process dynamical memory:    20.4 Mb

     Self-consistent Calculation

     iteration #  1     ecut=    30.00 Ry     beta=0.70
     Davidson diagonalization with overlap
     ethr =  1.00E-06,  avg # of iterations = 10.0

     negative rho (up, down):  1.846E-02 0.000E+00

     total cpu time spent up to now is        8.5 secs

     total energy              =      -4.23682851 Ry
[...]

     total energy              =     -10.74422990 Ry
     Harris-Foulkes estimate   =    -780.38748946 Ry
     estimated scf accuracy    <      37.21772436 Ry

     iteration # 59     ecut=    30.00 Ry     beta=0.70
     Davidson diagonalization with overlap
     ethr =  1.00E-02,  avg # of iterations =  5.0

     negative rho (up, down):  1.376E-01 0.000E+00

     total cpu time spent up to now is       11.0 secs

     total energy              =     -65.63570400 Ry
     Harris-Foulkes estimate   =     -70.32545324 Ry
     estimated scf accuracy    <      51.84057623 Ry

     iteration # 60     ecut=    30.00 Ry     beta=0.70
     Davidson diagonalization with overlap
     ethr =  1.00E-02,  avg # of iterations =  6.0

     negative rho (up, down):  2.024E-01 0.000E+00

     total cpu time spent up to now is       11.1 secs

     total energy              =      26.80991262 Ry
     Harris-Foulkes estimate   =    -371.34652218 Ry
     estimated scf accuracy    <      22.48691476 Ry

     iteration # 61     ecut=    30.00 Ry     beta=0.70
     Davidson diagonalization with overlap
     ethr =  1.00E-02,  avg # of iterations =  4.0

     negative rho (up, down):  4.425E-01 0.000E+00

     total cpu time spent up to now is       11.1 secs

     total energy              =     -14.92203337 Ry
     Harris-Foulkes estimate   =    -102.04909767 Ry
     estimated scf accuracy    <      23.29877801 Ry

     iteration # 62     ecut=    30.00 Ry     beta=0.70
     Davidson diagonalization with overlap
     ethr =  1.00E-02,  avg # of iterations =  4.0

     negative rho (up, down):  4.231E-01 0.000E+00

     total cpu time spent up to now is       11.1 secs

     total energy              =     -38.49720378 Ry
     Harris-Foulkes estimate   =    -427.84835957 Ry
     estimated scf accuracy    <      22.00801694 Ry

     iteration # 63     ecut=    30.00 Ry     beta=0.70
     Davidson diagonalization with overlap
     ethr =  1.00E-02,  avg # of iterations =  8.0

     negative rho (up, down):  3.793E-01 0.000E+00

     total cpu time spent up to now is       11.2 secs

     total energy              =   -1194.47487407 Ry
     Harris-Foulkes estimate   =   -3569.54892198 Ry
     estimated scf accuracy    <      40.53110104 Ry

     iteration # 64     ecut=    30.00 Ry     beta=0.70
     Davidson diagonalization with overlap
     ethr =  1.00E-02,  avg # of iterations =  7.0

     negative rho (up, down):  4.408E-01 0.000E+00

     total cpu time spent up to now is       11.2 secs

     total energy              =    -294.67063312 Ry
     Harris-Foulkes estimate   =   -3688.50050251 Ry
     estimated scf accuracy    <      45.31776923 Ry

     iteration # 65     ecut=    30.00 Ry     beta=0.70
     Davidson diagonalization with overlap
     ethr =  1.00E-02,  avg # of iterations =  7.0

     negative rho (up, down):  2.093E-01 0.000E+00

     total cpu time spent up to now is       11.3 secs

     total energy              =      87.79449878 Ry
     Harris-Foulkes estimate   =   -8432.14470675 Ry
     estimated scf accuracy    <      20.11945158 Ry

     iteration # 66     ecut=    30.00 Ry     beta=0.70
     Davidson diagonalization with overlap
     ethr =  1.00E-02,  avg # of iterations = 10.0

     total cpu time spent up to now is       11.3 secs

     total energy              =      61.22025614 Ry
     Harris-Foulkes estimate   =    -170.49527848 Ry
     estimated scf accuracy    <      16.95210131 Ry

     iteration # 67     ecut=    30.00 Ry     beta=0.70
     Davidson diagonalization with overlap
     ethr =  1.00E-02,  avg # of iterations =  4.0

     negative rho (up, down):  5.425E-02 0.000E+00

     total cpu time spent up to now is       11.4 secs

     total energy              =      -3.04270035 Ry
     Harris-Foulkes estimate   =    -662.20153492 Ry
     estimated scf accuracy    <      15.80481349 Ry

     iteration # 68     ecut=    30.00 Ry     beta=0.70
     Davidson diagonalization with overlap
     ethr =  1.00E-02,  avg # of iterations = 11.0

     negative rho (up, down):  4.762E-02 0.000E+00

     total cpu time spent up to now is       11.4 secs

     total energy              =      61.24718518 Ry
     Harris-Foulkes estimate   =    -174.97422095 Ry
     estimated scf accuracy    <      22.56074876 Ry

     iteration # 69     ecut=    30.00 Ry     beta=0.70
     Davidson diagonalization with overlap
     ethr =  1.00E-02,  avg # of iterations =  6.0

     negative rho (up, down):  8.751E-02 0.000E+00

     total cpu time spent up to now is       11.5 secs

     total energy              =     -49.95268416 Ry
     Harris-Foulkes estimate   =     -52.20947327 Ry
     estimated scf accuracy    <      29.58693285 Ry

     iteration # 70     ecut=    30.00 Ry     beta=0.70
     Davidson diagonalization with overlap
     ethr =  1.00E-02,  avg # of iterations =  2.0

     negative rho (up, down):  1.834E-01 0.000E+00

     total cpu time spent up to now is       11.5 secs

     total energy              =     -45.87774740 Ry
     Harris-Foulkes estimate   =     -49.96112965 Ry
     estimated scf accuracy    <      26.42002954 Ry

     iteration # 71     ecut=    30.00 Ry     beta=0.70
     Davidson diagonalization with overlap
     ethr =  1.00E-02,  avg # of iterations =  9.0

     negative rho (up, down):  1.737E-03 0.000E+00

     total cpu time spent up to now is       11.6 secs

     total energy              =     118.13389175 Ry
     Harris-Foulkes estimate   =    -957.75448333 Ry
     estimated scf accuracy    <      44.60916261 Ry

     iteration # 72     ecut=    30.00 Ry     beta=0.70
     Davidson diagonalization with overlap
     ethr =  1.00E-02,  avg # of iterations =  9.0

     negative rho (up, down):  1.444E-02 0.000E+00

     total cpu time spent up to now is       11.6 secs

     total energy              =     -44.63025489 Ry
     Harris-Foulkes estimate   =     -46.23523511 Ry
     estimated scf accuracy    <      22.17979366 Ry

     iteration # 73     ecut=    30.00 Ry     beta=0.70
     Davidson diagonalization with overlap
     ethr =  1.00E-02,  avg # of iterations =  1.0

     negative rho (up, down):  2.770E-02 0.000E+00

     total cpu time spent up to now is       11.7 secs

     total energy              =     -44.69485798 Ry
     Harris-Foulkes estimate   =     -44.63368870 Ry
     estimated scf accuracy    <      20.17680667 Ry

     iteration # 74     ecut=    30.00 Ry     beta=0.70
     Davidson diagonalization with overlap
     ethr =  1.00E-02,  avg # of iterations =  4.0

     negative rho (up, down):  1.196E-02 0.000E+00

     total cpu time spent up to now is       11.7 secs

     total energy              =      -1.23883295 Ry
     Harris-Foulkes estimate   =    -220.05485309 Ry
     estimated scf accuracy    <       9.05027778 Ry

     iteration # 75     ecut=    30.00 Ry     beta=0.70
     Davidson diagonalization with overlap
     ethr =  1.00E-02,  avg # of iterations =  4.0

     negative rho (up, down):  1.126E-02 0.000E+00

     total cpu time spent up to now is       11.8 secs

     total energy              =      -0.42170436 Ry
     Harris-Foulkes estimate   =    -363.90715383 Ry
     estimated scf accuracy    <      11.09453203 Ry

     iteration # 76     ecut=    30.00 Ry     beta=0.70
     Davidson diagonalization with overlap
     ethr =  1.00E-02,  avg # of iterations = 11.0

     negative rho (up, down):  2.928E-04 0.000E+00

     total cpu time spent up to now is       11.9 secs

     total energy              =      64.90863426 Ry
     Harris-Foulkes estimate   =    -306.52560355 Ry
     estimated scf accuracy    <      29.83748993 Ry

     iteration # 77     ecut=    30.00 Ry     beta=0.70
     Davidson diagonalization with overlap
     ethr =  1.00E-02,  avg # of iterations =  4.0

     negative rho (up, down):  6.713E-02 0.000E+00

     total cpu time spent up to now is       11.9 secs

     total energy              =     -42.06650384 Ry
     Harris-Foulkes estimate   =     -43.60400919 Ry
     estimated scf accuracy    <      18.91150385 Ry

     iteration # 78     ecut=    30.00 Ry     beta=0.70
     Davidson diagonalization with overlap
     ethr =  1.00E-02,  avg # of iterations =  1.0

     negative rho (up, down):  2.171E-02 0.000E+00

     total cpu time spent up to now is       11.9 secs

     total energy              =     -40.98847470 Ry
     Harris-Foulkes estimate   =     -42.08612397 Ry
     estimated scf accuracy    <      16.32434142 Ry

     iteration # 79     ecut=    30.00 Ry     beta=0.70
     Davidson diagonalization with overlap
     ethr =  1.00E-02,  avg # of iterations =  1.0

     negative rho (up, down):  2.179E-02 0.000E+00

     total cpu time spent up to now is       12.0 secs

     total energy              =     -40.99610878 Ry
     Harris-Foulkes estimate   =     -40.98967969 Ry
     estimated scf accuracy    <      15.35763065 Ry

     iteration # 80     ecut=    30.00 Ry     beta=0.70
     Davidson diagonalization with overlap
     ethr =  1.00E-02,  avg # of iterations = 10.0

     negative rho (up, down):  1.350E-02 0.000E+00

     total cpu time spent up to now is       12.0 secs

     total energy              =      22.69404373 Ry
     Harris-Foulkes estimate   =     -50.82427065 Ry
     estimated scf accuracy    <      14.66652662 Ry

     iteration # 81     ecut=    30.00 Ry     beta=0.70
     Davidson diagonalization with overlap
     ethr =  1.00E-02,  avg # of iterations =  5.0

     negative rho (up, down):  1.278E-02 0.000E+00

     total cpu time spent up to now is       12.1 secs

     total energy              =     -43.52434846 Ry
     Harris-Foulkes estimate   =     -43.47875505 Ry
     estimated scf accuracy    <      17.98045820 Ry

     iteration # 82     ecut=    30.00 Ry     beta=0.70
     Davidson diagonalization with overlap
     ethr =  1.00E-02,  avg # of iterations =  1.0

     negative rho (up, down):  1.111E-02 0.000E+00

     total cpu time spent up to now is       12.1 secs

     total energy              =     -44.71059137 Ry
     Harris-Foulkes estimate   =     -43.52672287 Ry
     estimated scf accuracy    <      18.22147005 Ry

     iteration # 83     ecut=    30.00 Ry     beta=0.70
     Davidson diagonalization with overlap
     ethr =  1.00E-02,  avg # of iterations =  1.0

     negative rho (up, down):  2.311E-02 0.000E+00

     total cpu time spent up to now is       12.1 secs

     total energy              =     -43.81889143 Ry
     Harris-Foulkes estimate   =     -44.71150405 Ry
     estimated scf accuracy    <      19.42401856 Ry

     iteration # 84     ecut=    30.00 Ry     beta=0.70
     Davidson diagonalization with overlap
     ethr =  1.00E-02,  avg # of iterations =  9.0

     negative rho (up, down):  3.283E-03 0.000E+00

     total cpu time spent up to now is       12.2 secs

     total energy              =      70.57992167 Ry
     Harris-Foulkes estimate   =    -333.59605288 Ry
     estimated scf accuracy    <      22.17780267 Ry

     iteration # 85     ecut=    30.00 Ry     beta=0.70
     Davidson diagonalization with overlap
     ethr =  1.00E-02,  avg # of iterations =  4.0

     negative rho (up, down):  1.255E-02 0.000E+00

     total cpu time spent up to now is       12.2 secs

     total energy              =     -51.93666463 Ry
     Harris-Foulkes estimate   =     -49.26962642 Ry
     estimated scf accuracy    <      24.89809121 Ry

     iteration # 86     ecut=    30.00 Ry     beta=0.70
     Davidson diagonalization with overlap
     ethr =  1.00E-02,  avg # of iterations =  1.0

     negative rho (up, down):  5.612E-03 0.000E+00

     total cpu time spent up to now is       12.3 secs

     total energy              =     -52.11480804 Ry
     Harris-Foulkes estimate   =     -51.93782932 Ry
     estimated scf accuracy    <      27.87337082 Ry

     iteration # 87     ecut=    30.00 Ry     beta=0.70
     Davidson diagonalization with overlap
     ethr =  1.00E-02,  avg # of iterations =  1.0

     negative rho (up, down):  2.247E-03 0.000E+00

     total cpu time spent up to now is       12.3 secs

     total energy              =     -52.58006205 Ry
     Harris-Foulkes estimate   =     -52.11484323 Ry
     estimated scf accuracy    <      28.14796782 Ry

     iteration # 88     ecut=    30.00 Ry     beta=0.70
     Davidson diagonalization with overlap
     ethr =  1.00E-02,  avg # of iterations =  1.0

     negative rho (up, down):  7.886E-02 0.000E+00

     total cpu time spent up to now is       12.3 secs

     total energy              =     -41.65797992 Ry
     Harris-Foulkes estimate   =     -52.58011567 Ry
     estimated scf accuracy    <      28.67851268 Ry

     iteration # 89     ecut=    30.00 Ry     beta=0.70
     Davidson diagonalization with overlap
     ethr =  1.00E-02,  avg # of iterations =  9.0

     negative rho (up, down):  1.298E-01 0.000E+00

     total cpu time spent up to now is       12.4 secs

     total energy              =     -14.36868503 Ry
     Harris-Foulkes estimate   =    -383.92414862 Ry
     estimated scf accuracy    <      21.12495105 Ry

     iteration # 90     ecut=    30.00 Ry     beta=0.70
     Davidson diagonalization with overlap
     ethr =  1.00E-02,  avg # of iterations =  6.0

     negative rho (up, down):  1.210E-01 0.000E+00

     total cpu time spent up to now is       12.5 secs

     total energy              =      35.43596641 Ry
     Harris-Foulkes estimate   =    -309.97306118 Ry
     estimated scf accuracy    <      51.64857098 Ry

     iteration # 91     ecut=    30.00 Ry     beta=0.70
     Davidson diagonalization with overlap
     ethr =  1.00E-02,  avg # of iterations =  6.0

     negative rho (up, down):  1.105E-01 0.000E+00

     total cpu time spent up to now is       12.5 secs

     total energy              =     213.98053473 Ry
     Harris-Foulkes estimate   =    -589.54115072 Ry
     estimated scf accuracy    <      48.48887412 Ry

     iteration # 92     ecut=    30.00 Ry     beta=0.70
     Davidson diagonalization with overlap
     ethr =  1.00E-02,  avg # of iterations =  9.0

     negative rho (up, down):  1.364E-01 0.000E+00

     total cpu time spent up to now is       12.6 secs

     total energy              =      16.81275133 Ry
     Harris-Foulkes estimate   =    -132.76290527 Ry
     estimated scf accuracy    <      21.38234204 Ry

     iteration # 93     ecut=    30.00 Ry     beta=0.70
     Davidson diagonalization with overlap
     ethr =  1.00E-02,  avg # of iterations =  6.0

     negative rho (up, down):  4.754E-02 0.000E+00

     total cpu time spent up to now is       12.6 secs

     total energy              =     -48.82320490 Ry
     Harris-Foulkes estimate   =     -88.63356551 Ry
     estimated scf accuracy    <       9.92071695 Ry

     iteration # 94     ecut=    30.00 Ry     beta=0.70
     Davidson diagonalization with overlap
     ethr =  1.00E-02,  avg # of iterations =  7.0

     negative rho (up, down):  5.760E-02 0.000E+00

     total cpu time spent up to now is       12.7 secs

     total energy              =       3.39329425 Ry
     Harris-Foulkes estimate   =    -130.74931408 Ry
     estimated scf accuracy    <      15.53754877 Ry

     iteration # 95     ecut=    30.00 Ry     beta=0.70
     Davidson diagonalization with overlap
     ethr =  1.00E-02,  avg # of iterations =  7.0

     negative rho (up, down):  5.884E-02 0.000E+00

     total cpu time spent up to now is       12.7 secs

     total energy              =    -945.74066557 Ry
     Harris-Foulkes estimate   =   -4527.42208420 Ry
     estimated scf accuracy    <      39.33689265 Ry

     iteration # 96     ecut=    30.00 Ry     beta=0.70
     Davidson diagonalization with overlap
     ethr =  1.00E-02,  avg # of iterations =  7.0

     negative rho (up, down):  1.674E-01 0.000E+00

     total cpu time spent up to now is       12.8 secs

     total energy              =   -1152.68524337 Ry
     Harris-Foulkes estimate   =   -3080.72053535 Ry
     estimated scf accuracy    <      19.75885761 Ry

     iteration # 97     ecut=    30.00 Ry     beta=0.70
     Davidson diagonalization with overlap
     ethr =  1.00E-02,  avg # of iterations =  4.0

     negative rho (up, down):  7.641E-01 0.000E+00

     total cpu time spent up to now is       12.8 secs

     total energy              =   -7695.88605065 Ry
     Harris-Foulkes estimate   =   -3535.18383600 Ry
     estimated scf accuracy    <       8.92328968 Ry

     iteration # 98     ecut=    30.00 Ry     beta=0.70
     Davidson diagonalization with overlap
     ethr =  1.00E-02,  avg # of iterations =  9.0

     negative rho (up, down):  6.090E-01 0.000E+00

     total cpu time spent up to now is       12.9 secs

     total energy              =     -17.67729801 Ry
     Harris-Foulkes estimate   =  -61287.87289935 Ry
     estimated scf accuracy    <      35.18463717 Ry

     iteration # 99     ecut=    30.00 Ry     beta=0.70
     Davidson diagonalization with overlap
     ethr =  1.00E-02,  avg # of iterations =  9.0

     negative rho (up, down):  6.446E-01 0.000E+00

     total cpu time spent up to now is       12.9 secs

     total energy              =      51.24601730 Ry
     Harris-Foulkes estimate   =   -1263.18176837 Ry
     estimated scf accuracy    <      48.00132136 Ry

     iteration #100     ecut=    30.00 Ry     beta=0.70
     Davidson diagonalization with overlap
     ethr =  1.00E-02,  avg # of iterations = 11.0

     negative rho (up, down):  7.795E-01 0.000E+00

     total cpu time spent up to now is       13.0 secs

     total energy              =      81.25596133 Ry
     Harris-Foulkes estimate   =    -165.90108223 Ry
     estimated scf accuracy    <      41.44768813 Ry

     End of self-consistent calculation

     convergence NOT achieved after 100 iterations: stopping

     Writing output data file pwscf.save
 
     init_run     :      0.09s CPU      0.19s WALL (       1 calls)
     electrons    :      8.65s CPU     11.20s WALL (       7 calls)
     update_pot   :      0.72s CPU      0.99s WALL (       6 calls)
     forces       :      0.16s CPU      0.16s WALL (       6 calls)

     Called by init_run:
     wfcinit      :      0.01s CPU      0.03s WALL (       1 calls)
     potinit      :      0.02s CPU      0.05s WALL (       1 calls)

     Called by electrons:
     c_bands      :      4.00s CPU      4.39s WALL (     263 calls)
     sum_band     :      0.77s CPU      0.83s WALL (     263 calls)
     v_of_rho     :      1.90s CPU      2.08s WALL (     270 calls)
     mix_rho      :      1.71s CPU      3.05s WALL (     263 calls)

     Called by c_bands:
     init_us_2    :      0.02s CPU      0.03s WALL (     527 calls)
     cegterg      :      3.94s CPU      4.24s WALL (     263 calls)

     Called by sum_band:

     Called by *egterg:
     h_psi        :      3.31s CPU      3.57s WALL (    1204 calls)
     g_psi        :      0.03s CPU      0.03s WALL (     940 calls)
     cdiaghg      :      0.23s CPU      0.25s WALL (    1197 calls)

     Called by h_psi:
     h_psi:pot    :      3.29s CPU      3.55s WALL (    1204 calls)
     h_psi:calbec :      0.04s CPU      0.13s WALL (    1204 calls)
     vloc_psi     :      3.23s CPU      3.41s WALL (    1204 calls)
     add_vuspsi   :      0.01s CPU      0.01s WALL (    1204 calls)

     General routines
     calbec       :      0.09s CPU      0.19s WALL (    1233 calls)
     fft          :      1.19s CPU      1.28s WALL (    2982 calls)
     fftw         :      3.40s CPU      3.61s WALL (   14958 calls)
     davcio       :      0.30s CPU      1.14s WALL (    4650 calls)
 
     Parallel routines
     fft_scatter  :      1.73s CPU      1.94s WALL (   17940 calls)
 
     PWSCF        :     9.85s CPU        13.08s WALL

 
   This run was terminated on:   2:19: 0  11Feb2018            

=------------------------------------------------------------------------------=
   JOB DONE.
=------------------------------------------------------------------------------=
