
     Program PWSCF v.6.0 (svn rev. 13079) starts on 11Feb2018 at  2:20: 1 

     This program is part of the open-source Quantum ESPRESSO suite
     for quantum simulation of materials; please cite
         "P. Giannozzi et al., J. Phys.:Condens. Matter 21 395502 (2009);
          URL http://www.quantum-espresso.org", 
     in publications or presentations arising from this work. More details at
     http://www.quantum-espresso.org/quote

     Parallel version (MPI), running on    28 processors
     R & G space division:  proc/nbgrp/npool/nimage =      28
     Reading input from inputs/water-1-md/481.in

     Current dimensions of program PWSCF are:
     Max number of different atomic species (ntypx) = 10
     Max number of k-points (npk) =  40000
     Max angular momentum in pseudopotentials (lmaxx) =  3

     Subspace diagonalization in iterative solution of the eigenvalue problem:
     a serial algorithm will be used

 
     Parallelization info
     --------------------
     sticks:   dense  smooth     PW     G-vecs:    dense   smooth      PW
     Min         136     136     33                 6338     6338     787
     Max         137     137     34                 6341     6341     792
     Sum        3809    3809    949               177509   177509   22119
 


     bravais-lattice index     =            1
     lattice parameter (alat)  =      20.0000  a.u.
     unit-cell volume          =    8000.0000 (a.u.)^3
     number of atoms/cell      =            3
     number of atomic types    =            2
     number of electrons       =         8.00
     number of Kohn-Sham states=            8
     kinetic-energy cutoff     =      30.0000  Ry
     charge density cutoff     =     120.0000  Ry
     convergence threshold     =      1.0E-08
     mixing beta               =       0.7000
     number of iterations used =            8  plain     mixing
     Exchange-correlation      = BLYP ( 1  3  1  3 0 0)
     nstep                     =         5000


     celldm(1)=  20.000000  celldm(2)=   0.000000  celldm(3)=   0.000000
     celldm(4)=   0.000000  celldm(5)=   0.000000  celldm(6)=   0.000000

     crystal axes: (cart. coord. in units of alat)
               a(1) = (   1.000000   0.000000   0.000000 )  
               a(2) = (   0.000000   1.000000   0.000000 )  
               a(3) = (   0.000000   0.000000   1.000000 )  

     reciprocal axes: (cart. coord. in units 2 pi/alat)
               b(1) = (  1.000000  0.000000  0.000000 )  
               b(2) = (  0.000000  1.000000  0.000000 )  
               b(3) = (  0.000000  0.000000  1.000000 )  


     PseudoPot. # 1 for  H read from file:
     ./H.blyp-hgh.UPF
     MD5 check sum: c576e69559cde411e611be972c763230
     Pseudo is Norm-conserving, Zval =  1.0
     Generated in analytical, separable form
     Using radial grid of  929 points,  0 beta functions with: 

     PseudoPot. # 2 for  O read from file:
     ./O.blyp-hgh.UPF
     MD5 check sum: d0b7156309aa9befef28faac7bc56342
     Pseudo is Norm-conserving, Zval =  6.0
     Generated in analytical, separable form
     Using radial grid of 1095 points,  1 beta functions with: 
                l(1) =   0

     atomic species   valence    mass     pseudopotential
        H              1.00     1.01000      H( 1.00)
        O              6.00    16.00000      O( 1.00)

     No symmetry found



   Cartesian axes

     site n.     atom                  positions (alat units)
         1           H   tau(   1) = (   0.7267826   0.5042026   0.5856417  )
         2           H   tau(   2) = (   0.4652297   0.9123908   0.8854253  )
         3           O   tau(   3) = (   0.6997482   0.1467018   0.5035574  )

     number of k points=     1  Marzari-Vanderbilt smearing, width (Ry)=  0.0250
                       cart. coord. in units 2pi/alat
        k(    1) = (   0.0000000   0.0000000   0.0000000), wk =   2.0000000

     Dense  grid:   177509 G-vectors     FFT dimensions: (  72,  72,  72)

     Estimated max dynamical RAM per process >       6.09Mb

     Estimated total allocated dynamical RAM >     170.64Mb

     Initial potential from superposition of free atoms
     Check: negative starting charge=   -0.344240

     starting charge    7.99998, renormalised to    8.00000

     negative rho (up, down):  3.442E-01 0.000E+00
     Starting wfc are    6 randomized atomic wfcs +    2 random wfc

     total cpu time spent up to now is        0.2 secs

     per-process dynamical memory:    18.8 Mb

     Self-consistent Calculation

     iteration #  1     ecut=    30.00 Ry     beta=0.70
     Davidson diagonalization with overlap
     ethr =  1.00E-02,  avg # of iterations =  7.0

     negative rho (up, down):  8.223E-02 0.000E+00

     total cpu time spent up to now is        0.3 secs

     total energy              =     -28.21444184 Ry
     Harris-Foulkes estimate   =     -32.06913425 Ry
     estimated scf accuracy    <       4.44504439 Ry

     iteration #  2     ecut=    30.00 Ry     beta=0.70
     Davidson diagonalization with overlap
     ethr =  1.00E-02,  avg # of iterations =  4.0

     negative rho (up, down):  6.028E-02 0.000E+00

     total cpu time spent up to now is        0.3 secs

     total energy              =     -32.56293591 Ry
     Harris-Foulkes estimate   =     -37.66722035 Ry
     estimated scf accuracy    <      12.48611387 Ry

     iteration #  3     ecut=    30.00 Ry     beta=0.70
     Davidson diagonalization with overlap
     ethr =  1.00E-02,  avg # of iterations =  3.0

     negative rho (up, down):  6.230E-02 0.000E+00

     total cpu time spent up to now is        0.3 secs

     total energy              =     -33.11522412 Ry
     Harris-Foulkes estimate   =     -32.90259672 Ry
     estimated scf accuracy    <       4.76211722 Ry

     iteration #  4     ecut=    30.00 Ry     beta=0.70
     Davidson diagonalization with overlap
     ethr =  1.00E-02,  avg # of iterations =  1.0

     negative rho (up, down):  2.466E-02 0.000E+00

     total cpu time spent up to now is        0.4 secs

     total energy              =     -30.25639808 Ry
     Harris-Foulkes estimate   =     -33.11592454 Ry
     estimated scf accuracy    <       5.08248719 Ry

     iteration #  5     ecut=    30.00 Ry     beta=0.70
     Davidson diagonalization with overlap
     ethr =  1.00E-02,  avg # of iterations =  4.0

     negative rho (up, down):  4.562E-03 0.000E+00

     total cpu time spent up to now is        0.4 secs

     total energy              =     -32.60934842 Ry
     Harris-Foulkes estimate   =     -33.14340493 Ry
     estimated scf accuracy    <       8.94604910 Ry

     iteration #  6     ecut=    30.00 Ry     beta=0.70
     Davidson diagonalization with overlap
     ethr =  1.00E-02,  avg # of iterations =  4.0

     negative rho (up, down):  1.491E-03 0.000E+00

     total cpu time spent up to now is        0.4 secs

     total energy              =     -32.68451722 Ry
     Harris-Foulkes estimate   =     -32.72222617 Ry
     estimated scf accuracy    <       5.63060534 Ry

     iteration #  7     ecut=    30.00 Ry     beta=0.70
     Davidson diagonalization with overlap
     ethr =  1.00E-02,  avg # of iterations =  1.0

     negative rho (up, down):  3.768E-04 0.000E+00

     total cpu time spent up to now is        0.5 secs

     total energy              =     -31.82053121 Ry
     Harris-Foulkes estimate   =     -32.68651582 Ry
     estimated scf accuracy    <       5.51482043 Ry

     iteration #  8     ecut=    30.00 Ry     beta=0.70
     Davidson diagonalization with overlap
     ethr =  1.00E-02,  avg # of iterations =  1.0

     negative rho (up, down):  5.204E-03 0.000E+00

     total cpu time spent up to now is        0.5 secs

     total energy              =     -31.50224070 Ry
     Harris-Foulkes estimate   =     -31.84489405 Ry
     estimated scf accuracy    <       4.01523142 Ry

     iteration #  9     ecut=    30.00 Ry     beta=0.70
     Davidson diagonalization with overlap
     ethr =  1.00E-02,  avg # of iterations =  1.0

     negative rho (up, down):  5.227E-03 0.000E+00

     total cpu time spent up to now is        0.5 secs

     total energy              =     -31.50879547 Ry
     Harris-Foulkes estimate   =     -31.50865389 Ry
     estimated scf accuracy    <       1.35325478 Ry

     iteration # 10     ecut=    30.00 Ry     beta=0.70
     Davidson diagonalization with overlap
     ethr =  1.00E-02,  avg # of iterations =  1.0

     negative rho (up, down):  1.377E-02 0.000E+00

     total cpu time spent up to now is        0.6 secs

     total energy              =     -31.58007152 Ry
     Harris-Foulkes estimate   =     -31.50920531 Ry
     estimated scf accuracy    <       1.36201646 Ry

     iteration # 11     ecut=    30.00 Ry     beta=0.70
     Davidson diagonalization with overlap
     ethr =  1.00E-02,  avg # of iterations =  1.0

     negative rho (up, down):  6.346E-04 0.000E+00

     total cpu time spent up to now is        0.6 secs

     total energy              =     -31.75831634 Ry
     Harris-Foulkes estimate   =     -31.62838885 Ry
     estimated scf accuracy    <       3.70006837 Ry

     iteration # 12     ecut=    30.00 Ry     beta=0.70
     Davidson diagonalization with overlap
     ethr =  1.00E-02,  avg # of iterations =  1.0

     negative rho (up, down):  1.732E-02 0.000E+00

     total cpu time spent up to now is        0.6 secs

     total energy              =     -32.41745571 Ry
     Harris-Foulkes estimate   =     -31.75811067 Ry
     estimated scf accuracy    <       3.84149784 Ry

     iteration # 13     ecut=    30.00 Ry     beta=0.70
     Davidson diagonalization with overlap
     ethr =  1.00E-02,  avg # of iterations =  1.0

     negative rho (up, down):  7.636E-01 0.000E+00

     total cpu time spent up to now is        0.7 secs

     total energy              =     -28.52689794 Ry
     Harris-Foulkes estimate   =     -32.43495189 Ry
     estimated scf accuracy    <       5.04821684 Ry

     iteration # 14     ecut=    30.00 Ry     beta=0.70
     Davidson diagonalization with overlap
     ethr =  1.00E-02,  avg # of iterations =  4.0

     negative rho (up, down):  1.211E-04 0.000E+00

     total cpu time spent up to now is        0.7 secs

     total energy              =     -31.48087392 Ry
     Harris-Foulkes estimate   =     -36.95751961 Ry
     estimated scf accuracy    <      10.55789694 Ry

     iteration # 15     ecut=    30.00 Ry     beta=0.70
     Davidson diagonalization with overlap
     ethr =  1.00E-02,  avg # of iterations =  5.0

     negative rho (up, down):  1.267E-04 0.000E+00

     total cpu time spent up to now is        0.8 secs

     total energy              =     -31.22331961 Ry
     Harris-Foulkes estimate   =     -31.74914458 Ry
     estimated scf accuracy    <       2.81823615 Ry

     iteration # 16     ecut=    30.00 Ry     beta=0.70
     Davidson diagonalization with overlap
     ethr =  1.00E-02,  avg # of iterations =  1.0

     negative rho (up, down):  3.302E-03 0.000E+00

     total cpu time spent up to now is        0.8 secs

     total energy              =     -31.30716884 Ry
     Harris-Foulkes estimate   =     -31.75916643 Ry
     estimated scf accuracy    <       3.81165706 Ry

     iteration # 17     ecut=    30.00 Ry     beta=0.70
     Davidson diagonalization with overlap
     ethr =  1.00E-02,  avg # of iterations =  1.0

     negative rho (up, down):  1.523E-03 0.000E+00

     total cpu time spent up to now is        0.8 secs

     total energy              =     -31.38776632 Ry
     Harris-Foulkes estimate   =     -31.59935669 Ry
     estimated scf accuracy    <       2.54320227 Ry

     iteration # 18     ecut=    30.00 Ry     beta=0.70
     Davidson diagonalization with overlap
     ethr =  1.00E-02,  avg # of iterations =  1.0

     negative rho (up, down):  7.441E-04 0.000E+00

     total cpu time spent up to now is        0.9 secs

     total energy              =     -31.58360033 Ry
     Harris-Foulkes estimate   =     -31.55073269 Ry
     estimated scf accuracy    <       4.22291597 Ry

     iteration # 19     ecut=    30.00 Ry     beta=0.70
     Davidson diagonalization with overlap
     ethr =  1.00E-02,  avg # of iterations =  1.0

     negative rho (up, down):  7.346E-04 0.000E+00

     total cpu time spent up to now is        0.9 secs

     total energy              =     -31.40043079 Ry
     Harris-Foulkes estimate   =     -31.58472045 Ry
     estimated scf accuracy    <       4.36199252 Ry

     iteration # 20     ecut=    30.00 Ry     beta=0.70
     Davidson diagonalization with overlap
     ethr =  1.00E-02,  avg # of iterations =  1.0

     negative rho (up, down):  6.971E-04 0.000E+00

     total cpu time spent up to now is        0.9 secs

     total energy              =     -31.55968083 Ry
     Harris-Foulkes estimate   =     -31.50917921 Ry
     estimated scf accuracy    <       1.03668977 Ry

     iteration # 21     ecut=    30.00 Ry     beta=0.70
     Davidson diagonalization with overlap
     ethr =  1.00E-02,  avg # of iterations =  1.0

     total cpu time spent up to now is        1.0 secs

     total energy              =     -31.46700280 Ry
     Harris-Foulkes estimate   =     -31.58067766 Ry
     estimated scf accuracy    <       2.57358841 Ry

     iteration # 22     ecut=    30.00 Ry     beta=0.70
     Davidson diagonalization with overlap
     ethr =  1.00E-02,  avg # of iterations =  1.0

     negative rho (up, down):  5.448E-05 0.000E+00

     total cpu time spent up to now is        1.0 secs

     total energy              =     -31.50227088 Ry
     Harris-Foulkes estimate   =     -31.49555265 Ry
     estimated scf accuracy    <       0.08836054 Ry

     iteration # 23     ecut=    30.00 Ry     beta=0.70
     Davidson diagonalization with overlap
     ethr =  1.10E-03,  avg # of iterations =  1.0

     negative rho (up, down):  7.881E-07 0.000E+00

     total cpu time spent up to now is        1.0 secs

     total energy              =     -31.51804160 Ry
     Harris-Foulkes estimate   =     -31.53316167 Ry
     estimated scf accuracy    <       2.04853367 Ry

     iteration # 24     ecut=    30.00 Ry     beta=0.70
     Davidson diagonalization with overlap
     ethr =  1.10E-03,  avg # of iterations =  1.0

     total cpu time spent up to now is        1.1 secs

     total energy              =     -31.50206806 Ry
     Harris-Foulkes estimate   =     -31.51889125 Ry
     estimated scf accuracy    <       1.56832393 Ry

     iteration # 25     ecut=    30.00 Ry     beta=0.70
     Davidson diagonalization with overlap
     ethr =  1.10E-03,  avg # of iterations =  1.0

     negative rho (up, down):  2.445E-06 0.000E+00

     total cpu time spent up to now is        1.1 secs

     total energy              =     -31.50229872 Ry
     Harris-Foulkes estimate   =     -31.50426233 Ry
     estimated scf accuracy    <       0.79085677 Ry

     iteration # 26     ecut=    30.00 Ry     beta=0.70
     Davidson diagonalization with overlap
     ethr =  1.10E-03,  avg # of iterations =  1.0

     total cpu time spent up to now is        1.1 secs

     total energy              =     -31.49984952 Ry
     Harris-Foulkes estimate   =     -31.50238002 Ry
     estimated scf accuracy    <       0.66481735 Ry

     iteration # 27     ecut=    30.00 Ry     beta=0.70
     Davidson diagonalization with overlap
     ethr =  1.10E-03,  avg # of iterations =  1.0

     negative rho (up, down):  2.107E-07 0.000E+00

     total cpu time spent up to now is        1.2 secs

     total energy              =     -31.49800704 Ry
     Harris-Foulkes estimate   =     -31.50001082 Ry
     estimated scf accuracy    <       0.51039992 Ry

     iteration # 28     ecut=    30.00 Ry     beta=0.70
     Davidson diagonalization with overlap
     ethr =  1.10E-03,  avg # of iterations =  1.0

     total cpu time spent up to now is        1.2 secs

     total energy              =     -31.48475802 Ry
     Harris-Foulkes estimate   =     -31.49815164 Ry
     estimated scf accuracy    <       0.37000051 Ry

     iteration # 29     ecut=    30.00 Ry     beta=0.70
     Davidson diagonalization with overlap
     ethr =  1.10E-03,  avg # of iterations =  1.0

     total cpu time spent up to now is        1.2 secs

     total energy              =     -31.49560723 Ry
     Harris-Foulkes estimate   =     -31.49594494 Ry
     estimated scf accuracy    <       0.20580393 Ry

     iteration # 30     ecut=    30.00 Ry     beta=0.70
     Davidson diagonalization with overlap
     ethr =  1.10E-03,  avg # of iterations =  1.0

     total cpu time spent up to now is        1.3 secs

     total energy              =     -31.49219894 Ry
     Harris-Foulkes estimate   =     -31.49570228 Ry
     estimated scf accuracy    <       0.18611095 Ry

     iteration # 31     ecut=    30.00 Ry     beta=0.70
     Davidson diagonalization with overlap
     ethr =  1.10E-03,  avg # of iterations =  1.0

     total cpu time spent up to now is        1.3 secs

     total energy              =     -31.49392085 Ry
     Harris-Foulkes estimate   =     -31.49392587 Ry
     estimated scf accuracy    <       0.00056086 Ry

     iteration # 32     ecut=    30.00 Ry     beta=0.70
     Davidson diagonalization with overlap
     ethr =  7.01E-06,  avg # of iterations = 15.0

     total cpu time spent up to now is        1.3 secs

     total energy              =     -31.49394823 Ry
     Harris-Foulkes estimate   =     -31.49393586 Ry
     estimated scf accuracy    <       0.00139598 Ry

     iteration # 33     ecut=    30.00 Ry     beta=0.70
     Davidson diagonalization with overlap
     ethr =  7.01E-06,  avg # of iterations =  1.0

     total cpu time spent up to now is        1.4 secs

     total energy              =     -31.49386121 Ry
     Harris-Foulkes estimate   =     -31.49395729 Ry
     estimated scf accuracy    <       0.00368237 Ry

     iteration # 34     ecut=    30.00 Ry     beta=0.70
     Davidson diagonalization with overlap
     ethr =  7.01E-06,  avg # of iterations =  1.0

     total cpu time spent up to now is        1.4 secs

     total energy              =     -31.49391527 Ry
     Harris-Foulkes estimate   =     -31.49392069 Ry
     estimated scf accuracy    <       0.00020503 Ry

     iteration # 35     ecut=    30.00 Ry     beta=0.70
     Davidson diagonalization with overlap
     ethr =  2.56E-06,  avg # of iterations =  1.0

     total cpu time spent up to now is        1.4 secs

     total energy              =     -31.49391797 Ry
     Harris-Foulkes estimate   =     -31.49391805 Ry
     estimated scf accuracy    <       0.00000083 Ry

     iteration # 36     ecut=    30.00 Ry     beta=0.70
     Davidson diagonalization with overlap
     ethr =  1.03E-08,  avg # of iterations =  1.0

     total cpu time spent up to now is        1.5 secs

     total energy              =     -31.49391794 Ry
     Harris-Foulkes estimate   =     -31.49391798 Ry
     estimated scf accuracy    <       0.00000002 Ry

     iteration # 37     ecut=    30.00 Ry     beta=0.70
     Davidson diagonalization with overlap
     ethr =  1.96E-10,  avg # of iterations =  1.0

     total cpu time spent up to now is        1.5 secs

     total energy              =     -31.49391786 Ry
     Harris-Foulkes estimate   =     -31.49391794 Ry
     estimated scf accuracy    <       0.00000002 Ry

     iteration # 38     ecut=    30.00 Ry     beta=0.70
     Davidson diagonalization with overlap
     ethr =  1.96E-10,  avg # of iterations =  1.0

     total cpu time spent up to now is        1.5 secs

     End of self-consistent calculation

          k = 0.0000 0.0000 0.0000 ( 22119 PWs)   bands (ev):

   -23.5903  -7.0621  -7.0071  -7.0052  -6.8992  -6.8408  -0.2020   0.6382

     the Fermi energy is    -6.8707 ev

!    total energy              =     -31.49391785 Ry
     Harris-Foulkes estimate   =     -31.49391786 Ry
     estimated scf accuracy    <          2.0E-09 Ry

     convergence has been achieved in  38 iterations

     Forces acting on atoms (Ry/au):

     atom    1 type  1   force =    -0.00040827   -0.00355901   -0.00115983
     atom    2 type  1   force =    -0.00009613    0.00027561   -0.00035520
     atom    3 type  2   force =     0.00050440    0.00328340    0.00151503

     Total force =     0.005265     Total SCF correction =     0.000035

     Molecular Dynamics Calculation

     Starting temperature  =  1000.00 K

     temperature is controlled by Andersen thermostat
     Collision frequency = 1.0000/timestep
     mass H                =     1.01
     mass O                =    16.00
     Time step             =   100.00 a.u.,  4.8378 femto-seconds

     Entering Dynamics:    iteration =     1
                           time      =   0.0048 pico-seconds


     Andersen thermostat:    3 collisions

ATOMIC_POSITIONS (bohr)
H       14.764992576  10.341261452  11.508406535
H        9.310603271  18.478326981  17.517680608
O       13.980107541   2.903248648  10.096098337


     kinetic energy (Ekin) =     0.01319564 Ry
     temperature           =   694.47456190 K 
     Ekin + Etot (const)   =   -31.48072221 Ry

     Linear momentum :   -0.0000000000    0.0000000000    0.0000000000

     Writing output data file pwscf.save
     Check: negative starting charge=   -0.344240
     NEW-OLD atomic charge density approx. for the potential
     Check: negative starting charge=   -0.344300

     negative rho (up, down):  7.539E-02 0.000E+00

     total cpu time spent up to now is        1.8 secs

     per-process dynamical memory:    20.4 Mb

     Self-consistent Calculation

     iteration #  1     ecut=    30.00 Ry     beta=0.70
     Davidson diagonalization with overlap
     c_bands:  1 eigenvalues not converged
     ethr =  1.00E-06,  avg # of iterations = 20.0

     negative rho (up, down):  1.729E-02 0.000E+00

     total cpu time spent up to now is        1.9 secs

     total energy              =     -31.45096727 Ry
     Harris-Foulkes estimate   =     -31.43345385 Ry
     estimated scf accuracy    <       0.03278485 Ry

     iteration #  2     ecut=    30.00 Ry     beta=0.70
     Davidson diagonalization with overlap
     ethr =  4.10E-04,  avg # of iterations =  2.0

     negative rho (up, down):  1.605E-02 0.000E+00

     total cpu time spent up to now is        2.0 secs

     total energy              =     -31.47132833 Ry
     Harris-Foulkes estimate   =     -31.86526657 Ry
     estimated scf accuracy    <       4.08269863 Ry

     iteration #  3     ecut=    30.00 Ry     beta=0.70
     Davidson diagonalization with overlap
     ethr =  4.10E-04,  avg # of iterations =  2.0

     negative rho (up, down):  1.562E-02 0.000E+00

     total cpu time spent up to now is        2.0 secs

     total energy              =     -31.47867673 Ry
     Harris-Foulkes estimate   =     -31.48407561 Ry
     estimated scf accuracy    <       0.60576058 Ry

     iteration #  4     ecut=    30.00 Ry     beta=0.70
     Davidson diagonalization with overlap
     ethr =  4.10E-04,  avg # of iterations =  1.0

     negative rho (up, down):  5.104E-03 0.000E+00

     total cpu time spent up to now is        2.0 secs

     total energy              =     -31.44906468 Ry
     Harris-Foulkes estimate   =     -31.48137465 Ry
     estimated scf accuracy    <       0.35598835 Ry

     iteration #  5     ecut=    30.00 Ry     beta=0.70
     Davidson diagonalization with overlap
     ethr =  4.10E-04,  avg # of iterations =  1.0

     negative rho (up, down):  2.776E-03 0.000E+00

     total cpu time spent up to now is        2.1 secs

     total energy              =     -31.47021123 Ry
     Harris-Foulkes estimate   =     -31.56016980 Ry
     estimated scf accuracy    <       2.56491266 Ry

     iteration #  6     ecut=    30.00 Ry     beta=0.70
     Davidson diagonalization with overlap
     ethr =  4.10E-04,  avg # of iterations =  1.0

     negative rho (up, down):  8.680E-04 0.000E+00

     total cpu time spent up to now is        2.1 secs

     total energy              =     -31.49151806 Ry
     Harris-Foulkes estimate   =     -31.49232710 Ry
     estimated scf accuracy    <       0.11123019 Ry

     iteration #  7     ecut=    30.00 Ry     beta=0.70
     Davidson diagonalization with overlap
     ethr =  4.10E-04,  avg # of iterations =  3.0

     negative rho (up, down):  1.649E-04 0.000E+00

     total cpu time spent up to now is        2.2 secs

     total energy              =     -31.49307117 Ry
     Harris-Foulkes estimate   =     -31.49303451 Ry
     estimated scf accuracy    <       0.00289380 Ry

     iteration #  8     ecut=    30.00 Ry     beta=0.70
     Davidson diagonalization with overlap
     ethr =  3.62E-05,  avg # of iterations =  9.0

     negative rho (up, down):  1.569E-06 0.000E+00

     total cpu time spent up to now is        2.2 secs

     total energy              =     -31.49317062 Ry
     Harris-Foulkes estimate   =     -31.49312805 Ry
     estimated scf accuracy    <       0.00028830 Ry

     iteration #  9     ecut=    30.00 Ry     beta=0.70
     Davidson diagonalization with overlap
     ethr =  3.60E-06,  avg # of iterations =  8.0

     negative rho (up, down):  6.411E-08 0.000E+00

     total cpu time spent up to now is        2.3 secs

     total energy              =     -31.49323785 Ry
     Harris-Foulkes estimate   =     -31.49323771 Ry
     estimated scf accuracy    <       0.00961077 Ry

     iteration # 10     ecut=    30.00 Ry     beta=0.70
     Davidson diagonalization with overlap
     ethr =  3.60E-06,  avg # of iterations =  1.0

     total cpu time spent up to now is        2.3 secs

     total energy              =     -31.49300233 Ry
     Harris-Foulkes estimate   =     -31.49323873 Ry
     estimated scf accuracy    <       0.00943820 Ry

     iteration # 11     ecut=    30.00 Ry     beta=0.70
     Davidson diagonalization with overlap
     ethr =  3.60E-06,  avg # of iterations =  1.0

     total cpu time spent up to now is        2.4 secs

     total energy              =     -31.49314697 Ry
     Harris-Foulkes estimate   =     -31.49315177 Ry
     estimated scf accuracy    <       0.00070563 Ry

     iteration # 12     ecut=    30.00 Ry     beta=0.70
     Davidson diagonalization with overlap
     ethr =  3.60E-06,  avg # of iterations =  1.0

     total cpu time spent up to now is        2.4 secs

     total energy              =     -31.49314385 Ry
     Harris-Foulkes estimate   =     -31.49314774 Ry
     estimated scf accuracy    <       0.00032485 Ry

     iteration # 13     ecut=    30.00 Ry     beta=0.70
     Davidson diagonalization with overlap
     ethr =  3.60E-06,  avg # of iterations =  1.0

     total cpu time spent up to now is        2.5 secs

     total energy              =     -31.49314459 Ry
     Harris-Foulkes estimate   =     -31.49314479 Ry
     estimated scf accuracy    <       0.00006847 Ry

     iteration # 14     ecut=    30.00 Ry     beta=0.70
     Davidson diagonalization with overlap
     ethr =  8.56E-07,  avg # of iterations =  1.0

     total cpu time spent up to now is        2.5 secs

     total energy              =     -31.49314333 Ry
     Harris-Foulkes estimate   =     -31.49314459 Ry
     estimated scf accuracy    <       0.00006387 Ry

     iteration # 15     ecut=    30.00 Ry     beta=0.70
     Davidson diagonalization with overlap
     ethr =  7.98E-07,  avg # of iterations =  1.0

     total cpu time spent up to now is        2.6 secs

     End of self-consistent calculation

          k = 0.0000 0.0000 0.0000 ( 22119 PWs)   bands (ev):

   -23.5847  -7.0449  -7.0031  -7.0005  -6.8943  -6.8493  -0.2037   0.6436

     the Fermi energy is    -6.8661 ev

!    total energy              =     -31.49314393 Ry
     Harris-Foulkes estimate   =     -31.49314395 Ry
     estimated scf accuracy    <          7.1E-10 Ry

     convergence has been achieved in  15 iterations

     Forces acting on atoms (Ry/au):

     atom    1 type  1   force =    -0.00056057   -0.00305434   -0.00053260
     atom    2 type  1   force =    -0.00019041   -0.00001239   -0.00017594
     atom    3 type  2   force =     0.00075098    0.00306672    0.00070854

     Total force =     0.004524     Total SCF correction =     0.000401

     Entering Dynamics:    iteration =     2
                           time      =   0.0097 pico-seconds


     Andersen thermostat:    3 collisions

ATOMIC_POSITIONS (bohr)
H       14.811316797  10.484232168  11.647751637
H        9.371791300  18.324341726  17.692010566
O       13.973320830   2.903943940  10.076297598


     kinetic energy (Ekin) =     0.00813325 Ry
     temperature           =   428.04595240 K 
     Ekin + Etot (const)   =   -31.48501068 Ry
     Message from routine dynamics:
     Total linear momentum <> 0

     Linear momentum :   -0.0482643422    0.4839037204    0.0463385468

     Writing output data file pwscf.save

     first order wave-functions extrapolation
     Check: negative starting charge=   -0.344300
     first order charge density extrapolation
     Check: negative starting charge=   -0.344495

     negative rho (up, down):  1.084E-01 0.000E+00

     total cpu time spent up to now is        2.9 secs

     per-process dynamical memory:    20.4 Mb

     Self-consistent Calculation

     iteration #  1     ecut=    30.00 Ry     beta=0.70
     Davidson diagonalization with overlap
     c_bands:  1 eigenvalues not converged
     ethr =  1.00E-06,  avg # of iterations = 20.0

     negative rho (up, down):  2.557E-02 0.000E+00

     total cpu time spent up to now is        3.0 secs

     total energy              =     -31.42379822 Ry
     Harris-Foulkes estimate   =     -31.41791297 Ry
     estimated scf accuracy    <       0.05685113 Ry

     iteration #  2     ecut=    30.00 Ry     beta=0.70
     Davidson diagonalization with overlap
     ethr =  7.11E-04,  avg # of iterations =  2.0

     negative rho (up, down):  2.328E-02 0.000E+00

     total cpu time spent up to now is        3.1 secs

     total energy              =     -31.47713746 Ry
     Harris-Foulkes estimate   =     -31.98636514 Ry
     estimated scf accuracy    <       4.31060098 Ry

     iteration #  3     ecut=    30.00 Ry     beta=0.70
     Davidson diagonalization with overlap
     ethr =  7.11E-04,  avg # of iterations =  2.0

     negative rho (up, down):  2.257E-02 0.000E+00

     total cpu time spent up to now is        3.1 secs

     total energy              =     -31.46943344 Ry
     Harris-Foulkes estimate   =     -31.51254473 Ry
     estimated scf accuracy    <       1.18245345 Ry

     iteration #  4     ecut=    30.00 Ry     beta=0.70
     Davidson diagonalization with overlap
     ethr =  7.11E-04,  avg # of iterations =  1.0

     negative rho (up, down):  1.465E-02 0.000E+00

     total cpu time spent up to now is        3.1 secs

     total energy              =     -31.35913988 Ry
     Harris-Foulkes estimate   =     -31.48202091 Ry
     estimated scf accuracy    <       1.17867658 Ry

     iteration #  5     ecut=    30.00 Ry     beta=0.70
     Davidson diagonalization with overlap
     ethr =  7.11E-04,  avg # of iterations =  1.0

     negative rho (up, down):  6.951E-03 0.000E+00

     total cpu time spent up to now is        3.2 secs

     total energy              =     -31.47557854 Ry
     Harris-Foulkes estimate   =     -31.61016804 Ry
     estimated scf accuracy    <       2.73482782 Ry

     iteration #  6     ecut=    30.00 Ry     beta=0.70
     Davidson diagonalization with overlap
     ethr =  7.11E-04,  avg # of iterations =  1.0

     negative rho (up, down):  1.867E-03 0.000E+00

     total cpu time spent up to now is        3.2 secs

     total energy              =     -31.49041151 Ry
     Harris-Foulkes estimate   =     -31.49207763 Ry
     estimated scf accuracy    <       0.47301288 Ry

     iteration #  7     ecut=    30.00 Ry     beta=0.70
     Davidson diagonalization with overlap
     ethr =  7.11E-04,  avg # of iterations =  1.0

     negative rho (up, down):  8.240E-04 0.000E+00

     total cpu time spent up to now is        3.2 secs

     total energy              =     -31.49201275 Ry
     Harris-Foulkes estimate   =     -31.49253283 Ry
     estimated scf accuracy    <       0.09062918 Ry

     iteration #  8     ecut=    30.00 Ry     beta=0.70
     Davidson diagonalization with overlap
     ethr =  7.11E-04,  avg # of iterations =  1.0

     negative rho (up, down):  7.005E-06 0.000E+00

     total cpu time spent up to now is        3.3 secs

     total energy              =     -31.49235528 Ry
     Harris-Foulkes estimate   =     -31.49255573 Ry
     estimated scf accuracy    <       0.00594614 Ry

     iteration #  9     ecut=    30.00 Ry     beta=0.70
     Davidson diagonalization with overlap
     ethr =  7.43E-05,  avg # of iterations = 14.0

     negative rho (up, down):  2.175E-06 0.000E+00

     total cpu time spent up to now is        3.3 secs

     total energy              =     -31.49249383 Ry
     Harris-Foulkes estimate   =     -31.49277891 Ry
     estimated scf accuracy    <       0.01668206 Ry

     iteration # 10     ecut=    30.00 Ry     beta=0.70
     Davidson diagonalization with overlap
     ethr =  7.43E-05,  avg # of iterations =  1.0

     total cpu time spent up to now is        3.3 secs

     total energy              =     -31.49258429 Ry
     Harris-Foulkes estimate   =     -31.49262023 Ry
     estimated scf accuracy    <       0.00031005 Ry

     iteration # 11     ecut=    30.00 Ry     beta=0.70
     Davidson diagonalization with overlap
     ethr =  3.88E-06,  avg # of iterations =  3.0

     total cpu time spent up to now is        3.4 secs

     total energy              =     -31.49234046 Ry
     Harris-Foulkes estimate   =     -31.49276458 Ry
     estimated scf accuracy    <       0.01485911 Ry

     iteration # 12     ecut=    30.00 Ry     beta=0.70
     Davidson diagonalization with overlap
     ethr =  3.88E-06,  avg # of iterations =  1.0

     total cpu time spent up to now is        3.4 secs

     total energy              =     -31.49261562 Ry
     Harris-Foulkes estimate   =     -31.49264897 Ry
     estimated scf accuracy    <       0.00315590 Ry

     iteration # 13     ecut=    30.00 Ry     beta=0.70
     Davidson diagonalization with overlap
     ethr =  3.88E-06,  avg # of iterations =  1.0

     total cpu time spent up to now is        3.4 secs

     total energy              =     -31.49261266 Ry
     Harris-Foulkes estimate   =     -31.49262404 Ry
     estimated scf accuracy    <       0.00073005 Ry

     iteration # 14     ecut=    30.00 Ry     beta=0.70
     Davidson diagonalization with overlap
     ethr =  3.88E-06,  avg # of iterations =  1.0

     total cpu time spent up to now is        3.5 secs

     total energy              =     -31.49261545 Ry
     Harris-Foulkes estimate   =     -31.49261676 Ry
     estimated scf accuracy    <       0.00004697 Ry

     iteration # 15     ecut=    30.00 Ry     beta=0.70
     Davidson diagonalization with overlap
     ethr =  5.87E-07,  avg # of iterations =  1.0

     total cpu time spent up to now is        3.5 secs

     total energy              =     -31.49261610 Ry
     Harris-Foulkes estimate   =     -31.49261594 Ry
     estimated scf accuracy    <       0.00000002 Ry

     iteration # 16     ecut=    30.00 Ry     beta=0.70
     Davidson diagonalization with overlap
     ethr =  2.41E-10,  avg # of iterations =  2.0

     total cpu time spent up to now is        3.5 secs

     End of self-consistent calculation

          k = 0.0000 0.0000 0.0000 ( 22119 PWs)   bands (ev):

   -23.5855  -7.0378  -7.0035  -7.0012  -6.8955  -6.8580  -0.2072   0.6460

     the Fermi energy is    -6.8668 ev

!    total energy              =     -31.49261613 Ry
     Harris-Foulkes estimate   =     -31.49261611 Ry
     estimated scf accuracy    <          6.2E-09 Ry

     convergence has been achieved in  16 iterations

     Forces acting on atoms (Ry/au):

     atom    1 type  1   force =    -0.00053256   -0.00279877   -0.00074154
     atom    2 type  1   force =    -0.00017847    0.00003384   -0.00033190
     atom    3 type  2   force =     0.00071103    0.00276493    0.00107344

     Total force =     0.004256     Total SCF correction =     0.000100

     Entering Dynamics:    iteration =     3
                           time      =   0.0145 pico-seconds


     Andersen thermostat:    3 collisions

ATOMIC_POSITIONS (bohr)
H       15.027144167  10.171110063  11.728143960
H        9.513209669  18.397266367  18.027355329
O       13.950769693   2.919106405  10.050054195


     kinetic energy (Ekin) =     0.01691806 Ry
     temperature           =   890.38233201 K 
     Ekin + Etot (const)   =   -31.47569808 Ry
     Message from routine dynamics:
     Total linear momentum <> 0

     Linear momentum :    0.3047675616   -0.3500624036   -0.1369358232

     Writing output data file pwscf.save

     second order wave-functions extrapolation
     Check: negative starting charge=   -0.344495
     second order charge density extrapolation
     Check: negative starting charge=   -0.343621

     negative rho (up, down):  6.939E-02 0.000E+00

     total cpu time spent up to now is        3.8 secs

     per-process dynamical memory:    20.4 Mb

     Self-consistent Calculation

     iteration #  1     ecut=    30.00 Ry     beta=0.70
     Davidson diagonalization with overlap
     c_bands:  1 eigenvalues not converged
     ethr =  1.00E-06,  avg # of iterations = 20.0

     negative rho (up, down):  1.605E-02 0.000E+00

     total cpu time spent up to now is        3.9 secs

     total energy              =     -31.43519072 Ry
     Harris-Foulkes estimate   =     -31.43602356 Ry
     estimated scf accuracy    <       0.05426152 Ry

     iteration #  2     ecut=    30.00 Ry     beta=0.70
     Davidson diagonalization with overlap
     ethr =  6.78E-04,  avg # of iterations =  2.0

     negative rho (up, down):  1.463E-02 0.000E+00

     total cpu time spent up to now is        4.0 secs

     total energy              =     -31.48490903 Ry
     Harris-Foulkes estimate   =     -31.99447633 Ry
     estimated scf accuracy    <       4.30352266 Ry

     iteration #  3     ecut=    30.00 Ry     beta=0.70
     Davidson diagonalization with overlap
     ethr =  6.78E-04,  avg # of iterations =  2.0

     negative rho (up, down):  1.429E-02 0.000E+00

     total cpu time spent up to now is        4.0 secs

     total energy              =     -31.47938857 Ry
     Harris-Foulkes estimate   =     -31.50881996 Ry
     estimated scf accuracy    <       1.21468370 Ry

     iteration #  4     ecut=    30.00 Ry     beta=0.70
     Davidson diagonalization with overlap
     ethr =  6.78E-04,  avg # of iterations =  1.0

     negative rho (up, down):  1.024E-02 0.000E+00

     total cpu time spent up to now is        4.0 secs

     total energy              =     -31.41059740 Ry
     Harris-Foulkes estimate   =     -31.48974307 Ry
     estimated scf accuracy    <       1.04392146 Ry

     iteration #  5     ecut=    30.00 Ry     beta=0.70
     Davidson diagonalization with overlap
     ethr =  6.78E-04,  avg # of iterations =  1.0

     negative rho (up, down):  3.216E-03 0.000E+00

     total cpu time spent up to now is        4.1 secs

     total energy              =     -31.46365819 Ry
     Harris-Foulkes estimate   =     -31.55244877 Ry
     estimated scf accuracy    <       2.54673526 Ry

     iteration #  6     ecut=    30.00 Ry     beta=0.70
     Davidson diagonalization with overlap
     ethr =  6.78E-04,  avg # of iterations =  1.0

     negative rho (up, down):  8.923E-04 0.000E+00

     total cpu time spent up to now is        4.1 secs

     total energy              =     -31.49327772 Ry
     Harris-Foulkes estimate   =     -31.49119567 Ry
     estimated scf accuracy    <       0.01993323 Ry

     iteration #  7     ecut=    30.00 Ry     beta=0.70
     Davidson diagonalization with overlap
     ethr =  2.49E-04,  avg # of iterations =  4.0

     negative rho (up, down):  4.338E-04 0.000E+00

     total cpu time spent up to now is        4.1 secs

     total energy              =     -31.49374225 Ry
     Harris-Foulkes estimate   =     -31.49334817 Ry
     estimated scf accuracy    <       0.01591760 Ry

     iteration #  8     ecut=    30.00 Ry     beta=0.70
     Davidson diagonalization with overlap
     ethr =  1.99E-04,  avg # of iterations =  1.0

     negative rho (up, down):  2.791E-06 0.000E+00

     total cpu time spent up to now is        4.2 secs

     total energy              =     -31.49293997 Ry
     Harris-Foulkes estimate   =     -31.49387680 Ry
     estimated scf accuracy    <       0.05676552 Ry

     iteration #  9     ecut=    30.00 Ry     beta=0.70
     Davidson diagonalization with overlap
     ethr =  1.99E-04,  avg # of iterations =  1.0

     negative rho (up, down):  3.995E-08 0.000E+00

     total cpu time spent up to now is        4.2 secs

     total energy              =     -31.49323038 Ry
     Harris-Foulkes estimate   =     -31.49333101 Ry
     estimated scf accuracy    <       0.00193242 Ry

     iteration # 10     ecut=    30.00 Ry     beta=0.70
     Davidson diagonalization with overlap
     ethr =  2.42E-05,  avg # of iterations =  7.0

     total cpu time spent up to now is        4.2 secs

     total energy              =     -31.49337851 Ry
     Harris-Foulkes estimate   =     -31.49336943 Ry
     estimated scf accuracy    <       0.00566532 Ry

     iteration # 11     ecut=    30.00 Ry     beta=0.70
     Davidson diagonalization with overlap
     ethr =  2.42E-05,  avg # of iterations =  1.0

     total cpu time spent up to now is        4.3 secs

     total energy              =     -31.49314261 Ry
     Harris-Foulkes estimate   =     -31.49337971 Ry
     estimated scf accuracy    <       0.00698361 Ry

     iteration # 12     ecut=    30.00 Ry     beta=0.70
     Davidson diagonalization with overlap
     ethr =  2.42E-05,  avg # of iterations =  1.0

     total cpu time spent up to now is        4.3 secs

     total energy              =     -31.49329181 Ry
     Harris-Foulkes estimate   =     -31.49334464 Ry
     estimated scf accuracy    <       0.00343276 Ry

     iteration # 13     ecut=    30.00 Ry     beta=0.70
     Davidson diagonalization with overlap
     ethr =  2.42E-05,  avg # of iterations =  1.0

     total cpu time spent up to now is        4.3 secs

     total energy              =     -31.49330843 Ry
     Harris-Foulkes estimate   =     -31.49331152 Ry
     estimated scf accuracy    <       0.00021390 Ry

     iteration # 14     ecut=    30.00 Ry     beta=0.70
     Davidson diagonalization with overlap
     ethr =  2.67E-06,  avg # of iterations =  6.0

     total cpu time spent up to now is        4.4 secs

     total energy              =     -31.49330908 Ry
     Harris-Foulkes estimate   =     -31.49330952 Ry
     estimated scf accuracy    <       0.00001843 Ry

     iteration # 15     ecut=    30.00 Ry     beta=0.70
     Davidson diagonalization with overlap
     ethr =  2.30E-07,  avg # of iterations =  1.0

     total cpu time spent up to now is        4.4 secs

     End of self-consistent calculation

          k = 0.0000 0.0000 0.0000 ( 22119 PWs)   bands (ev):

   -23.5859  -7.0499  -7.0027  -7.0011  -6.8955  -6.8457  -0.2058   0.6426

     the Fermi energy is    -6.8666 ev

!    total energy              =     -31.49330918 Ry
     Harris-Foulkes estimate   =     -31.49330926 Ry
     estimated scf accuracy    <          2.7E-09 Ry

     convergence has been achieved in  15 iterations

     Forces acting on atoms (Ry/au):

     atom    1 type  1   force =    -0.00052355   -0.00299871   -0.00056821
     atom    2 type  1   force =     0.00007050   -0.00000999   -0.00004085
     atom    3 type  2   force =     0.00045305    0.00300869    0.00060907

     Total force =     0.004385     Total SCF correction =     0.001496
     SCF correction compared to forces is large: reduce conv_thr to get better values

     Entering Dynamics:    iteration =     4
                           time      =   0.0194 pico-seconds


     Andersen thermostat:    3 collisions

ATOMIC_POSITIONS (bohr)
H       15.009874130  10.002399324  11.631026721
H        9.317138322  18.062338396  17.831410956
O       13.964236868   2.950898599  10.068553709


     kinetic energy (Ekin) =     0.02011124 Ry
     temperature           =  1058.43661430 K 
     Ekin + Etot (const)   =   -31.47319794 Ry
     Message from routine dynamics:
     Total linear momentum <> 0

     Linear momentum :    0.6585480540    0.4524520681   -0.2987964083

     Writing output data file pwscf.save

     second order wave-functions extrapolation
     Check: negative starting charge=   -0.343621
     second order charge density extrapolation
     Check: negative starting charge=   -0.343891

     negative rho (up, down):  6.200E-02 0.000E+00

     total cpu time spent up to now is        4.7 secs

     per-process dynamical memory:    20.4 Mb

     Self-consistent Calculation

     iteration #  1     ecut=    30.00 Ry     beta=0.70
     Davidson diagonalization with overlap
     c_bands:  1 eigenvalues not converged
     ethr =  1.00E-06,  avg # of iterations = 20.0

     negative rho (up, down):  1.403E-02 0.000E+00

     total cpu time spent up to now is        4.8 secs

     total energy              =     -31.46012397 Ry
     Harris-Foulkes estimate   =     -31.44208866 Ry
     estimated scf accuracy    <       0.02620250 Ry

     iteration #  2     ecut=    30.00 Ry     beta=0.70
     Davidson diagonalization with overlap
     ethr =  3.28E-04,  avg # of iterations =  2.0

     negative rho (up, down):  1.310E-02 0.000E+00

     total cpu time spent up to now is        4.9 secs

     total energy              =     -31.46860671 Ry
     Harris-Foulkes estimate   =     -31.81975425 Ry
     estimated scf accuracy    <       3.98681828 Ry

     iteration #  3     ecut=    30.00 Ry     beta=0.70
     Davidson diagonalization with overlap
     ethr =  3.28E-04,  avg # of iterations =  2.0

     negative rho (up, down):  1.284E-02 0.000E+00

     total cpu time spent up to now is        5.0 secs

     total energy              =     -31.47973584 Ry
     Harris-Foulkes estimate   =     -31.48837442 Ry
     estimated scf accuracy    <       0.55151812 Ry

     iteration #  4     ecut=    30.00 Ry     beta=0.70
     Davidson diagonalization with overlap
     ethr =  3.28E-04,  avg # of iterations =  1.0

     negative rho (up, down):  3.475E-03 0.000E+00

     total cpu time spent up to now is        5.0 secs

     total energy              =     -31.47055344 Ry
     Harris-Foulkes estimate   =     -31.48362326 Ry
     estimated scf accuracy    <       0.21890316 Ry

     iteration #  5     ecut=    30.00 Ry     beta=0.70
     Davidson diagonalization with overlap
     ethr =  3.28E-04,  avg # of iterations =  1.0

     negative rho (up, down):  2.204E-03 0.000E+00

     total cpu time spent up to now is        5.0 secs

     total energy              =     -31.46601191 Ry
     Harris-Foulkes estimate   =     -31.52592143 Ry
     estimated scf accuracy    <       1.99337561 Ry

     iteration #  6     ecut=    30.00 Ry     beta=0.70
     Davidson diagonalization with overlap
     ethr =  3.28E-04,  avg # of iterations =  1.0

     negative rho (up, down):  4.764E-04 0.000E+00

     total cpu time spent up to now is        5.1 secs

     total energy              =     -31.49355493 Ry
     Harris-Foulkes estimate   =     -31.49279019 Ry
     estimated scf accuracy    <       0.01574527 Ry

     iteration #  7     ecut=    30.00 Ry     beta=0.70
     Davidson diagonalization with overlap
     ethr =  1.97E-04,  avg # of iterations =  5.0

     negative rho (up, down):  1.514E-04 0.000E+00

     total cpu time spent up to now is        5.1 secs

     total energy              =     -31.49389704 Ry
     Harris-Foulkes estimate   =     -31.49415096 Ry
     estimated scf accuracy    <       0.01388514 Ry

     iteration #  8     ecut=    30.00 Ry     beta=0.70
     Davidson diagonalization with overlap
     ethr =  1.74E-04,  avg # of iterations =  1.0

     negative rho (up, down):  1.018E-06 0.000E+00

     total cpu time spent up to now is        5.1 secs

     total energy              =     -31.49404881 Ry
     Harris-Foulkes estimate   =     -31.49402469 Ry
     estimated scf accuracy    <       0.00006369 Ry

     iteration #  9     ecut=    30.00 Ry     beta=0.70
     Davidson diagonalization with overlap
     ethr =  7.96E-07,  avg # of iterations = 14.0

     negative rho (up, down):  4.725E-08 0.000E+00

     total cpu time spent up to now is        5.2 secs

     total energy              =     -31.49404175 Ry
     Harris-Foulkes estimate   =     -31.49407956 Ry
     estimated scf accuracy    <       0.00358151 Ry

     iteration # 10     ecut=    30.00 Ry     beta=0.70
     Davidson diagonalization with overlap
     ethr =  7.96E-07,  avg # of iterations =  1.0

     total cpu time spent up to now is        5.2 secs

     total energy              =     -31.49403296 Ry
     Harris-Foulkes estimate   =     -31.49405370 Ry
     estimated scf accuracy    <       0.00064526 Ry

     iteration # 11     ecut=    30.00 Ry     beta=0.70
     Davidson diagonalization with overlap
     ethr =  7.96E-07,  avg # of iterations =  1.0

     total cpu time spent up to now is        5.2 secs

     total energy              =     -31.49404576 Ry
     Harris-Foulkes estimate   =     -31.49405332 Ry
     estimated scf accuracy    <       0.00041263 Ry

     iteration # 12     ecut=    30.00 Ry     beta=0.70
     Davidson diagonalization with overlap
     ethr =  7.96E-07,  avg # of iterations =  1.0

     total cpu time spent up to now is        5.3 secs

     total energy              =     -31.49404970 Ry
     Harris-Foulkes estimate   =     -31.49404911 Ry
     estimated scf accuracy    <       0.00000372 Ry

     iteration # 13     ecut=    30.00 Ry     beta=0.70
     Davidson diagonalization with overlap
     ethr =  4.65E-08,  avg # of iterations =  1.0

     total cpu time spent up to now is        5.3 secs

     End of self-consistent calculation

          k = 0.0000 0.0000 0.0000 ( 22119 PWs)   bands (ev):

   -23.5896  -7.0638  -7.0057  -7.0042  -6.8987  -6.8374  -0.2030   0.6456

     the Fermi energy is    -6.8697 ev

!    total energy              =     -31.49404988 Ry
     Harris-Foulkes estimate   =     -31.49404974 Ry
     estimated scf accuracy    <          8.4E-09 Ry

     convergence has been achieved in  13 iterations

     Forces acting on atoms (Ry/au):

     atom    1 type  1   force =    -0.00099114   -0.00347813   -0.00122375
     atom    2 type  1   force =    -0.00017680    0.00076029   -0.00032761
     atom    3 type  2   force =     0.00116794    0.00271784    0.00155136

     Total force =     0.005143     Total SCF correction =     0.001062
     SCF correction compared to forces is large: reduce conv_thr to get better values

     Entering Dynamics:    iteration =     5
                           time      =   0.0242 pico-seconds


     Andersen thermostat:    3 collisions

ATOMIC_POSITIONS (bohr)
H       14.815796836  10.258011794  11.922655015
H        8.780563590  18.286082786  17.549267841
O       14.010359277   2.920639197  10.067954957


     kinetic energy (Ekin) =     0.03158376 Ry
     temperature           =  1662.22519818 K 
     Ekin + Etot (const)   =   -31.46246611 Ry
     Message from routine dynamics:
     Total linear momentum <> 0

     Linear momentum :    0.2555715914    0.0401351917   -0.1541686132

     Writing output data file pwscf.save

     second order wave-functions extrapolation
     Check: negative starting charge=   -0.343891
     second order charge density extrapolation
     Check: negative starting charge=   -0.344989

     negative rho (up, down):  7.033E-02 0.000E+00

     total cpu time spent up to now is        5.6 secs

     per-process dynamical memory:    20.4 Mb

     Self-consistent Calculation

     iteration #  1     ecut=    30.00 Ry     beta=0.70
     Davidson diagonalization with overlap
     c_bands:  1 eigenvalues not converged
     ethr =  1.00E-06,  avg # of iterations = 20.0

     negative rho (up, down):  1.693E-02 0.000E+00

     total cpu time spent up to now is        5.8 secs

     total energy              =     -30.51722394 Ry
     Harris-Foulkes estimate   =     -31.69416442 Ry
     estimated scf accuracy    <       1.08920833 Ry

     iteration #  2     ecut=    30.00 Ry     beta=0.70
     Davidson diagonalization with overlap
     ethr =  1.00E-02,  avg # of iterations =  3.0

     negative rho (up, down):  1.334E-02 0.000E+00

     total cpu time spent up to now is        5.8 secs

     total energy              =     -31.53522538 Ry
     Harris-Foulkes estimate   =     -33.36735410 Ry
     estimated scf accuracy    <       5.58679603 Ry

     iteration #  3     ecut=    30.00 Ry     beta=0.70
     Davidson diagonalization with overlap
     ethr =  1.00E-02,  avg # of iterations =  2.0

     negative rho (up, down):  1.119E-02 0.000E+00

     total cpu time spent up to now is        5.8 secs

     total energy              =     -31.79299369 Ry
     Harris-Foulkes estimate   =     -32.31552886 Ry
     estimated scf accuracy    <       2.24739917 Ry

     iteration #  4     ecut=    30.00 Ry     beta=0.70
     Davidson diagonalization with overlap
     ethr =  1.00E-02,  avg # of iterations =  1.0

     negative rho (up, down):  1.068E-02 0.000E+00

     total cpu time spent up to now is        5.9 secs

     total energy              =     -31.71897084 Ry
     Harris-Foulkes estimate   =     -31.80475922 Ry
     estimated scf accuracy    <       1.48642519 Ry

     iteration #  5     ecut=    30.00 Ry     beta=0.70
     Davidson diagonalization with overlap
     ethr =  1.00E-02,  avg # of iterations =  1.0

     negative rho (up, down):  8.968E-03 0.000E+00

     total cpu time spent up to now is        5.9 secs

     total energy              =     -31.57255771 Ry
     Harris-Foulkes estimate   =     -31.76650020 Ry
     estimated scf accuracy    <       2.27771848 Ry

     iteration #  6     ecut=    30.00 Ry     beta=0.70
     Davidson diagonalization with overlap
     ethr =  1.00E-02,  avg # of iterations =  3.0

     negative rho (up, down):  5.099E-03 0.000E+00

     total cpu time spent up to now is        5.9 secs

     total energy              =     -31.27654047 Ry
     Harris-Foulkes estimate   =     -31.57563220 Ry
     estimated scf accuracy    <       1.29196762 Ry

     iteration #  7     ecut=    30.00 Ry     beta=0.70
     Davidson diagonalization with overlap
     ethr =  1.00E-02,  avg # of iterations =  2.0

     negative rho (up, down):  4.173E-03 0.000E+00

     total cpu time spent up to now is        5.9 secs

     total energy              =     -31.56648370 Ry
     Harris-Foulkes estimate   =     -31.84718569 Ry
     estimated scf accuracy    <       1.53841346 Ry

     iteration #  8     ecut=    30.00 Ry     beta=0.70
     Davidson diagonalization with overlap
     ethr =  1.00E-02,  avg # of iterations =  1.0

     negative rho (up, down):  4.417E-03 0.000E+00

     total cpu time spent up to now is        6.0 secs

     total energy              =     -31.50691803 Ry
     Harris-Foulkes estimate   =     -31.57267190 Ry
     estimated scf accuracy    <       1.03378218 Ry

     iteration #  9     ecut=    30.00 Ry     beta=0.70
     Davidson diagonalization with overlap
     ethr =  1.00E-02,  avg # of iterations =  1.0

     negative rho (up, down):  4.355E-03 0.000E+00

     total cpu time spent up to now is        6.0 secs

     total energy              =     -31.51065928 Ry
     Harris-Foulkes estimate   =     -31.50427170 Ry
     estimated scf accuracy    <       0.69946939 Ry

     iteration # 10     ecut=    30.00 Ry     beta=0.70
     Davidson diagonalization with overlap
     ethr =  8.74E-03,  avg # of iterations =  1.0

     negative rho (up, down):  1.526E-02 0.000E+00

     total cpu time spent up to now is        6.1 secs

     total energy              =     -31.75220329 Ry
     Harris-Foulkes estimate   =     -31.51144000 Ry
     estimated scf accuracy    <       0.99536108 Ry

     iteration # 11     ecut=    30.00 Ry     beta=0.70
     Davidson diagonalization with overlap
     ethr =  8.74E-03,  avg # of iterations =  1.0

     negative rho (up, down):  1.795E-02 0.000E+00

     total cpu time spent up to now is        6.1 secs

     total energy              =     -31.75321811 Ry
     Harris-Foulkes estimate   =     -31.75358917 Ry
     estimated scf accuracy    <       1.37361910 Ry

     iteration # 12     ecut=    30.00 Ry     beta=0.70
     Davidson diagonalization with overlap
     ethr =  8.74E-03,  avg # of iterations =  1.0

     negative rho (up, down):  1.612E-02 0.000E+00

     total cpu time spent up to now is        6.1 secs

     total energy              =     -31.81051132 Ry
     Harris-Foulkes estimate   =     -31.78381954 Ry
     estimated scf accuracy    <       4.07446855 Ry

     iteration # 13     ecut=    30.00 Ry     beta=0.70
     Davidson diagonalization with overlap
     ethr =  8.74E-03,  avg # of iterations =  1.0

     negative rho (up, down):  2.546E-02 0.000E+00

     total cpu time spent up to now is        6.2 secs

     total energy              =     -31.94860056 Ry
     Harris-Foulkes estimate   =     -31.82207657 Ry
     estimated scf accuracy    <       1.97884398 Ry

     iteration # 14     ecut=    30.00 Ry     beta=0.70
     Davidson diagonalization with overlap
     ethr =  8.74E-03,  avg # of iterations =  1.0

     negative rho (up, down):  4.245E-02 0.000E+00

     total cpu time spent up to now is        6.2 secs

     total energy              =     -31.90452279 Ry
     Harris-Foulkes estimate   =     -31.95446657 Ry
     estimated scf accuracy    <       1.67021980 Ry

     iteration # 15     ecut=    30.00 Ry     beta=0.70
     Davidson diagonalization with overlap
     ethr =  8.74E-03,  avg # of iterations =  1.0

     negative rho (up, down):  5.362E-02 0.000E+00

     total cpu time spent up to now is        6.2 secs

     total energy              =     -31.94356383 Ry
     Harris-Foulkes estimate   =     -31.90639147 Ry
     estimated scf accuracy    <       1.87003619 Ry

     iteration # 16     ecut=    30.00 Ry     beta=0.70
     Davidson diagonalization with overlap
     ethr =  8.74E-03,  avg # of iterations =  1.0

     negative rho (up, down):  7.660E-02 0.000E+00

     total cpu time spent up to now is        6.3 secs

     total energy              =     -32.02912898 Ry
     Harris-Foulkes estimate   =     -31.94386719 Ry
     estimated scf accuracy    <       1.81370667 Ry

     iteration # 17     ecut=    30.00 Ry     beta=0.70
     Davidson diagonalization with overlap
     ethr =  8.74E-03,  avg # of iterations =  1.0

     negative rho (up, down):  2.992E-02 0.000E+00

     total cpu time spent up to now is        6.3 secs

     total energy              =     -31.96325922 Ry
     Harris-Foulkes estimate   =     -32.03046391 Ry
     estimated scf accuracy    <       1.80709048 Ry

     iteration # 18     ecut=    30.00 Ry     beta=0.70
     Davidson diagonalization with overlap
     ethr =  8.74E-03,  avg # of iterations =  1.0

     negative rho (up, down):  3.891E-02 0.000E+00

     total cpu time spent up to now is        6.3 secs

     total energy              =     -30.64547458 Ry
     Harris-Foulkes estimate   =     -31.96535916 Ry
     estimated scf accuracy    <       1.99729819 Ry

     iteration # 19     ecut=    30.00 Ry     beta=0.70
     Davidson diagonalization with overlap
     ethr =  8.74E-03,  avg # of iterations =  4.0

     negative rho (up, down):  1.167E-05 0.000E+00

     total cpu time spent up to now is        6.4 secs

     total energy              =     -31.94885582 Ry
     Harris-Foulkes estimate   =     -33.12088055 Ry
     estimated scf accuracy    <       4.11211897 Ry

     iteration # 20     ecut=    30.00 Ry     beta=0.70
     Davidson diagonalization with overlap
     ethr =  8.74E-03,  avg # of iterations =  1.0

     negative rho (up, down):  1.469E-07 0.000E+00

     total cpu time spent up to now is        6.4 secs

     total energy              =     -31.72922773 Ry
     Harris-Foulkes estimate   =     -31.97412735 Ry
     estimated scf accuracy    <       1.32307712 Ry

     iteration # 21     ecut=    30.00 Ry     beta=0.70
     Davidson diagonalization with overlap
     ethr =  8.74E-03,  avg # of iterations =  1.0

     negative rho (up, down):  2.456E-07 0.000E+00

     total cpu time spent up to now is        6.4 secs

     total energy              =     -31.41961699 Ry
     Harris-Foulkes estimate   =     -31.73122045 Ry
     estimated scf accuracy    <       1.01444587 Ry

     iteration # 22     ecut=    30.00 Ry     beta=0.70
     Davidson diagonalization with overlap
     ethr =  8.74E-03,  avg # of iterations =  4.0

     negative rho (up, down):  6.055E-07 0.000E+00

     total cpu time spent up to now is        6.5 secs

     total energy              =     -31.38240744 Ry
     Harris-Foulkes estimate   =     -31.55569803 Ry
     estimated scf accuracy    <       1.12421689 Ry

     iteration # 23     ecut=    30.00 Ry     beta=0.70
     Davidson diagonalization with overlap
     ethr =  8.74E-03,  avg # of iterations =  1.0

     negative rho (up, down):  3.506E-08 0.000E+00

     total cpu time spent up to now is        6.5 secs

     total energy              =     -31.49310969 Ry
     Harris-Foulkes estimate   =     -31.57059459 Ry
     estimated scf accuracy    <       0.79702454 Ry

     iteration # 24     ecut=    30.00 Ry     beta=0.70
     Davidson diagonalization with overlap
     ethr =  8.74E-03,  avg # of iterations =  1.0

     negative rho (up, down):  2.637E-08 0.000E+00

     total cpu time spent up to now is        6.5 secs

     total energy              =     -31.49645987 Ry
     Harris-Foulkes estimate   =     -31.49710201 Ry
     estimated scf accuracy    <       0.23059626 Ry

     iteration # 25     ecut=    30.00 Ry     beta=0.70
     Davidson diagonalization with overlap
     ethr =  2.88E-03,  avg # of iterations =  1.0

     negative rho (up, down):  4.354E-07 0.000E+00

     total cpu time spent up to now is        6.7 secs

     total energy              =     -31.51067137 Ry
     Harris-Foulkes estimate   =     -31.49650661 Ry
     estimated scf accuracy    <       0.19735737 Ry

     iteration # 26     ecut=    30.00 Ry     beta=0.70
     Davidson diagonalization with overlap
     ethr =  2.47E-03,  avg # of iterations =  1.0

     negative rho (up, down):  1.970E-07 0.000E+00

     total cpu time spent up to now is        6.7 secs

     total energy              =     -31.44479706 Ry
     Harris-Foulkes estimate   =     -31.51825547 Ry
     estimated scf accuracy    <       0.68591873 Ry

     iteration # 27     ecut=    30.00 Ry     beta=0.70
     Davidson diagonalization with overlap
     ethr =  2.47E-03,  avg # of iterations =  1.0

     negative rho (up, down):  1.395E-07 0.000E+00

     total cpu time spent up to now is        6.7 secs

     total energy              =     -31.48773594 Ry
     Harris-Foulkes estimate   =     -31.52736936 Ry
     estimated scf accuracy    <       1.37270975 Ry

     iteration # 28     ecut=    30.00 Ry     beta=0.70
     Davidson diagonalization with overlap
     ethr =  2.47E-03,  avg # of iterations =  1.0

     total cpu time spent up to now is        6.8 secs

     total energy              =     -31.49801539 Ry
     Harris-Foulkes estimate   =     -31.49543548 Ry
     estimated scf accuracy    <       0.18898764 Ry

     iteration # 29     ecut=    30.00 Ry     beta=0.70
     Davidson diagonalization with overlap
     ethr =  2.36E-03,  avg # of iterations =  1.0

     total cpu time spent up to now is        6.8 secs

     total energy              =     -31.49486952 Ry
     Harris-Foulkes estimate   =     -31.49868497 Ry
     estimated scf accuracy    <       0.42542060 Ry

     iteration # 30     ecut=    30.00 Ry     beta=0.70
     Davidson diagonalization with overlap
     ethr =  2.36E-03,  avg # of iterations =  1.0

     total cpu time spent up to now is        6.8 secs

     total energy              =     -31.48593823 Ry
     Harris-Foulkes estimate   =     -31.49549364 Ry
     estimated scf accuracy    <       0.18911003 Ry

     iteration # 31     ecut=    30.00 Ry     beta=0.70
     Davidson diagonalization with overlap
     ethr =  2.36E-03,  avg # of iterations =  1.0

     total cpu time spent up to now is        6.9 secs

     total energy              =     -31.49471771 Ry
     Harris-Foulkes estimate   =     -31.49540083 Ry
     estimated scf accuracy    <       0.15261267 Ry

     iteration # 32     ecut=    30.00 Ry     beta=0.70
     Davidson diagonalization with overlap
     ethr =  1.91E-03,  avg # of iterations =  1.0

     total cpu time spent up to now is        6.9 secs

     total energy              =     -31.49280525 Ry
     Harris-Foulkes estimate   =     -31.49476384 Ry
     estimated scf accuracy    <       0.11375188 Ry

     iteration # 33     ecut=    30.00 Ry     beta=0.70
     Davidson diagonalization with overlap
     ethr =  1.42E-03,  avg # of iterations =  1.0

     total cpu time spent up to now is        6.9 secs

     total energy              =     -31.49363523 Ry
     Harris-Foulkes estimate   =     -31.49335947 Ry
     estimated scf accuracy    <       0.01931026 Ry

     iteration # 34     ecut=    30.00 Ry     beta=0.70
     Davidson diagonalization with overlap
     ethr =  2.41E-04,  avg # of iterations =  1.0

     total cpu time spent up to now is        7.0 secs

     total energy              =     -31.49237687 Ry
     Harris-Foulkes estimate   =     -31.49370285 Ry
     estimated scf accuracy    <       0.04342306 Ry

     iteration # 35     ecut=    30.00 Ry     beta=0.70
     Davidson diagonalization with overlap
     ethr =  2.41E-04,  avg # of iterations =  1.0

     total cpu time spent up to now is        7.0 secs

     total energy              =     -31.49307580 Ry
     Harris-Foulkes estimate   =     -31.49310445 Ry
     estimated scf accuracy    <       0.00078592 Ry

     iteration # 36     ecut=    30.00 Ry     beta=0.70
     Davidson diagonalization with overlap
     ethr =  9.82E-06,  avg # of iterations =  9.0

     total cpu time spent up to now is        7.1 secs

     total energy              =     -31.49308227 Ry
     Harris-Foulkes estimate   =     -31.49309801 Ry
     estimated scf accuracy    <       0.00019900 Ry

     iteration # 37     ecut=    30.00 Ry     beta=0.70
     Davidson diagonalization with overlap
     ethr =  2.49E-06,  avg # of iterations =  6.0

     total cpu time spent up to now is        7.2 secs

     total energy              =     -31.49309211 Ry
     Harris-Foulkes estimate   =     -31.49309987 Ry
     estimated scf accuracy    <       0.00050615 Ry

     iteration # 38     ecut=    30.00 Ry     beta=0.70
     Davidson diagonalization with overlap
     ethr =  2.49E-06,  avg # of iterations =  1.0

     total cpu time spent up to now is        7.2 secs

     total energy              =     -31.49309384 Ry
     Harris-Foulkes estimate   =     -31.49309431 Ry
     estimated scf accuracy    <       0.00008658 Ry

     iteration # 39     ecut=    30.00 Ry     beta=0.70
     Davidson diagonalization with overlap
     ethr =  1.08E-06,  avg # of iterations =  1.0

     total cpu time spent up to now is        7.3 secs

     total energy              =     -31.49309362 Ry
     Harris-Foulkes estimate   =     -31.49309395 Ry
     estimated scf accuracy    <       0.00004045 Ry

     iteration # 40     ecut=    30.00 Ry     beta=0.70
     Davidson diagonalization with overlap
     ethr =  5.06E-07,  avg # of iterations =  1.0

     total cpu time spent up to now is        7.3 secs

     total energy              =     -31.49309378 Ry
     Harris-Foulkes estimate   =     -31.49309377 Ry
     estimated scf accuracy    <       0.00001302 Ry

     iteration # 41     ecut=    30.00 Ry     beta=0.70
     Davidson diagonalization with overlap
     ethr =  1.63E-07,  avg # of iterations =  1.0

     total cpu time spent up to now is        7.4 secs

     total energy              =     -31.49309376 Ry
     Harris-Foulkes estimate   =     -31.49309386 Ry
     estimated scf accuracy    <       0.00000124 Ry

     iteration # 42     ecut=    30.00 Ry     beta=0.70
     Davidson diagonalization with overlap
     ethr =  1.55E-08,  avg # of iterations =  1.0

     total cpu time spent up to now is        7.4 secs

     total energy              =     -31.49309380 Ry
     Harris-Foulkes estimate   =     -31.49309378 Ry
     estimated scf accuracy    <       0.00000009 Ry

     iteration # 43     ecut=    30.00 Ry     beta=0.70
     Davidson diagonalization with overlap
     ethr =  1.08E-09,  avg # of iterations =  1.0

     total cpu time spent up to now is        7.4 secs

     End of self-consistent calculation

          k = 0.0000 0.0000 0.0000 ( 22119 PWs)   bands (ev):

   -23.5878  -7.0481  -7.0044  -7.0030  -6.8975  -6.8510  -0.2070   0.6416

     the Fermi energy is    -6.8684 ev

!    total energy              =     -31.49309383 Ry
     Harris-Foulkes estimate   =     -31.49309380 Ry
     estimated scf accuracy    <          6.3E-09 Ry

     convergence has been achieved in  43 iterations

     Forces acting on atoms (Ry/au):

     atom    1 type  1   force =    -0.00040069   -0.00272817   -0.00090254
     atom    2 type  1   force =     0.00000008    0.00019212   -0.00031652
     atom    3 type  2   force =     0.00040060    0.00253604    0.00121906

     Total force =     0.004078     Total SCF correction =     0.000077

     Entering Dynamics:    iteration =     6
                           time      =   0.0290 pico-seconds


     Andersen thermostat:    3 collisions

ATOMIC_POSITIONS (bohr)
H       14.785999008   9.641057138  11.794467182
H        8.413784784  18.071064221  17.896229736
O       14.035393177   2.973157507  10.054144845


     kinetic energy (Ekin) =     0.03453133 Ry
     temperature           =  1817.35308872 K 
     Ekin + Etot (const)   =   -31.45856250 Ry
     Message from routine dynamics:
     Total linear momentum <> 0

     Linear momentum :    0.0271839412   -0.0722010692   -0.2133873842

     Writing output data file pwscf.save

     second order wave-functions extrapolation
     Check: negative starting charge=   -0.344989
     second order charge density extrapolation
     Check: negative starting charge=   -0.344309

     negative rho (up, down):  8.847E-02 0.000E+00

     total cpu time spent up to now is        7.9 secs

     per-process dynamical memory:    20.4 Mb

     Self-consistent Calculation

     iteration #  1     ecut=    30.00 Ry     beta=0.70
     Davidson diagonalization with overlap
     ethr =  1.00E-06,  avg # of iterations = 11.0

     negative rho (up, down):  1.768E-02 0.000E+00

     total cpu time spent up to now is        8.0 secs

     total energy              =      -4.85889884 Ry
     Harris-Foulkes estimate   =     -69.22134418 Ry
     estimated scf accuracy    <       5.61417773 Ry

     iteration #  2     ecut=    30.00 Ry     beta=0.70
     Davidson diagonalization with overlap
     ethr =  1.00E-02,  avg # of iterations =  3.0

     negative rho (up, down):  1.177E-02 0.000E+00

     total cpu time spent up to now is        8.1 secs

     total energy              =     -31.50373358 Ry
     Harris-Foulkes estimate   =     -35.19853000 Ry
     estimated scf accuracy    <       7.72115355 Ry

     iteration #  3     ecut=    30.00 Ry     beta=0.70
     Davidson diagonalization with overlap
     ethr =  1.00E-02,  avg # of iterations =  3.0

     negative rho (up, down):  6.140E-03 0.000E+00

     total cpu time spent up to now is        8.1 secs

     total energy              =     -32.08193740 Ry
     Harris-Foulkes estimate   =     -33.24354732 Ry
     estimated scf accuracy    <       4.01823858 Ry

     iteration #  4     ecut=    30.00 Ry     beta=0.70
     Davidson diagonalization with overlap
     ethr =  1.00E-02,  avg # of iterations =  3.0

     negative rho (up, down):  6.692E-03 0.000E+00

     total cpu time spent up to now is        8.1 secs

     total energy              =     -32.04755769 Ry
     Harris-Foulkes estimate   =     -32.21166278 Ry
     estimated scf accuracy    <       2.05949139 Ry

     iteration #  5     ecut=    30.00 Ry     beta=0.70
     Davidson diagonalization with overlap
     ethr =  1.00E-02,  avg # of iterations =  1.0

     negative rho (up, down):  1.486E-02 0.000E+00

     total cpu time spent up to now is        8.2 secs

     total energy              =     -31.08833337 Ry
     Harris-Foulkes estimate   =     -32.04995583 Ry
     estimated scf accuracy    <       1.79672817 Ry

     iteration #  6     ecut=    30.00 Ry     beta=0.70
     Davidson diagonalization with overlap
     ethr =  1.00E-02,  avg # of iterations =  2.0

     negative rho (up, down):  5.761E-03 0.000E+00

     total cpu time spent up to now is        8.2 secs

     total energy              =     -31.44247120 Ry
     Harris-Foulkes estimate   =     -32.19644563 Ry
     estimated scf accuracy    <       2.08049777 Ry

     iteration #  7     ecut=    30.00 Ry     beta=0.70
     Davidson diagonalization with overlap
     ethr =  1.00E-02,  avg # of iterations =  2.0

     negative rho (up, down):  5.757E-03 0.000E+00

     total cpu time spent up to now is        8.2 secs

     total energy              =     -31.88856883 Ry
     Harris-Foulkes estimate   =     -31.89217457 Ry
     estimated scf accuracy    <       3.06083572 Ry

     iteration #  8     ecut=    30.00 Ry     beta=0.70
     Davidson diagonalization with overlap
     ethr =  1.00E-02,  avg # of iterations =  1.0

     negative rho (up, down):  5.776E-03 0.000E+00

     total cpu time spent up to now is        8.3 secs

     total energy              =     -31.86800229 Ry
     Harris-Foulkes estimate   =     -31.88863293 Ry
     estimated scf accuracy    <       3.05672740 Ry

     iteration #  9     ecut=    30.00 Ry     beta=0.70
     Davidson diagonalization with overlap
     ethr =  1.00E-02,  avg # of iterations =  1.0

     negative rho (up, down):  7.686E-03 0.000E+00

     total cpu time spent up to now is        8.3 secs

     total energy              =     -31.48202451 Ry
     Harris-Foulkes estimate   =     -31.86801199 Ry
     estimated scf accuracy    <       3.03132125 Ry

     iteration # 10     ecut=    30.00 Ry     beta=0.70
     Davidson diagonalization with overlap
     ethr =  1.00E-02,  avg # of iterations =  2.0

     negative rho (up, down):  5.837E-02 0.000E+00

     total cpu time spent up to now is        8.3 secs

     total energy              =     -32.89947191 Ry
     Harris-Foulkes estimate   =     -32.21367707 Ry
     estimated scf accuracy    <       2.19812353 Ry

     iteration # 11     ecut=    30.00 Ry     beta=0.70
     Davidson diagonalization with overlap
     ethr =  1.00E-02,  avg # of iterations =  1.0

     negative rho (up, down):  2.625E-01 0.000E+00

     total cpu time spent up to now is        8.4 secs

     total energy              =     -33.94808093 Ry
     Harris-Foulkes estimate   =     -32.90871090 Ry
     estimated scf accuracy    <       3.74770427 Ry

     iteration # 12     ecut=    30.00 Ry     beta=0.70
     Davidson diagonalization with overlap
     ethr =  1.00E-02,  avg # of iterations =  3.0

     negative rho (up, down):  7.014E-02 0.000E+00

     total cpu time spent up to now is        8.4 secs

     total energy              =     -32.94014263 Ry
     Harris-Foulkes estimate   =     -33.97221164 Ry
     estimated scf accuracy    <       4.78930157 Ry

     iteration # 13     ecut=    30.00 Ry     beta=0.70
     Davidson diagonalization with overlap
     ethr =  1.00E-02,  avg # of iterations =  1.0

     negative rho (up, down):  1.749E-01 0.000E+00

     total cpu time spent up to now is        8.4 secs

     total energy              =     -33.31815667 Ry
     Harris-Foulkes estimate   =     -32.95733760 Ry
     estimated scf accuracy    <       3.85105643 Ry

     iteration # 14     ecut=    30.00 Ry     beta=0.70
     Davidson diagonalization with overlap
     ethr =  1.00E-02,  avg # of iterations =  1.0

     negative rho (up, down):  8.541E-02 0.000E+00

     total cpu time spent up to now is        8.5 secs

     total energy              =     -31.64323427 Ry
     Harris-Foulkes estimate   =     -33.32519033 Ry
     estimated scf accuracy    <       4.34810008 Ry

     iteration # 15     ecut=    30.00 Ry     beta=0.70
     Davidson diagonalization with overlap
     ethr =  1.00E-02,  avg # of iterations =  7.0

     negative rho (up, down):  4.889E-02 0.000E+00

     total cpu time spent up to now is        8.5 secs

     total energy              =     -31.77733079 Ry
     Harris-Foulkes estimate   =     -33.79089944 Ry
     estimated scf accuracy    <      15.26766606 Ry

     iteration # 16     ecut=    30.00 Ry     beta=0.70
     Davidson diagonalization with overlap
     ethr =  1.00E-02,  avg # of iterations =  3.0

     negative rho (up, down):  7.534E-02 0.000E+00

     total cpu time spent up to now is        8.5 secs

     total energy              =     -31.60273376 Ry
     Harris-Foulkes estimate   =     -32.33264556 Ry
     estimated scf accuracy    <       4.98270659 Ry

     iteration # 17     ecut=    30.00 Ry     beta=0.70
     Davidson diagonalization with overlap
     ethr =  1.00E-02,  avg # of iterations =  4.0

     negative rho (up, down):  4.992E-02 0.000E+00

     total cpu time spent up to now is        8.6 secs

     total energy              =     -31.56372996 Ry
     Harris-Foulkes estimate   =     -31.69621192 Ry
     estimated scf accuracy    <       1.29928802 Ry

     iteration # 18     ecut=    30.00 Ry     beta=0.70
     Davidson diagonalization with overlap
     ethr =  1.00E-02,  avg # of iterations =  1.0

     negative rho (up, down):  2.078E-01 0.000E+00

     total cpu time spent up to now is        8.6 secs

     total energy              =     -31.17418261 Ry
     Harris-Foulkes estimate   =     -31.58476008 Ry
     estimated scf accuracy    <       2.01772457 Ry

     iteration # 19     ecut=    30.00 Ry     beta=0.70
     Davidson diagonalization with overlap
     ethr =  1.00E-02,  avg # of iterations =  2.0

     negative rho (up, down):  7.624E-02 0.000E+00

     total cpu time spent up to now is        8.6 secs

     total energy              =     -31.59004568 Ry
     Harris-Foulkes estimate   =     -32.37266580 Ry
     estimated scf accuracy    <       2.30222602 Ry

     iteration # 20     ecut=    30.00 Ry     beta=0.70
     Davidson diagonalization with overlap
     ethr =  1.00E-02,  avg # of iterations =  1.0

     negative rho (up, down):  8.367E-03 0.000E+00

     total cpu time spent up to now is        8.7 secs

     total energy              =     -31.09339859 Ry
     Harris-Foulkes estimate   =     -31.60347265 Ry
     estimated scf accuracy    <       0.98725892 Ry

     iteration # 21     ecut=    30.00 Ry     beta=0.70
     Davidson diagonalization with overlap
     ethr =  1.00E-02,  avg # of iterations =  2.0

     negative rho (up, down):  1.496E-05 0.000E+00

     total cpu time spent up to now is        8.7 secs

     total energy              =     -31.67511863 Ry
     Harris-Foulkes estimate   =     -32.06902708 Ry
     estimated scf accuracy    <       1.84868274 Ry

     iteration # 22     ecut=    30.00 Ry     beta=0.70
     Davidson diagonalization with overlap
     ethr =  1.00E-02,  avg # of iterations =  1.0

     negative rho (up, down):  4.830E-03 0.000E+00

     total cpu time spent up to now is        8.7 secs

[...]
     Harris-Foulkes estimate   =     -56.21541567 Ry
     estimated scf accuracy    <      38.33362909 Ry

     iteration # 59     ecut=    30.00 Ry     beta=0.70
     Davidson diagonalization with overlap
     ethr =  7.77E-03,  avg # of iterations =  1.0

     negative rho (up, down):  7.719E-02 0.000E+00

     total cpu time spent up to now is       22.6 secs

     total energy              =     -52.78784243 Ry
     Harris-Foulkes estimate   =     -55.52658552 Ry
     estimated scf accuracy    <      37.31306656 Ry

     iteration # 60     ecut=    30.00 Ry     beta=0.70
     Davidson diagonalization with overlap
     ethr =  7.77E-03,  avg # of iterations =  1.0

     negative rho (up, down):  1.530E-03 0.000E+00

     total cpu time spent up to now is       22.6 secs

     total energy              =     -51.99956362 Ry
     Harris-Foulkes estimate   =     -52.80840775 Ry
     estimated scf accuracy    <      33.06819956 Ry

     iteration # 61     ecut=    30.00 Ry     beta=0.70
     Davidson diagonalization with overlap
     ethr =  7.77E-03,  avg # of iterations =  1.0

     negative rho (up, down):  3.839E-02 0.000E+00

     total cpu time spent up to now is       22.7 secs

     total energy              =     -51.08942908 Ry
     Harris-Foulkes estimate   =     -52.00901058 Ry
     estimated scf accuracy    <      32.73103235 Ry

     iteration # 62     ecut=    30.00 Ry     beta=0.70
     Davidson diagonalization with overlap
     ethr =  7.77E-03,  avg # of iterations =  4.0

     negative rho (up, down):  7.439E-03 0.000E+00

     total cpu time spent up to now is       22.7 secs

     total energy              =      29.92888508 Ry
     Harris-Foulkes estimate   =    -730.40678836 Ry
     estimated scf accuracy    <      14.41352630 Ry

     iteration # 63     ecut=    30.00 Ry     beta=0.70
     Davidson diagonalization with overlap
     ethr =  7.77E-03,  avg # of iterations =  5.0

     negative rho (up, down):  4.202E-02 0.000E+00

     total cpu time spent up to now is       22.8 secs

     total energy              =     -17.17895902 Ry
     Harris-Foulkes estimate   =    -134.36978094 Ry
     estimated scf accuracy    <      19.85425449 Ry

     iteration # 64     ecut=    30.00 Ry     beta=0.70
     Davidson diagonalization with overlap
     ethr =  7.77E-03,  avg # of iterations =  9.0

     negative rho (up, down):  2.074E-01 0.000E+00

     total cpu time spent up to now is       22.8 secs

     total energy              =      66.80600550 Ry
     Harris-Foulkes estimate   =    -346.29793342 Ry
     estimated scf accuracy    <      21.13056523 Ry

     iteration # 65     ecut=    30.00 Ry     beta=0.70
     Davidson diagonalization with overlap
     ethr =  7.77E-03,  avg # of iterations =  8.0

     negative rho (up, down):  6.550E-05 0.000E+00

     total cpu time spent up to now is       22.9 secs

     total energy              =      81.93206099 Ry
     Harris-Foulkes estimate   =    -217.68765870 Ry
     estimated scf accuracy    <      26.86722997 Ry

     iteration # 66     ecut=    30.00 Ry     beta=0.70
     Davidson diagonalization with overlap
     ethr =  7.77E-03,  avg # of iterations = 10.0

     negative rho (up, down):  3.493E-02 0.000E+00

     total cpu time spent up to now is       22.9 secs

     total energy              =     -44.75944089 Ry
     Harris-Foulkes estimate   =     -46.50277252 Ry
     estimated scf accuracy    <      24.63422695 Ry

     iteration # 67     ecut=    30.00 Ry     beta=0.70
     Davidson diagonalization with overlap
     ethr =  7.77E-03,  avg # of iterations =  8.0

     negative rho (up, down):  3.200E-01 0.000E+00

     total cpu time spent up to now is       23.0 secs

     total energy              =     -61.63566398 Ry
     Harris-Foulkes estimate   =   -2624.71931410 Ry
     estimated scf accuracy    <      25.43218980 Ry

     iteration # 68     ecut=    30.00 Ry     beta=0.70
     Davidson diagonalization with overlap
     ethr =  7.77E-03,  avg # of iterations =  6.0

     negative rho (up, down):  3.452E-01 0.000E+00

     total cpu time spent up to now is       23.1 secs

     total energy              =    -217.77815172 Ry
     Harris-Foulkes estimate   =    -518.98288256 Ry
     estimated scf accuracy    <      29.08925778 Ry

     iteration # 69     ecut=    30.00 Ry     beta=0.70
     Davidson diagonalization with overlap
     ethr =  7.77E-03,  avg # of iterations =  5.0

     negative rho (up, down):  2.757E-01 0.000E+00

     total cpu time spent up to now is       23.1 secs

     total energy              =    -621.14926830 Ry
     Harris-Foulkes estimate   =   -1966.95605643 Ry
     estimated scf accuracy    <      24.95484616 Ry

     iteration # 70     ecut=    30.00 Ry     beta=0.70
     Davidson diagonalization with overlap
     ethr =  7.77E-03,  avg # of iterations = 10.0

     negative rho (up, down):  1.425E-04 0.000E+00

     total cpu time spent up to now is       23.2 secs

     total energy              =     107.09251917 Ry
     Harris-Foulkes estimate   =   -1960.25037169 Ry
     estimated scf accuracy    <      25.47917227 Ry

     iteration # 71     ecut=    30.00 Ry     beta=0.70
     Davidson diagonalization with overlap
     ethr =  7.77E-03,  avg # of iterations = 12.0

     negative rho (up, down):  7.587E-02 0.000E+00

     total cpu time spent up to now is       23.2 secs

     total energy              =     -39.54564892 Ry
     Harris-Foulkes estimate   =     -43.77540018 Ry
     estimated scf accuracy    <      20.61916125 Ry

     iteration # 72     ecut=    30.00 Ry     beta=0.70
     Davidson diagonalization with overlap
     ethr =  7.77E-03,  avg # of iterations =  9.0

     negative rho (up, down):  8.098E-02 0.000E+00

     total cpu time spent up to now is       23.3 secs

     total energy              =    -131.83814704 Ry
     Harris-Foulkes estimate   =   -1262.85040362 Ry
     estimated scf accuracy    <      47.11757337 Ry

     iteration # 73     ecut=    30.00 Ry     beta=0.70
     Davidson diagonalization with overlap
     ethr =  7.77E-03,  avg # of iterations =  5.0

     negative rho (up, down):  1.498E-01 0.000E+00

     total cpu time spent up to now is       23.3 secs

     total energy              =    -199.85223969 Ry
     Harris-Foulkes estimate   =    -263.81860793 Ry
     estimated scf accuracy    <      32.20460793 Ry

     iteration # 74     ecut=    30.00 Ry     beta=0.70
     Davidson diagonalization with overlap
     ethr =  7.77E-03,  avg # of iterations =  7.0

     negative rho (up, down):  1.682E-01 0.000E+00

     total cpu time spent up to now is       23.4 secs

     total energy              =    -115.59300155 Ry
     Harris-Foulkes estimate   =    -709.84161306 Ry
     estimated scf accuracy    <      32.46403630 Ry

     iteration # 75     ecut=    30.00 Ry     beta=0.70
     Davidson diagonalization with overlap
     ethr =  7.77E-03,  avg # of iterations =  6.0

     negative rho (up, down):  6.764E-04 0.000E+00

     total cpu time spent up to now is       23.5 secs

     total energy              =     100.33620275 Ry
     Harris-Foulkes estimate   =    -373.63603805 Ry
     estimated scf accuracy    <      49.05604093 Ry

     iteration # 76     ecut=    30.00 Ry     beta=0.70
     Davidson diagonalization with overlap
     ethr =  7.77E-03,  avg # of iterations =  9.0

     negative rho (up, down):  2.172E-02 0.000E+00

     total cpu time spent up to now is       23.5 secs

     total energy              =     -38.35375139 Ry
     Harris-Foulkes estimate   =     -40.82323115 Ry
     estimated scf accuracy    <      16.12948308 Ry

     iteration # 77     ecut=    30.00 Ry     beta=0.70
     Davidson diagonalization with overlap
     ethr =  7.77E-03,  avg # of iterations =  5.0

     negative rho (up, down):  1.636E-02 0.000E+00

     total cpu time spent up to now is       23.6 secs

     total energy              =      -8.49011511 Ry
     Harris-Foulkes estimate   =     -52.30400904 Ry
     estimated scf accuracy    <       9.16175429 Ry

     iteration # 78     ecut=    30.00 Ry     beta=0.70
     Davidson diagonalization with overlap
     ethr =  7.77E-03,  avg # of iterations =  5.0

     negative rho (up, down):  2.554E-02 0.000E+00

     total cpu time spent up to now is       23.6 secs

     total energy              =     -36.71892281 Ry
     Harris-Foulkes estimate   =     -38.31731580 Ry
     estimated scf accuracy    <      11.96567136 Ry

     iteration # 79     ecut=    30.00 Ry     beta=0.70
     Davidson diagonalization with overlap
     ethr =  7.77E-03,  avg # of iterations =  7.0

     negative rho (up, down):  1.092E-01 0.000E+00

     total cpu time spent up to now is       23.7 secs

     total energy              =       3.12460186 Ry
     Harris-Foulkes estimate   =     -59.06309139 Ry
     estimated scf accuracy    <      12.61228618 Ry

     iteration # 80     ecut=    30.00 Ry     beta=0.70
     Davidson diagonalization with overlap
     ethr =  7.77E-03,  avg # of iterations =  6.0

     negative rho (up, down):  5.858E-02 0.000E+00

     total cpu time spent up to now is       23.7 secs

     total energy              =      67.84005493 Ry
     Harris-Foulkes estimate   =    -441.14694377 Ry
     estimated scf accuracy    <      35.60904309 Ry

     iteration # 81     ecut=    30.00 Ry     beta=0.70
     Davidson diagonalization with overlap
     ethr =  7.77E-03,  avg # of iterations =  6.0

     negative rho (up, down):  1.105E-01 0.000E+00

     total cpu time spent up to now is       23.8 secs

     total energy              =     -57.21188449 Ry
     Harris-Foulkes estimate   =    -683.35441244 Ry
     estimated scf accuracy    <      46.66918383 Ry

     iteration # 82     ecut=    30.00 Ry     beta=0.70
     Davidson diagonalization with overlap
     ethr =  7.77E-03,  avg # of iterations =  9.0

     negative rho (up, down):  4.952E-02 0.000E+00

     total cpu time spent up to now is       23.8 secs

     total energy              =      36.13514434 Ry
     Harris-Foulkes estimate   =    -625.19094069 Ry
     estimated scf accuracy    <      23.18243836 Ry

     iteration # 83     ecut=    30.00 Ry     beta=0.70
     Davidson diagonalization with overlap
     ethr =  7.77E-03,  avg # of iterations =  6.0

     negative rho (up, down):  3.779E-02 0.000E+00

     total cpu time spent up to now is       23.9 secs

     total energy              =      24.94639175 Ry
     Harris-Foulkes estimate   =    -223.77666118 Ry
     estimated scf accuracy    <      10.67591761 Ry

     iteration # 84     ecut=    30.00 Ry     beta=0.70
     Davidson diagonalization with overlap
     ethr =  7.77E-03,  avg # of iterations =  6.0

     negative rho (up, down):  1.111E-01 0.000E+00

     total cpu time spent up to now is       23.9 secs

     total energy              =      -9.44937607 Ry
     Harris-Foulkes estimate   =     -93.63828509 Ry
     estimated scf accuracy    <      16.46652173 Ry

     iteration # 85     ecut=    30.00 Ry     beta=0.70
     Davidson diagonalization with overlap
     ethr =  7.77E-03,  avg # of iterations =  7.0

     negative rho (up, down):  2.120E-01 0.000E+00

     total cpu time spent up to now is       24.0 secs

     total energy              =      41.95796739 Ry
     Harris-Foulkes estimate   =   -1612.95621930 Ry
     estimated scf accuracy    <      45.63872647 Ry

     iteration # 86     ecut=    30.00 Ry     beta=0.70
     Davidson diagonalization with overlap
     ethr =  7.77E-03,  avg # of iterations = 10.0

     negative rho (up, down):  7.494E-03 0.000E+00

     total cpu time spent up to now is       24.0 secs

     total energy              =      92.46649274 Ry
     Harris-Foulkes estimate   =    -254.21674209 Ry
     estimated scf accuracy    <      35.13925145 Ry

     iteration # 87     ecut=    30.00 Ry     beta=0.70
     Davidson diagonalization with overlap
     ethr =  7.77E-03,  avg # of iterations =  9.0

     negative rho (up, down):  3.520E-01 0.000E+00

     total cpu time spent up to now is       24.1 secs

     total energy              =      -6.07707562 Ry
     Harris-Foulkes estimate   =    -186.74536113 Ry
     estimated scf accuracy    <       7.85182927 Ry

     iteration # 88     ecut=    30.00 Ry     beta=0.70
     Davidson diagonalization with overlap
     ethr =  7.77E-03,  avg # of iterations = 10.0

     negative rho (up, down):  4.000E-01 0.000E+00

     total cpu time spent up to now is       24.2 secs

     total energy              =     101.73904186 Ry
     Harris-Foulkes estimate   =   -1543.94364330 Ry
     estimated scf accuracy    <      40.54509575 Ry

     iteration # 89     ecut=    30.00 Ry     beta=0.70
     Davidson diagonalization with overlap
     ethr =  7.77E-03,  avg # of iterations = 10.0

     negative rho (up, down):  5.122E-01 0.000E+00

     total cpu time spent up to now is       24.2 secs

     total energy              =     -65.29088765 Ry
     Harris-Foulkes estimate   =    -463.53083965 Ry
     estimated scf accuracy    <      42.64616942 Ry

     iteration # 90     ecut=    30.00 Ry     beta=0.70
     Davidson diagonalization with overlap
     ethr =  7.77E-03,  avg # of iterations =  8.0

     negative rho (up, down):  3.604E-01 0.000E+00

     total cpu time spent up to now is       24.3 secs

     total energy              =     101.37597800 Ry
     Harris-Foulkes estimate   =   -2632.91952198 Ry
     estimated scf accuracy    <      32.31166309 Ry

     iteration # 91     ecut=    30.00 Ry     beta=0.70
     Davidson diagonalization with overlap
     ethr =  7.77E-03,  avg # of iterations =  8.0

     negative rho (up, down):  4.082E-01 0.000E+00

     total cpu time spent up to now is       24.3 secs

     total energy              =      65.77800743 Ry
     Harris-Foulkes estimate   =    -222.45003721 Ry
     estimated scf accuracy    <      42.58976605 Ry

     iteration # 92     ecut=    30.00 Ry     beta=0.70
     Davidson diagonalization with overlap
     ethr =  7.77E-03,  avg # of iterations =  8.0

     negative rho (up, down):  5.704E-01 0.000E+00

     total cpu time spent up to now is       24.4 secs

     total energy              =      69.77243112 Ry
     Harris-Foulkes estimate   =    -264.47586597 Ry
     estimated scf accuracy    <      37.92808778 Ry

     iteration # 93     ecut=    30.00 Ry     beta=0.70
     Davidson diagonalization with overlap
     ethr =  7.77E-03,  avg # of iterations =  8.0

     negative rho (up, down):  2.953E-01 0.000E+00

     total cpu time spent up to now is       24.4 secs

     total energy              =      28.60392342 Ry
     Harris-Foulkes estimate   =    -279.71796464 Ry
     estimated scf accuracy    <      37.64161533 Ry

     iteration # 94     ecut=    30.00 Ry     beta=0.70
     Davidson diagonalization with overlap
     ethr =  7.77E-03,  avg # of iterations =  5.0

     negative rho (up, down):  7.042E-01 0.000E+00

     total cpu time spent up to now is       24.5 secs

     total energy              =    -127.91890513 Ry
     Harris-Foulkes estimate   =   -3607.65606889 Ry
     estimated scf accuracy    <      34.43747749 Ry

     iteration # 95     ecut=    30.00 Ry     beta=0.70
     Davidson diagonalization with overlap
     ethr =  7.77E-03,  avg # of iterations = 10.0

     negative rho (up, down):  7.265E-01 0.000E+00

     total cpu time spent up to now is       24.5 secs

     total energy              =    -153.02529797 Ry
     Harris-Foulkes estimate   =   -2006.25355155 Ry
     estimated scf accuracy    <      32.88562664 Ry

     iteration # 96     ecut=    30.00 Ry     beta=0.70
     Davidson diagonalization with overlap
     ethr =  7.77E-03,  avg # of iterations =  8.0

     negative rho (up, down):  8.504E-01 0.000E+00

     total cpu time spent up to now is       24.6 secs

     total energy              =    -108.64940475 Ry
     Harris-Foulkes estimate   =   -1621.63496940 Ry
     estimated scf accuracy    <      39.86837130 Ry

     iteration # 97     ecut=    30.00 Ry     beta=0.70
     Davidson diagonalization with overlap
     ethr =  7.77E-03,  avg # of iterations =  8.0

     negative rho (up, down):  8.404E-01 0.000E+00

     total cpu time spent up to now is       24.7 secs

     total energy              =      69.12088332 Ry
     Harris-Foulkes estimate   =   -2588.13392793 Ry
     estimated scf accuracy    <      18.26868235 Ry

     iteration # 98     ecut=    30.00 Ry     beta=0.70
     Davidson diagonalization with overlap
     ethr =  7.77E-03,  avg # of iterations =  9.0

     negative rho (up, down):  7.051E-01 0.000E+00

     total cpu time spent up to now is       24.7 secs

     total energy              =     109.96367908 Ry
     Harris-Foulkes estimate   =   -5639.24790549 Ry
     estimated scf accuracy    <      29.21458882 Ry

     iteration # 99     ecut=    30.00 Ry     beta=0.70
     Davidson diagonalization with overlap
     ethr =  7.77E-03,  avg # of iterations = 11.0

     negative rho (up, down):  9.894E-01 0.000E+00

     total cpu time spent up to now is       24.8 secs

     total energy              =  -44516.72299363 Ry
     Harris-Foulkes estimate   =   -3905.26896731 Ry
     estimated scf accuracy    <      32.93677270 Ry

     iteration #100     ecut=    30.00 Ry     beta=0.70
     Davidson diagonalization with overlap
     ethr =  7.77E-03,  avg # of iterations =  9.0

     negative rho (up, down):  5.218E-01 0.000E+00

     total cpu time spent up to now is       24.8 secs

     total energy              =   -2706.97183294 Ry
     Harris-Foulkes estimate   =  -90903.88184465 Ry
     estimated scf accuracy    <      15.77411023 Ry

     End of self-consistent calculation

     convergence NOT achieved after 100 iterations: stopping

     Writing output data file pwscf.save
 
     init_run     :      0.09s CPU      0.10s WALL (       1 calls)
     electrons    :     15.73s CPU     20.07s WALL (      17 calls)
     update_pot   :      2.08s CPU      3.13s WALL (      16 calls)
     forces       :      0.43s CPU      0.44s WALL (      16 calls)

     Called by init_run:
     wfcinit      :      0.01s CPU      0.02s WALL (       1 calls)
     potinit      :      0.02s CPU      0.03s WALL (       1 calls)

     Called by electrons:
     c_bands      :      7.22s CPU      7.72s WALL (     468 calls)
     sum_band     :      1.38s CPU      1.48s WALL (     468 calls)
     v_of_rho     :      3.40s CPU      3.61s WALL (     485 calls)
     mix_rho      :      2.99s CPU      5.22s WALL (     468 calls)

     Called by c_bands:
     init_us_2    :      0.04s CPU      0.06s WALL (     937 calls)
     cegterg      :      7.12s CPU      7.46s WALL (     468 calls)

     Called by sum_band:

     Called by *egterg:
     h_psi        :      6.00s CPU      6.27s WALL (    2104 calls)
     g_psi        :      0.06s CPU      0.06s WALL (    1635 calls)
     cdiaghg      :      0.40s CPU      0.42s WALL (    2087 calls)

     Called by h_psi:
     h_psi:pot    :      5.97s CPU      6.23s WALL (    2104 calls)
     h_psi:calbec :      0.18s CPU      0.21s WALL (    2104 calls)
     vloc_psi     :      5.76s CPU      6.00s WALL (    2104 calls)
     add_vuspsi   :      0.02s CPU      0.02s WALL (    2104 calls)

     General routines
     calbec       :      0.30s CPU      0.38s WALL (    2183 calls)
     fft          :      2.38s CPU      2.60s WALL (    5367 calls)
     fftw         :      6.07s CPU      6.36s WALL (   26608 calls)
     davcio       :      0.50s CPU      1.93s WALL (    7860 calls)
 
     Parallel routines
     fft_scatter  :      3.38s CPU      3.73s WALL (   31975 calls)
 
     PWSCF        :    18.79s CPU        24.92s WALL

 
   This run was terminated on:   2:20:26  11Feb2018            

=------------------------------------------------------------------------------=
   JOB DONE.
=------------------------------------------------------------------------------=
