
     Program PWSCF v.6.0 (svn rev. 13079) starts on 11Feb2018 at  2:31:55 

     This program is part of the open-source Quantum ESPRESSO suite
     for quantum simulation of materials; please cite
         "P. Giannozzi et al., J. Phys.:Condens. Matter 21 395502 (2009);
          URL http://www.quantum-espresso.org", 
     in publications or presentations arising from this work. More details at
     http://www.quantum-espresso.org/quote

     Parallel version (MPI), running on    28 processors
     R & G space division:  proc/nbgrp/npool/nimage =      28
     Reading input from inputs/water-1-md/505.in

     Current dimensions of program PWSCF are:
     Max number of different atomic species (ntypx) = 10
     Max number of k-points (npk) =  40000
     Max angular momentum in pseudopotentials (lmaxx) =  3

     Subspace diagonalization in iterative solution of the eigenvalue problem:
     a serial algorithm will be used

 
     Parallelization info
     --------------------
     sticks:   dense  smooth     PW     G-vecs:    dense   smooth      PW
     Min         136     136     33                 6338     6338     787
     Max         137     137     34                 6341     6341     792
     Sum        3809    3809    949               177509   177509   22119
 


     bravais-lattice index     =            1
     lattice parameter (alat)  =      20.0000  a.u.
     unit-cell volume          =    8000.0000 (a.u.)^3
     number of atoms/cell      =            3
     number of atomic types    =            2
     number of electrons       =         8.00
     number of Kohn-Sham states=            8
     kinetic-energy cutoff     =      30.0000  Ry
     charge density cutoff     =     120.0000  Ry
     convergence threshold     =      1.0E-08
     mixing beta               =       0.7000
     number of iterations used =            8  plain     mixing
     Exchange-correlation      = BLYP ( 1  3  1  3 0 0)
     nstep                     =         5000


     celldm(1)=  20.000000  celldm(2)=   0.000000  celldm(3)=   0.000000
     celldm(4)=   0.000000  celldm(5)=   0.000000  celldm(6)=   0.000000

     crystal axes: (cart. coord. in units of alat)
               a(1) = (   1.000000   0.000000   0.000000 )  
               a(2) = (   0.000000   1.000000   0.000000 )  
               a(3) = (   0.000000   0.000000   1.000000 )  

     reciprocal axes: (cart. coord. in units 2 pi/alat)
               b(1) = (  1.000000  0.000000  0.000000 )  
               b(2) = (  0.000000  1.000000  0.000000 )  
               b(3) = (  0.000000  0.000000  1.000000 )  


     PseudoPot. # 1 for  H read from file:
     ./H.blyp-hgh.UPF
     MD5 check sum: c576e69559cde411e611be972c763230
     Pseudo is Norm-conserving, Zval =  1.0
     Generated in analytical, separable form
     Using radial grid of  929 points,  0 beta functions with: 

     PseudoPot. # 2 for  O read from file:
     ./O.blyp-hgh.UPF
     MD5 check sum: d0b7156309aa9befef28faac7bc56342
     Pseudo is Norm-conserving, Zval =  6.0
     Generated in analytical, separable form
     Using radial grid of 1095 points,  1 beta functions with: 
                l(1) =   0

     atomic species   valence    mass     pseudopotential
        H              1.00     1.01000      H( 1.00)
        O              6.00    16.00000      O( 1.00)

     No symmetry found



   Cartesian axes

     site n.     atom                  positions (alat units)
         1           H   tau(   1) = (   0.2758056   0.4068568   0.6092180  )
         2           H   tau(   2) = (   0.6940279   0.9180122   0.1980717  )
         3           O   tau(   3) = (   0.0319906   0.0666983   0.6196899  )

     number of k points=     1  Marzari-Vanderbilt smearing, width (Ry)=  0.0250
                       cart. coord. in units 2pi/alat
        k(    1) = (   0.0000000   0.0000000   0.0000000), wk =   2.0000000

     Dense  grid:   177509 G-vectors     FFT dimensions: (  72,  72,  72)

     Estimated max dynamical RAM per process >       6.09Mb

     Estimated total allocated dynamical RAM >     170.64Mb

     Initial potential from superposition of free atoms
     Check: negative starting charge=   -0.347322

     starting charge    7.99998, renormalised to    8.00000

     negative rho (up, down):  3.473E-01 0.000E+00
     Starting wfc are    6 randomized atomic wfcs +    2 random wfc

     total cpu time spent up to now is        0.3 secs

     per-process dynamical memory:    18.8 Mb

     Self-consistent Calculation

     iteration #  1     ecut=    30.00 Ry     beta=0.70
     Davidson diagonalization with overlap
     ethr =  1.00E-02,  avg # of iterations =  7.0

     negative rho (up, down):  8.317E-02 0.000E+00

     total cpu time spent up to now is        0.4 secs

     total energy              =     -28.15946761 Ry
     Harris-Foulkes estimate   =     -32.07284522 Ry
     estimated scf accuracy    <       4.50438815 Ry

     iteration #  2     ecut=    30.00 Ry     beta=0.70
     Davidson diagonalization with overlap
     ethr =  1.00E-02,  avg # of iterations =  4.0

     negative rho (up, down):  6.094E-02 0.000E+00

     total cpu time spent up to now is        0.4 secs

     total energy              =     -32.59991841 Ry
     Harris-Foulkes estimate   =     -37.78017958 Ry
     estimated scf accuracy    <      12.64873187 Ry

     iteration #  3     ecut=    30.00 Ry     beta=0.70
     Davidson diagonalization with overlap
     ethr =  1.00E-02,  avg # of iterations =  4.0

     negative rho (up, down):  6.289E-02 0.000E+00

     total cpu time spent up to now is        0.5 secs

     total energy              =     -33.14415318 Ry
     Harris-Foulkes estimate   =     -32.93935831 Ry
     estimated scf accuracy    <       4.85337085 Ry

     iteration #  4     ecut=    30.00 Ry     beta=0.70
     Davidson diagonalization with overlap
     ethr =  1.00E-02,  avg # of iterations =  1.0

     negative rho (up, down):  2.493E-02 0.000E+00

     total cpu time spent up to now is        0.5 secs

     total energy              =     -30.24591680 Ry
     Harris-Foulkes estimate   =     -33.14474968 Ry
     estimated scf accuracy    <       5.15883272 Ry

     iteration #  5     ecut=    30.00 Ry     beta=0.70
     Davidson diagonalization with overlap
     ethr =  1.00E-02,  avg # of iterations =  6.0

     negative rho (up, down):  2.248E-02 0.000E+00

     total cpu time spent up to now is        0.5 secs

     total energy              =     -33.18992875 Ry
     Harris-Foulkes estimate   =     -33.23306396 Ry
     estimated scf accuracy    <      13.54736634 Ry

     iteration #  6     ecut=    30.00 Ry     beta=0.70
     Davidson diagonalization with overlap
     ethr =  1.00E-02,  avg # of iterations =  1.0

     negative rho (up, down):  4.810E-02 0.000E+00

     total cpu time spent up to now is        0.6 secs

     total energy              =     -32.99697321 Ry
     Harris-Foulkes estimate   =     -33.19229943 Ry
     estimated scf accuracy    <      13.35080297 Ry

     iteration #  7     ecut=    30.00 Ry     beta=0.70
     Davidson diagonalization with overlap
     ethr =  1.00E-02,  avg # of iterations =  1.0

     negative rho (up, down):  2.573E-02 0.000E+00

     total cpu time spent up to now is        0.6 secs

     total energy              =     -32.42264546 Ry
     Harris-Foulkes estimate   =     -33.02229831 Ry
     estimated scf accuracy    <       8.67298452 Ry

     iteration #  8     ecut=    30.00 Ry     beta=0.70
     Davidson diagonalization with overlap
     ethr =  1.00E-02,  avg # of iterations =  1.0

     negative rho (up, down):  1.781E-03 0.000E+00

     total cpu time spent up to now is        0.6 secs

     total energy              =     -32.12143358 Ry
     Harris-Foulkes estimate   =     -32.53747550 Ry
     estimated scf accuracy    <       5.27930411 Ry

     iteration #  9     ecut=    30.00 Ry     beta=0.70
     Davidson diagonalization with overlap
     ethr =  1.00E-02,  avg # of iterations =  1.0

     negative rho (up, down):  1.533E-02 0.000E+00

     total cpu time spent up to now is        0.7 secs

     total energy              =     -31.63672269 Ry
     Harris-Foulkes estimate   =     -32.12897796 Ry
     estimated scf accuracy    <       4.58554663 Ry

     iteration # 10     ecut=    30.00 Ry     beta=0.70
     Davidson diagonalization with overlap
     ethr =  1.00E-02,  avg # of iterations =  1.0

     negative rho (up, down):  1.680E-02 0.000E+00

     total cpu time spent up to now is        0.7 secs

     total energy              =     -31.61724917 Ry
     Harris-Foulkes estimate   =     -31.64706174 Ry
     estimated scf accuracy    <       3.79282067 Ry

     iteration # 11     ecut=    30.00 Ry     beta=0.70
     Davidson diagonalization with overlap
     ethr =  1.00E-02,  avg # of iterations =  1.0

     negative rho (up, down):  1.925E-02 0.000E+00

     total cpu time spent up to now is        0.7 secs

     total energy              =     -31.63332182 Ry
     Harris-Foulkes estimate   =     -31.61815336 Ry
     estimated scf accuracy    <       3.87883140 Ry

     iteration # 12     ecut=    30.00 Ry     beta=0.70
     Davidson diagonalization with overlap
     ethr =  1.00E-02,  avg # of iterations =  1.0

     negative rho (up, down):  4.940E-02 0.000E+00

     total cpu time spent up to now is        0.8 secs

     total energy              =     -30.84944651 Ry
     Harris-Foulkes estimate   =     -31.63329194 Ry
     estimated scf accuracy    <       3.78317987 Ry

     iteration # 13     ecut=    30.00 Ry     beta=0.70
     Davidson diagonalization with overlap
     ethr =  1.00E-02,  avg # of iterations =  1.0

     negative rho (up, down):  3.206E-02 0.000E+00

     total cpu time spent up to now is        0.8 secs

     total energy              =     -31.59789121 Ry
     Harris-Foulkes estimate   =     -32.03603392 Ry
     estimated scf accuracy    <       3.41912577 Ry

     iteration # 14     ecut=    30.00 Ry     beta=0.70
     Davidson diagonalization with overlap
     ethr =  1.00E-02,  avg # of iterations =  1.0

     negative rho (up, down):  7.758E-04 0.000E+00

     total cpu time spent up to now is        0.8 secs

     total energy              =     -31.37423957 Ry
     Harris-Foulkes estimate   =     -31.60320731 Ry
     estimated scf accuracy    <       2.74923838 Ry

     iteration # 15     ecut=    30.00 Ry     beta=0.70
     Davidson diagonalization with overlap
     ethr =  1.00E-02,  avg # of iterations =  1.0

     negative rho (up, down):  6.033E-03 0.000E+00

     total cpu time spent up to now is        0.9 secs

     total energy              =     -31.33287651 Ry
     Harris-Foulkes estimate   =     -31.55921097 Ry
     estimated scf accuracy    <       4.34313247 Ry

     iteration # 16     ecut=    30.00 Ry     beta=0.70
     Davidson diagonalization with overlap
     ethr =  1.00E-02,  avg # of iterations =  1.0

     negative rho (up, down):  2.070E-03 0.000E+00

     total cpu time spent up to now is        0.9 secs

     total energy              =     -31.43867717 Ry
     Harris-Foulkes estimate   =     -31.55213352 Ry
     estimated scf accuracy    <       2.51880080 Ry

     iteration # 17     ecut=    30.00 Ry     beta=0.70
     Davidson diagonalization with overlap
     ethr =  1.00E-02,  avg # of iterations =  1.0

     negative rho (up, down):  4.115E-04 0.000E+00

     total cpu time spent up to now is        0.9 secs

     total energy              =     -31.45114369 Ry
     Harris-Foulkes estimate   =     -31.49917501 Ry
     estimated scf accuracy    <       0.72912465 Ry

     iteration # 18     ecut=    30.00 Ry     beta=0.70
     Davidson diagonalization with overlap
     ethr =  9.11E-03,  avg # of iterations =  1.0

     negative rho (up, down):  1.078E-04 0.000E+00

     total cpu time spent up to now is        1.0 secs

     total energy              =     -31.53926357 Ry
     Harris-Foulkes estimate   =     -31.54218329 Ry
     estimated scf accuracy    <       2.33253433 Ry

     iteration # 19     ecut=    30.00 Ry     beta=0.70
     Davidson diagonalization with overlap
     ethr =  9.11E-03,  avg # of iterations =  1.0

     negative rho (up, down):  2.607E-04 0.000E+00

     total cpu time spent up to now is        1.0 secs

     total energy              =     -31.51091621 Ry
     Harris-Foulkes estimate   =     -31.53934371 Ry
     estimated scf accuracy    <       2.24532064 Ry

     iteration # 20     ecut=    30.00 Ry     beta=0.70
     Davidson diagonalization with overlap
     ethr =  9.11E-03,  avg # of iterations =  1.0

     negative rho (up, down):  7.897E-05 0.000E+00

     total cpu time spent up to now is        1.0 secs

     total energy              =     -31.47113490 Ry
     Harris-Foulkes estimate   =     -31.51403906 Ry
     estimated scf accuracy    <       1.27841680 Ry

     iteration # 21     ecut=    30.00 Ry     beta=0.70
     Davidson diagonalization with overlap
     ethr =  9.11E-03,  avg # of iterations =  1.0

     negative rho (up, down):  9.913E-05 0.000E+00

     total cpu time spent up to now is        1.1 secs

     total energy              =     -31.50123097 Ry
     Harris-Foulkes estimate   =     -31.50201747 Ry
     estimated scf accuracy    <       0.69423239 Ry

     iteration # 22     ecut=    30.00 Ry     beta=0.70
     Davidson diagonalization with overlap
     ethr =  8.68E-03,  avg # of iterations =  1.0

     negative rho (up, down):  2.120E-04 0.000E+00

     total cpu time spent up to now is        1.1 secs

     total energy              =     -31.49946571 Ry
     Harris-Foulkes estimate   =     -31.50142591 Ry
     estimated scf accuracy    <       0.60657018 Ry

     iteration # 23     ecut=    30.00 Ry     beta=0.70
     Davidson diagonalization with overlap
     ethr =  7.58E-03,  avg # of iterations =  1.0

     negative rho (up, down):  3.051E-06 0.000E+00

     total cpu time spent up to now is        1.1 secs

     total energy              =     -31.49291629 Ry
     Harris-Foulkes estimate   =     -31.49989852 Ry
     estimated scf accuracy    <       0.60296277 Ry

     iteration # 24     ecut=    30.00 Ry     beta=0.70
     Davidson diagonalization with overlap
     ethr =  7.54E-03,  avg # of iterations =  1.0

     negative rho (up, down):  8.570E-05 0.000E+00

     total cpu time spent up to now is        1.2 secs

     total energy              =     -31.49133955 Ry
     Harris-Foulkes estimate   =     -31.49427191 Ry
     estimated scf accuracy    <       0.22623871 Ry

     iteration # 25     ecut=    30.00 Ry     beta=0.70
     Davidson diagonalization with overlap
     ethr =  2.83E-03,  avg # of iterations =  1.0

     negative rho (up, down):  1.112E-04 0.000E+00

     total cpu time spent up to now is        1.2 secs

     total energy              =     -31.49210084 Ry
     Harris-Foulkes estimate   =     -31.49211304 Ry
     estimated scf accuracy    <       0.04816024 Ry

     iteration # 26     ecut=    30.00 Ry     beta=0.70
     Davidson diagonalization with overlap
     ethr =  6.02E-04,  avg # of iterations =  1.0

     negative rho (up, down):  8.476E-06 0.000E+00

     total cpu time spent up to now is        1.2 secs

     total energy              =     -31.48648796 Ry
     Harris-Foulkes estimate   =     -31.49259389 Ry
     estimated scf accuracy    <       0.11976257 Ry

     iteration # 27     ecut=    30.00 Ry     beta=0.70
     Davidson diagonalization with overlap
     ethr =  6.02E-04,  avg # of iterations =  1.0

     negative rho (up, down):  1.135E-05 0.000E+00

     total cpu time spent up to now is        1.3 secs

     total energy              =     -31.49116583 Ry
     Harris-Foulkes estimate   =     -31.49512170 Ry
     estimated scf accuracy    <       0.34528446 Ry

     iteration # 28     ecut=    30.00 Ry     beta=0.70
     Davidson diagonalization with overlap
     ethr =  6.02E-04,  avg # of iterations =  1.0

     negative rho (up, down):  1.448E-06 0.000E+00

     total cpu time spent up to now is        1.3 secs

     total energy              =     -31.49044909 Ry
     Harris-Foulkes estimate   =     -31.49230335 Ry
     estimated scf accuracy    <       0.08280970 Ry

     iteration # 29     ecut=    30.00 Ry     beta=0.70
     Davidson diagonalization with overlap
     ethr =  6.02E-04,  avg # of iterations =  1.0

     negative rho (up, down):  1.536E-08 0.000E+00

     total cpu time spent up to now is        1.3 secs

     total energy              =     -31.49134805 Ry
     Harris-Foulkes estimate   =     -31.49154523 Ry
     estimated scf accuracy    <       0.00665968 Ry

     iteration # 30     ecut=    30.00 Ry     beta=0.70
     Davidson diagonalization with overlap
     ethr =  8.32E-05,  avg # of iterations =  1.0

     total cpu time spent up to now is        1.4 secs

     total energy              =     -31.49145182 Ry
     Harris-Foulkes estimate   =     -31.49145234 Ry
     estimated scf accuracy    <       0.00005818 Ry

     iteration # 31     ecut=    30.00 Ry     beta=0.70
     Davidson diagonalization with overlap
     ethr =  7.27E-07,  avg # of iterations = 13.0

     negative rho (up, down):  2.699E-08 0.000E+00

     total cpu time spent up to now is        1.4 secs

     total energy              =     -31.49145174 Ry
     Harris-Foulkes estimate   =     -31.49145197 Ry
     estimated scf accuracy    <       0.00001920 Ry

     iteration # 32     ecut=    30.00 Ry     beta=0.70
     Davidson diagonalization with overlap
     ethr =  2.40E-07,  avg # of iterations =  1.0

     total cpu time spent up to now is        1.4 secs

     total energy              =     -31.49145180 Ry
     Harris-Foulkes estimate   =     -31.49145207 Ry
     estimated scf accuracy    <       0.00000724 Ry

     iteration # 33     ecut=    30.00 Ry     beta=0.70
     Davidson diagonalization with overlap
     ethr =  9.05E-08,  avg # of iterations =  1.0

     total cpu time spent up to now is        1.5 secs

     total energy              =     -31.49145202 Ry
     Harris-Foulkes estimate   =     -31.49145197 Ry
     estimated scf accuracy    <       0.00000136 Ry

     iteration # 34     ecut=    30.00 Ry     beta=0.70
     Davidson diagonalization with overlap
     ethr =  1.71E-08,  avg # of iterations =  1.0

     total cpu time spent up to now is        1.5 secs

     End of self-consistent calculation

          k = 0.0000 0.0000 0.0000 ( 22119 PWs)   bands (ev):

   -23.5760  -7.0069  -6.9917  -6.9912  -6.8861  -6.8694  -0.2264   0.6261

     the Fermi energy is    -6.8565 ev

!    total energy              =     -31.49145205 Ry
     Harris-Foulkes estimate   =     -31.49145204 Ry
     estimated scf accuracy    <          2.9E-09 Ry

     convergence has been achieved in  34 iterations

     Forces acting on atoms (Ry/au):

     atom    1 type  1   force =    -0.00078052   -0.00051071    0.00028244
     atom    2 type  1   force =    -0.00023853    0.00033005    0.00030053
     atom    3 type  2   force =     0.00101905    0.00018065   -0.00058298

     Total force =     0.001618     Total SCF correction =     0.000005

     Molecular Dynamics Calculation

     Starting temperature  =  1000.00 K

     temperature is controlled by Andersen thermostat
     Collision frequency = 1.0000/timestep
     mass H                =     1.01
     mass O                =    16.00
     Time step             =   100.00 a.u.,  4.8378 femto-seconds

     Entering Dynamics:    iteration =     1
                           time      =   0.0048 pico-seconds


     Andersen thermostat:    3 collisions

ATOMIC_POSITIONS (bohr)
H        5.743430708   8.410902262  11.987766218
H       13.885793815  18.591050693   3.774170216
O        0.625131996   1.302114832  12.418029009


     kinetic energy (Ekin) =     0.01319564 Ry
     temperature           =   694.47456190 K 
     Ekin + Etot (const)   =   -31.47825642 Ry

     Linear momentum :   -0.0000000000   -0.0000000000    0.0000000000

     Writing output data file pwscf.save
     Check: negative starting charge=   -0.347322
     NEW-OLD atomic charge density approx. for the potential
     Check: negative starting charge=   -0.348094

     negative rho (up, down):  7.774E-02 0.000E+00

     total cpu time spent up to now is        1.7 secs

     per-process dynamical memory:    20.4 Mb

     Self-consistent Calculation

     iteration #  1     ecut=    30.00 Ry     beta=0.70
     Davidson diagonalization with overlap
     c_bands:  1 eigenvalues not converged
     ethr =  1.00E-06,  avg # of iterations = 20.0

     negative rho (up, down):  1.770E-02 0.000E+00

     total cpu time spent up to now is        1.9 secs

     total energy              =     -31.45361280 Ry
     Harris-Foulkes estimate   =     -31.43039794 Ry
     estimated scf accuracy    <       0.02654046 Ry

     iteration #  2     ecut=    30.00 Ry     beta=0.70
     Davidson diagonalization with overlap
     ethr =  3.32E-04,  avg # of iterations =  2.0

     negative rho (up, down):  1.654E-02 0.000E+00

     total cpu time spent up to now is        1.9 secs

     total energy              =     -31.46559425 Ry
     Harris-Foulkes estimate   =     -31.81984542 Ry
     estimated scf accuracy    <       4.05958245 Ry

     iteration #  3     ecut=    30.00 Ry     beta=0.70
     Davidson diagonalization with overlap
     ethr =  3.32E-04,  avg # of iterations =  2.0

     negative rho (up, down):  1.619E-02 0.000E+00

     total cpu time spent up to now is        1.9 secs

     total energy              =     -31.47215343 Ry
     Harris-Foulkes estimate   =     -31.48383746 Ry
     estimated scf accuracy    <       0.61823107 Ry

     iteration #  4     ecut=    30.00 Ry     beta=0.70
     Davidson diagonalization with overlap
     ethr =  3.32E-04,  avg # of iterations =  1.0

     negative rho (up, down):  4.531E-03 0.000E+00

     total cpu time spent up to now is        2.0 secs

     total energy              =     -31.46145725 Ry
     Harris-Foulkes estimate   =     -31.47791203 Ry
     estimated scf accuracy    <       0.27233069 Ry

     iteration #  5     ecut=    30.00 Ry     beta=0.70
     Davidson diagonalization with overlap
     ethr =  3.32E-04,  avg # of iterations =  1.0

     negative rho (up, down):  2.415E-03 0.000E+00

     total cpu time spent up to now is        2.0 secs

     total energy              =     -31.45190982 Ry
     Harris-Foulkes estimate   =     -31.53131356 Ry
     estimated scf accuracy    <       2.34818832 Ry

     iteration #  6     ecut=    30.00 Ry     beta=0.70
     Davidson diagonalization with overlap
     ethr =  3.32E-04,  avg # of iterations =  1.0

     negative rho (up, down):  5.539E-04 0.000E+00

     total cpu time spent up to now is        2.0 secs

     total energy              =     -31.48832520 Ry
     Harris-Foulkes estimate   =     -31.49091704 Ry
     estimated scf accuracy    <       0.14496613 Ry

     iteration #  7     ecut=    30.00 Ry     beta=0.70
     Davidson diagonalization with overlap
     ethr =  3.32E-04,  avg # of iterations =  7.0

     negative rho (up, down):  1.624E-04 0.000E+00

     total cpu time spent up to now is        2.1 secs

     total energy              =     -31.49137345 Ry
     Harris-Foulkes estimate   =     -31.49157910 Ry
     estimated scf accuracy    <       0.04042190 Ry

     iteration #  8     ecut=    30.00 Ry     beta=0.70
     Davidson diagonalization with overlap
     ethr =  3.32E-04,  avg # of iterations =  1.0

     negative rho (up, down):  1.111E-06 0.000E+00

     total cpu time spent up to now is        2.1 secs

     total energy              =     -31.49072322 Ry
     Harris-Foulkes estimate   =     -31.49140672 Ry
     estimated scf accuracy    <       0.02187773 Ry

     iteration #  9     ecut=    30.00 Ry     beta=0.70
     Davidson diagonalization with overlap
     ethr =  2.73E-04,  avg # of iterations =  1.0

     total cpu time spent up to now is        2.1 secs

     total energy              =     -31.49122777 Ry
     Harris-Foulkes estimate   =     -31.49130451 Ry
     estimated scf accuracy    <       0.00951748 Ry

     iteration # 10     ecut=    30.00 Ry     beta=0.70
     Davidson diagonalization with overlap
     ethr =  1.19E-04,  avg # of iterations =  1.0

     total cpu time spent up to now is        2.2 secs

     total energy              =     -31.49120785 Ry
     Harris-Foulkes estimate   =     -31.49124341 Ry
     estimated scf accuracy    <       0.00363699 Ry

     iteration # 11     ecut=    30.00 Ry     beta=0.70
     Davidson diagonalization with overlap
     ethr =  4.55E-05,  avg # of iterations =  1.0

     total cpu time spent up to now is        2.2 secs

     total energy              =     -31.49118637 Ry
     Harris-Foulkes estimate   =     -31.49121670 Ry
     estimated scf accuracy    <       0.00089734 Ry

     iteration # 12     ecut=    30.00 Ry     beta=0.70
     Davidson diagonalization with overlap
     ethr =  1.12E-05,  avg # of iterations =  9.0

     total cpu time spent up to now is        2.2 secs

     total energy              =     -31.49120411 Ry
     Harris-Foulkes estimate   =     -31.49121284 Ry
     estimated scf accuracy    <       0.00050559 Ry

     iteration # 13     ecut=    30.00 Ry     beta=0.70
     Davidson diagonalization with overlap
     ethr =  6.32E-06,  avg # of iterations =  1.0

     total cpu time spent up to now is        2.3 secs

     total energy              =     -31.49120791 Ry
     Harris-Foulkes estimate   =     -31.49120794 Ry
     estimated scf accuracy    <       0.00000654 Ry

     iteration # 14     ecut=    30.00 Ry     beta=0.70
     Davidson diagonalization with overlap
     ethr =  8.18E-08,  avg # of iterations =  1.0

     total cpu time spent up to now is        2.3 secs

     total energy              =     -31.49120788 Ry
     Harris-Foulkes estimate   =     -31.49120792 Ry
     estimated scf accuracy    <       0.00000243 Ry

     iteration # 15     ecut=    30.00 Ry     beta=0.70
     Davidson diagonalization with overlap
     ethr =  3.03E-08,  avg # of iterations =  1.0

     total cpu time spent up to now is        2.3 secs

     End of self-consistent calculation

          k = 0.0000 0.0000 0.0000 ( 22119 PWs)   bands (ev):

   -23.5777  -7.0035  -6.9926  -6.9925  -6.8872  -6.8755  -0.2305   0.6287

     the Fermi energy is    -6.8576 ev

!    total energy              =     -31.49120790 Ry
     Harris-Foulkes estimate   =     -31.49120791 Ry
     estimated scf accuracy    <          1.6E-10 Ry

     convergence has been achieved in  15 iterations

     Forces acting on atoms (Ry/au):

     atom    1 type  1   force =    -0.00063339   -0.00014336    0.00039547
     atom    2 type  1   force =    -0.00023437    0.00040739    0.00038189
     atom    3 type  2   force =     0.00086776   -0.00026403   -0.00077735

     Total force =     0.001540     Total SCF correction =     0.000064

     Entering Dynamics:    iteration =     2
                           time      =   0.0097 pico-seconds


     Andersen thermostat:    3 collisions

ATOMIC_POSITIONS (bohr)
H        5.788963921   8.585494840  12.137192877
H       13.946504286  18.441625457   3.954559842
O        0.618425363   1.300526144  12.397209356


     kinetic energy (Ekin) =     0.00847448 Ry
     temperature           =   446.00417748 K 
     Ekin + Etot (const)   =   -31.48273342 Ry
     Message from routine dynamics:
     Total linear momentum <> 0

     Linear momentum :   -0.0482643422    0.4839037204    0.0463385468

     Writing output data file pwscf.save

     first order wave-functions extrapolation
     Check: negative starting charge=   -0.348094
     first order charge density extrapolation
     Check: negative starting charge=   -0.348468

     negative rho (up, down):  1.106E-01 0.000E+00

     total cpu time spent up to now is        2.6 secs

     per-process dynamical memory:    20.4 Mb

     Self-consistent Calculation

     iteration #  1     ecut=    30.00 Ry     beta=0.70
     Davidson diagonalization with overlap
     c_bands:  1 eigenvalues not converged
     ethr =  1.00E-06,  avg # of iterations = 20.0

     negative rho (up, down):  2.610E-02 0.000E+00

     total cpu time spent up to now is        2.7 secs

     total energy              =     -31.40545993 Ry
     Harris-Foulkes estimate   =     -31.41553057 Ry
     estimated scf accuracy    <       0.07668454 Ry

     iteration #  2     ecut=    30.00 Ry     beta=0.70
     Davidson diagonalization with overlap
     ethr =  9.59E-04,  avg # of iterations =  2.0

     negative rho (up, down):  2.344E-02 0.000E+00

     total cpu time spent up to now is        2.8 secs

     total energy              =     -31.49118738 Ry
     Harris-Foulkes estimate   =     -32.09844785 Ry
     estimated scf accuracy    <       4.55350518 Ry

     iteration #  3     ecut=    30.00 Ry     beta=0.70
     Davidson diagonalization with overlap
     ethr =  9.59E-04,  avg # of iterations =  2.0

     negative rho (up, down):  2.272E-02 0.000E+00

     total cpu time spent up to now is        2.8 secs

     total energy              =     -31.47988120 Ry
     Harris-Foulkes estimate   =     -31.51608819 Ry
     estimated scf accuracy    <       1.31900473 Ry

     iteration #  4     ecut=    30.00 Ry     beta=0.70
     Davidson diagonalization with overlap
     ethr =  9.59E-04,  avg # of iterations =  1.0

     negative rho (up, down):  1.939E-02 0.000E+00

     total cpu time spent up to now is        2.8 secs

     total energy              =     -31.36379362 Ry
     Harris-Foulkes estimate   =     -31.48715677 Ry
     estimated scf accuracy    <       1.87299462 Ry

     iteration #  5     ecut=    30.00 Ry     beta=0.70
     Davidson diagonalization with overlap
     ethr =  9.59E-04,  avg # of iterations =  1.0

     negative rho (up, down):  7.429E-03 0.000E+00

     total cpu time spent up to now is        2.9 secs

     total energy              =     -31.45920371 Ry
     Harris-Foulkes estimate   =     -31.55005805 Ry
     estimated scf accuracy    <       2.67941063 Ry

     iteration #  6     ecut=    30.00 Ry     beta=0.70
     Davidson diagonalization with overlap
     ethr =  9.59E-04,  avg # of iterations =  1.0

     negative rho (up, down):  1.884E-03 0.000E+00

     total cpu time spent up to now is        2.9 secs

     total energy              =     -31.48983188 Ry
     Harris-Foulkes estimate   =     -31.48498960 Ry
     estimated scf accuracy    <       0.06500754 Ry

     iteration #  7     ecut=    30.00 Ry     beta=0.70
     Davidson diagonalization with overlap
     ethr =  8.13E-04,  avg # of iterations =  1.0

     negative rho (up, down):  5.427E-04 0.000E+00

     total cpu time spent up to now is        2.9 secs

     total energy              =     -31.49209139 Ry
     Harris-Foulkes estimate   =     -31.49027502 Ry
     estimated scf accuracy    <       0.02295670 Ry

     iteration #  8     ecut=    30.00 Ry     beta=0.70
     Davidson diagonalization with overlap
     ethr =  2.87E-04,  avg # of iterations =  3.0

     negative rho (up, down):  3.427E-05 0.000E+00

     total cpu time spent up to now is        3.0 secs

     total energy              =     -31.48993101 Ry
     Harris-Foulkes estimate   =     -31.49277855 Ry
     estimated scf accuracy    <       0.16753970 Ry

     iteration #  9     ecut=    30.00 Ry     beta=0.70
     Davidson diagonalization with overlap
     ethr =  2.87E-04,  avg # of iterations =  1.0

     negative rho (up, down):  6.435E-08 0.000E+00

     total cpu time spent up to now is        3.0 secs

     total energy              =     -31.49095192 Ry
     Harris-Foulkes estimate   =     -31.49116985 Ry
     estimated scf accuracy    <       0.00433924 Ry

     iteration # 10     ecut=    30.00 Ry     beta=0.70
     Davidson diagonalization with overlap
     ethr =  5.42E-05,  avg # of iterations =  1.0

     negative rho (up, down):  1.465E-08 0.000E+00

     total cpu time spent up to now is        3.0 secs

     total energy              =     -31.49136240 Ry
     Harris-Foulkes estimate   =     -31.49137848 Ry
     estimated scf accuracy    <       0.02523607 Ry

     iteration # 11     ecut=    30.00 Ry     beta=0.70
     Davidson diagonalization with overlap
     ethr =  5.42E-05,  avg # of iterations =  1.0

     total cpu time spent up to now is        3.1 secs

     total energy              =     -31.49101191 Ry
     Harris-Foulkes estimate   =     -31.49136504 Ry
     estimated scf accuracy    <       0.02445013 Ry

     iteration # 12     ecut=    30.00 Ry     beta=0.70
     Davidson diagonalization with overlap
     ethr =  5.42E-05,  avg # of iterations =  1.0

     total cpu time spent up to now is        3.1 secs

     total energy              =     -31.49114520 Ry
     Harris-Foulkes estimate   =     -31.49114443 Ry
     estimated scf accuracy    <       0.00145021 Ry

     iteration # 13     ecut=    30.00 Ry     beta=0.70
     Davidson diagonalization with overlap
     ethr =  1.81E-05,  avg # of iterations =  1.0

     total cpu time spent up to now is        3.1 secs

     total energy              =     -31.49111319 Ry
     Harris-Foulkes estimate   =     -31.49114576 Ry
     estimated scf accuracy    <       0.00154147 Ry

     iteration # 14     ecut=    30.00 Ry     beta=0.70
     Davidson diagonalization with overlap
     ethr =  1.81E-05,  avg # of iterations =  1.0

     total cpu time spent up to now is        3.2 secs

     total energy              =     -31.49113022 Ry
     Harris-Foulkes estimate   =     -31.49113021 Ry
     estimated scf accuracy    <       0.00000626 Ry

     iteration # 15     ecut=    30.00 Ry     beta=0.70
     Davidson diagonalization with overlap
     c_bands:  1 eigenvalues not converged
     ethr =  7.83E-08,  avg # of iterations = 20.0

     total cpu time spent up to now is        3.2 secs

     total energy              =     -31.49113018 Ry
     Harris-Foulkes estimate   =     -31.49113027 Ry
     estimated scf accuracy    <       0.00000013 Ry

     iteration # 16     ecut=    30.00 Ry     beta=0.70
     Davidson diagonalization with overlap
     ethr =  1.63E-09,  avg # of iterations =  3.0

     total cpu time spent up to now is        3.3 secs

     total energy              =     -31.49113008 Ry
     Harris-Foulkes estimate   =     -31.49113018 Ry
     estimated scf accuracy    <       0.00000007 Ry

     iteration # 17     ecut=    30.00 Ry     beta=0.70
     Davidson diagonalization with overlap
     ethr =  8.83E-10,  avg # of iterations =  1.0

     total cpu time spent up to now is        3.3 secs

     total energy              =     -31.49113009 Ry
     Harris-Foulkes estimate   =     -31.49113008 Ry
     estimated scf accuracy    <       0.00000002 Ry

     iteration # 18     ecut=    30.00 Ry     beta=0.70
     Davidson diagonalization with overlap
     ethr =  2.21E-10,  avg # of iterations =  1.0

     total cpu time spent up to now is        3.3 secs

     End of self-consistent calculation

          k = 0.0000 0.0000 0.0000 ( 22119 PWs)   bands (ev):

   -23.5779  -7.0014  -6.9928  -6.9924  -6.8873  -6.8778  -0.2318   0.6256

     the Fermi energy is    -6.8577 ev

!    total energy              =     -31.49113010 Ry
     Harris-Foulkes estimate   =     -31.49113010 Ry
     estimated scf accuracy    <          4.9E-11 Ry

     convergence has been achieved in  18 iterations

     Forces acting on atoms (Ry/au):

     atom    1 type  1   force =    -0.00064265   -0.00023290    0.00028643
     atom    2 type  1   force =    -0.00020984    0.00036451    0.00027911
     atom    3 type  2   force =     0.00085249   -0.00013160   -0.00056554

     Total force =     0.001367     Total SCF correction =     0.000060

     Entering Dynamics:    iteration =     3
                           time      =   0.0145 pico-seconds


     Andersen thermostat:    3 collisions

ATOMIC_POSITIONS (bohr)
H        6.003595353   8.300245678  12.228752025
H       14.087581965  18.518142124   4.296542038
O        0.595971226   1.313702382  12.369842058


     kinetic energy (Ekin) =     0.01669160 Ry
     temperature           =   878.46402032 K 
     Ekin + Etot (const)   =   -31.47443850 Ry
     Message from routine dynamics:
     Total linear momentum <> 0

     Linear momentum :    0.3047675616   -0.3500624036   -0.1369358232

     Writing output data file pwscf.save

     second order wave-functions extrapolation
     Check: negative starting charge=   -0.348468
     second order charge density extrapolation
     Check: negative starting charge=   -0.347843

     negative rho (up, down):  6.561E-02 0.000E+00

     total cpu time spent up to now is        3.7 secs

     per-process dynamical memory:    20.4 Mb

     Self-consistent Calculation

     iteration #  1     ecut=    30.00 Ry     beta=0.70
     Davidson diagonalization with overlap
     c_bands:  1 eigenvalues not converged
     ethr =  1.00E-06,  avg # of iterations = 20.0

     negative rho (up, down):  1.478E-02 0.000E+00

     total cpu time spent up to now is        3.8 secs

     total energy              =     -31.43421297 Ry
     Harris-Foulkes estimate   =     -31.43533338 Ry
     estimated scf accuracy    <       0.05346210 Ry

     iteration #  2     ecut=    30.00 Ry     beta=0.70
     Davidson diagonalization with overlap
     ethr =  6.68E-04,  avg # of iterations =  2.0

     negative rho (up, down):  1.345E-02 0.000E+00

     total cpu time spent up to now is        3.8 secs

     total energy              =     -31.49023231 Ry
     Harris-Foulkes estimate   =     -32.00815471 Ry
     estimated scf accuracy    <       4.37573058 Ry

     iteration #  3     ecut=    30.00 Ry     beta=0.70
     Davidson diagonalization with overlap
     ethr =  6.68E-04,  avg # of iterations =  2.0

     negative rho (up, down):  1.323E-02 0.000E+00

     total cpu time spent up to now is        3.9 secs

     total energy              =     -31.48392763 Ry
     Harris-Foulkes estimate   =     -31.49599292 Ry
     estimated scf accuracy    <       1.73810723 Ry

     iteration #  4     ecut=    30.00 Ry     beta=0.70
     Davidson diagonalization with overlap
     ethr =  6.68E-04,  avg # of iterations =  1.0

     negative rho (up, down):  9.684E-03 0.000E+00

     total cpu time spent up to now is        3.9 secs

     total energy              =     -31.41993210 Ry
     Harris-Foulkes estimate   =     -31.48677618 Ry
     estimated scf accuracy    <       0.89414656 Ry

     iteration #  5     ecut=    30.00 Ry     beta=0.70
     Davidson diagonalization with overlap
     ethr =  6.68E-04,  avg # of iterations =  1.0

     negative rho (up, down):  2.815E-03 0.000E+00

     total cpu time spent up to now is        3.9 secs

     total energy              =     -31.45710932 Ry
     Harris-Foulkes estimate   =     -31.54548555 Ry
     estimated scf accuracy    <       2.61709486 Ry

     iteration #  6     ecut=    30.00 Ry     beta=0.70
     Davidson diagonalization with overlap
     ethr =  6.68E-04,  avg # of iterations =  1.0

     negative rho (up, down):  7.015E-04 0.000E+00

     total cpu time spent up to now is        4.0 secs

     total energy              =     -31.49096788 Ry
     Harris-Foulkes estimate   =     -31.48917821 Ry
     estimated scf accuracy    <       0.00134621 Ry

     iteration #  7     ecut=    30.00 Ry     beta=0.70
     Davidson diagonalization with overlap
     ethr =  1.68E-05,  avg # of iterations = 11.0

     negative rho (up, down):  3.193E-04 0.000E+00

     total cpu time spent up to now is        4.0 secs

     total energy              =     -31.49198977 Ry
     Harris-Foulkes estimate   =     -31.49145621 Ry
     estimated scf accuracy    <       0.03289483 Ry

     iteration #  8     ecut=    30.00 Ry     beta=0.70
     Davidson diagonalization with overlap
     ethr =  1.68E-05,  avg # of iterations =  1.0

     negative rho (up, down):  8.493E-07 0.000E+00

     total cpu time spent up to now is        4.1 secs

     total energy              =     -31.49073595 Ry
     Harris-Foulkes estimate   =     -31.49216556 Ry
     estimated scf accuracy    <       0.09736295 Ry

     iteration #  9     ecut=    30.00 Ry     beta=0.70
     Davidson diagonalization with overlap
     ethr =  1.68E-05,  avg # of iterations =  1.0

     total cpu time spent up to now is        4.1 secs

     total energy              =     -31.49092977 Ry
     Harris-Foulkes estimate   =     -31.49127872 Ry
     estimated scf accuracy    <       0.00596934 Ry

     iteration # 10     ecut=    30.00 Ry     beta=0.70
     Davidson diagonalization with overlap
     ethr =  1.68E-05,  avg # of iterations =  1.0

     total cpu time spent up to now is        4.1 secs

     total energy              =     -31.49129200 Ry
     Harris-Foulkes estimate   =     -31.49147755 Ry
     estimated scf accuracy    <       0.02722989 Ry

     iteration # 11     ecut=    30.00 Ry     beta=0.70
     Davidson diagonalization with overlap
     ethr =  1.68E-05,  avg # of iterations =  1.0

     total cpu time spent up to now is        4.2 secs

     total energy              =     -31.49112350 Ry
     Harris-Foulkes estimate   =     -31.49132532 Ry
     estimated scf accuracy    <       0.01110305 Ry

     iteration # 12     ecut=    30.00 Ry     beta=0.70
     Davidson diagonalization with overlap
     ethr =  1.68E-05,  avg # of iterations =  1.0

     total cpu time spent up to now is        4.2 secs

     total energy              =     -31.49122014 Ry
     Harris-Foulkes estimate   =     -31.49122013 Ry
     estimated scf accuracy    <       0.00001604 Ry

     iteration # 13     ecut=    30.00 Ry     beta=0.70
     Davidson diagonalization with overlap
     ethr =  2.00E-07,  avg # of iterations =  1.0

     total cpu time spent up to now is        4.2 secs

     total energy              =     -31.49121958 Ry
     Harris-Foulkes estimate   =     -31.49122017 Ry
     estimated scf accuracy    <       0.00000849 Ry

     iteration # 14     ecut=    30.00 Ry     beta=0.70
     Davidson diagonalization with overlap
     ethr =  1.06E-07,  avg # of iterations =  1.0

     total cpu time spent up to now is        4.3 secs

     total energy              =     -31.49121968 Ry
     Harris-Foulkes estimate   =     -31.49122006 Ry
     estimated scf accuracy    <       0.00001748 Ry

     iteration # 15     ecut=    30.00 Ry     beta=0.70
     Davidson diagonalization with overlap
     ethr =  1.06E-07,  avg # of iterations =  1.0

     total cpu time spent up to now is        4.3 secs

     total energy              =     -31.49121988 Ry
     Harris-Foulkes estimate   =     -31.49121986 Ry
     estimated scf accuracy    <       0.00000001 Ry

     iteration # 16     ecut=    30.00 Ry     beta=0.70
     Davidson diagonalization with overlap
     ethr =  1.30E-10,  avg # of iterations =  1.0

     total cpu time spent up to now is        4.3 secs

     total energy              =     -31.49121978 Ry
     Harris-Foulkes estimate   =     -31.49121988 Ry
     estimated scf accuracy    <       0.00000001 Ry

     iteration # 17     ecut=    30.00 Ry     beta=0.70
     Davidson diagonalization with overlap
     ethr =  1.30E-10,  avg # of iterations =  2.0

     total cpu time spent up to now is        4.4 secs

     End of self-consistent calculation

          k = 0.0000 0.0000 0.0000 ( 22119 PWs)   bands (ev):

   -23.5769  -7.0026  -6.9924  -6.9916  -6.8865  -6.8752  -0.2295   0.6235

     the Fermi energy is    -6.8571 ev

!    total energy              =     -31.49121978 Ry
     Harris-Foulkes estimate   =     -31.49121978 Ry
     estimated scf accuracy    <          5.6E-11 Ry

     convergence has been achieved in  17 iterations

     Forces acting on atoms (Ry/au):

     atom    1 type  1   force =    -0.00066096   -0.00017265    0.00012888
     atom    2 type  1   force =    -0.00013879    0.00038578    0.00013809
     atom    3 type  2   force =     0.00079975   -0.00021314   -0.00026697

     Total force =     0.001194     Total SCF correction =     0.000050

     Entering Dynamics:    iteration =     4
                           time      =   0.0194 pico-seconds


     Andersen thermostat:    3 collisions

ATOMIC_POSITIONS (bohr)
H        5.984832641   8.162234335  12.139207280
H       13.889237123  18.187513396   4.102541553
O        0.609676140   1.343285287  12.387740851


     kinetic energy (Ekin) =     0.01975841 Ry
     temperature           =  1039.86762138 K 
     Ekin + Etot (const)   =   -31.47146137 Ry
     Message from routine dynamics:
     Total linear momentum <> 0

     Linear momentum :    0.6585480540    0.4524520681   -0.2987964083

     Writing output data file pwscf.save

     second order wave-functions extrapolation
     Check: negative starting charge=   -0.347843
     second order charge density extrapolation
     Check: negative starting charge=   -0.347474

     negative rho (up, down):  5.902E-02 0.000E+00

     total cpu time spent up to now is        4.7 secs

     per-process dynamical memory:    20.4 Mb

     Self-consistent Calculation

     iteration #  1     ecut=    30.00 Ry     beta=0.70
     Davidson diagonalization with overlap
     c_bands:  1 eigenvalues not converged
     ethr =  1.00E-06,  avg # of iterations = 20.0

     negative rho (up, down):  1.315E-02 0.000E+00

     total cpu time spent up to now is        4.8 secs

     total energy              =     -31.46369167 Ry
     Harris-Foulkes estimate   =     -31.44197488 Ry
     estimated scf accuracy    <       0.01918503 Ry

     iteration #  2     ecut=    30.00 Ry     beta=0.70
     Davidson diagonalization with overlap
     ethr =  2.40E-04,  avg # of iterations =  2.0

     negative rho (up, down):  1.240E-02 0.000E+00

     total cpu time spent up to now is        4.8 secs

     total energy              =     -31.46258892 Ry
     Harris-Foulkes estimate   =     -31.75905428 Ry
     estimated scf accuracy    <       3.94651696 Ry

     iteration #  3     ecut=    30.00 Ry     beta=0.70
     Davidson diagonalization with overlap
     ethr =  2.40E-04,  avg # of iterations =  2.0

     negative rho (up, down):  1.210E-02 0.000E+00

     total cpu time spent up to now is        4.9 secs

     total energy              =     -31.46816490 Ry
     Harris-Foulkes estimate   =     -31.49785550 Ry
     estimated scf accuracy    <       0.91946648 Ry

     iteration #  4     ecut=    30.00 Ry     beta=0.70
     Davidson diagonalization with overlap
     ethr =  2.40E-04,  avg # of iterations =  1.0

     negative rho (up, down):  2.624E-03 0.000E+00

     total cpu time spent up to now is        4.9 secs

     total energy              =     -31.48017944 Ry
     Harris-Foulkes estimate   =     -31.48051360 Ry
     estimated scf accuracy    <       0.11486636 Ry

     iteration #  5     ecut=    30.00 Ry     beta=0.70
     Davidson diagonalization with overlap
     ethr =  2.40E-04,  avg # of iterations =  3.0

     negative rho (up, down):  1.529E-03 0.000E+00

     total cpu time spent up to now is        4.9 secs

     total energy              =     -31.47344797 Ry
     Harris-Foulkes estimate   =     -31.50291110 Ry
     estimated scf accuracy    <       1.05243129 Ry

     iteration #  6     ecut=    30.00 Ry     beta=0.70
     Davidson diagonalization with overlap
     ethr =  2.40E-04,  avg # of iterations =  1.0

     negative rho (up, down):  6.803E-05 0.000E+00

     total cpu time spent up to now is        5.0 secs

     total energy              =     -31.48969930 Ry
     Harris-Foulkes estimate   =     -31.49136422 Ry
     estimated scf accuracy    <       0.09536099 Ry

     iteration #  7     ecut=    30.00 Ry     beta=0.70
     Davidson diagonalization with overlap
     ethr =  2.40E-04,  avg # of iterations =  6.0

     negative rho (up, down):  1.047E-05 0.000E+00

     total cpu time spent up to now is        5.0 secs

     total energy              =     -31.49125012 Ry
     Harris-Foulkes estimate   =     -31.49130714 Ry
     estimated scf accuracy    <       0.01019531 Ry

     iteration #  8     ecut=    30.00 Ry     beta=0.70
     Davidson diagonalization with overlap
     ethr =  1.27E-04,  avg # of iterations =  1.0

     negative rho (up, down):  1.618E-06 0.000E+00

     total cpu time spent up to now is        5.0 secs

     total energy              =     -31.49116823 Ry
     Harris-Foulkes estimate   =     -31.49126266 Ry
     estimated scf accuracy    <       0.00484401 Ry

     iteration #  9     ecut=    30.00 Ry     beta=0.70
     Davidson diagonalization with overlap
     ethr =  6.06E-05,  avg # of iterations =  1.0

     total cpu time spent up to now is        5.1 secs

     total energy              =     -31.49122661 Ry
     Harris-Foulkes estimate   =     -31.49122273 Ry
     estimated scf accuracy    <       0.00011566 Ry

     iteration # 10     ecut=    30.00 Ry     beta=0.70
     Davidson diagonalization with overlap
     ethr =  1.45E-06,  avg # of iterations =  9.0

     total cpu time spent up to now is        5.1 secs

     total energy              =     -31.49122563 Ry
     Harris-Foulkes estimate   =     -31.49123364 Ry
     estimated scf accuracy    <       0.00062406 Ry

     iteration # 11     ecut=    30.00 Ry     beta=0.70
     Davidson diagonalization with overlap
     ethr =  1.45E-06,  avg # of iterations =  1.0

     total cpu time spent up to now is        5.1 secs

     total energy              =     -31.49122717 Ry
     Harris-Foulkes estimate   =     -31.49122838 Ry
     estimated scf accuracy    <       0.00007068 Ry

     iteration # 12     ecut=    30.00 Ry     beta=0.70
     Davidson diagonalization with overlap
     ethr =  8.83E-07,  avg # of iterations =  1.0

     total cpu time spent up to now is        5.2 secs

     End of self-consistent calculation

          k = 0.0000 0.0000 0.0000 ( 22119 PWs)   bands (ev):

   -23.5787  -7.0054  -6.9938  -6.9930  -6.8880  -6.8750  -0.2298   0.6211

     the Fermi energy is    -6.8584 ev

!    total energy              =     -31.49122779 Ry
     Harris-Foulkes estimate   =     -31.49122786 Ry
     estimated scf accuracy    <          5.9E-09 Ry

     convergence has been achieved in  12 iterations

     Forces acting on atoms (Ry/au):

     atom    1 type  1   force =    -0.00076732    0.00041634    0.00038186
     atom    2 type  1   force =    -0.00027462    0.00085289    0.00033023
     atom    3 type  2   force =     0.00104194   -0.00126923   -0.00071209

     Total force =     0.002241     Total SCF correction =     0.001549
     SCF correction compared to forces is large: reduce conv_thr to get better values

     Entering Dynamics:    iteration =     5
                           time      =   0.0242 pico-seconds


     Andersen thermostat:    3 collisions

ATOMIC_POSITIONS (bohr)
H        5.793186720   8.460152326  12.448277330
H       13.351599756  18.412263708   3.827544503
O        0.655712147   1.310291850  12.385589993


     kinetic energy (Ekin) =     0.03236793 Ry
     temperature           =  1703.49546983 K 
     Ekin + Etot (const)   =   -31.45885986 Ry
     Message from routine dynamics:
     Total linear momentum <> 0

     Linear momentum :    0.2555715914    0.0401351917   -0.1541686132

     Writing output data file pwscf.save

     second order wave-functions extrapolation
     Check: negative starting charge=   -0.347474
     second order charge density extrapolation
     Check: negative starting charge=   -0.349102

     negative rho (up, down):  7.345E-02 0.000E+00

     total cpu time spent up to now is        5.5 secs

     per-process dynamical memory:    20.4 Mb

     Self-consistent Calculation

     iteration #  1     ecut=    30.00 Ry     beta=0.70
     Davidson diagonalization with overlap
     c_bands:  1 eigenvalues not converged
     ethr =  1.00E-06,  avg # of iterations = 20.0

     negative rho (up, down):  1.659E-02 0.000E+00

     total cpu time spent up to now is        5.6 secs

     total energy              =     -31.45515255 Ry
     Harris-Foulkes estimate   =     -31.43541518 Ry
     estimated scf accuracy    <       0.02790863 Ry

     iteration #  2     ecut=    30.00 Ry     beta=0.70
     Davidson diagonalization with overlap
     ethr =  3.49E-04,  avg # of iterations =  2.0

     negative rho (up, down):  1.486E-02 0.000E+00

     total cpu time spent up to now is        5.6 secs

     total energy              =     -31.47778956 Ry
     Harris-Foulkes estimate   =     -31.64412628 Ry
     estimated scf accuracy    <       1.26331221 Ry

     iteration #  3     ecut=    30.00 Ry     beta=0.70
     Davidson diagonalization with overlap
     ethr =  3.49E-04,  avg # of iterations =  2.0

     negative rho (up, down):  1.475E-02 0.000E+00

     total cpu time spent up to now is        5.6 secs

     total energy              =     -31.46838193 Ry
     Harris-Foulkes estimate   =     -31.49980543 Ry
     estimated scf accuracy    <       2.02647728 Ry

     iteration #  4     ecut=    30.00 Ry     beta=0.70
     Davidson diagonalization with overlap
     ethr =  3.49E-04,  avg # of iterations =  1.0

     negative rho (up, down):  7.189E-03 0.000E+00

     total cpu time spent up to now is        5.7 secs

     total energy              =     -31.44214011 Ry
     Harris-Foulkes estimate   =     -31.48187293 Ry
     estimated scf accuracy    <       0.31790669 Ry

     iteration #  5     ecut=    30.00 Ry     beta=0.70
     Davidson diagonalization with overlap
     ethr =  3.49E-04,  avg # of iterations =  1.0

     negative rho (up, down):  2.038E-03 0.000E+00

     total cpu time spent up to now is        5.7 secs

     total energy              =     -31.50230424 Ry
     Harris-Foulkes estimate   =     -31.52759811 Ry
     estimated scf accuracy    <       0.67989239 Ry

     iteration #  6     ecut=    30.00 Ry     beta=0.70
     Davidson diagonalization with overlap
     ethr =  3.49E-04,  avg # of iterations =  1.0

     negative rho (up, down):  1.145E-03 0.000E+00

     total cpu time spent up to now is        5.7 secs

     total energy              =     -31.48351358 Ry
     Harris-Foulkes estimate   =     -31.50353751 Ry
     estimated scf accuracy    <       0.51865955 Ry

     iteration #  7     ecut=    30.00 Ry     beta=0.70
     Davidson diagonalization with overlap
     ethr =  3.49E-04,  avg # of iterations =  1.0

     negative rho (up, down):  3.516E-04 0.000E+00

     total cpu time spent up to now is        5.8 secs

     total energy              =     -31.49086371 Ry
     Harris-Foulkes estimate   =     -31.49091037 Ry
     estimated scf accuracy    <       0.00769156 Ry

     iteration #  8     ecut=    30.00 Ry     beta=0.70
     Davidson diagonalization with overlap
     ethr =  9.61E-05,  avg # of iterations =  7.0

     negative rho (up, down):  1.606E-06 0.000E+00

     total cpu time spent up to now is        5.8 secs

     total energy              =     -31.49089708 Ry
     Harris-Foulkes estimate   =     -31.49126970 Ry
     estimated scf accuracy    <       0.00705344 Ry

     iteration #  9     ecut=    30.00 Ry     beta=0.70
     Davidson diagonalization with overlap
     ethr =  8.82E-05,  avg # of iterations =  1.0

     total cpu time spent up to now is        5.8 secs

     total energy              =     -31.49127968 Ry
     Harris-Foulkes estimate   =     -31.49126109 Ry
     estimated scf accuracy    <       0.00637599 Ry

     iteration # 10     ecut=    30.00 Ry     beta=0.70
     Davidson diagonalization with overlap
     ethr =  7.97E-05,  avg # of iterations =  1.0

     total cpu time spent up to now is        5.9 secs

     total energy              =     -31.49100111 Ry
     Harris-Foulkes estimate   =     -31.49128400 Ry
     estimated scf accuracy    <       0.00684489 Ry

     iteration # 11     ecut=    30.00 Ry     beta=0.70
     Davidson diagonalization with overlap
     ethr =  7.97E-05,  avg # of iterations =  1.0

     total cpu time spent up to now is        5.9 secs

     total energy              =     -31.49112662 Ry
     Harris-Foulkes estimate   =     -31.49120815 Ry
     estimated scf accuracy    <       0.00152420 Ry

     iteration # 12     ecut=    30.00 Ry     beta=0.70
     Davidson diagonalization with overlap
     ethr =  1.91E-05,  avg # of iterations =  1.0

     total cpu time spent up to now is        5.9 secs

     total energy              =     -31.49117242 Ry
     Harris-Foulkes estimate   =     -31.49120268 Ry
     estimated scf accuracy    <       0.00119780 Ry

     iteration # 13     ecut=    30.00 Ry     beta=0.70
     Davidson diagonalization with overlap
     ethr =  1.50E-05,  avg # of iterations =  1.0

     total cpu time spent up to now is        6.0 secs

     total energy              =     -31.49118561 Ry
     Harris-Foulkes estimate   =     -31.49118580 Ry
     estimated scf accuracy    <       0.00001078 Ry

     iteration # 14     ecut=    30.00 Ry     beta=0.70
     Davidson diagonalization with overlap
     ethr =  1.35E-07,  avg # of iterations = 13.0

     total cpu time spent up to now is        6.0 secs

     total energy              =     -31.49118554 Ry
     Harris-Foulkes estimate   =     -31.49118562 Ry
     estimated scf accuracy    <       0.00001153 Ry

     iteration # 15     ecut=    30.00 Ry     beta=0.70
     Davidson diagonalization with overlap
     ethr =  1.35E-07,  avg # of iterations =  1.0

     total cpu time spent up to now is        6.1 secs

     total energy              =     -31.49118553 Ry
     Harris-Foulkes estimate   =     -31.49118558 Ry
     estimated scf accuracy    <       0.00000294 Ry

     iteration # 16     ecut=    30.00 Ry     beta=0.70
     Davidson diagonalization with overlap
     ethr =  3.68E-08,  avg # of iterations =  1.0

     total cpu time spent up to now is        6.1 secs

     End of self-consistent calculation

          k = 0.0000 0.0000 0.0000 ( 22119 PWs)   bands (ev):

   -23.5799  -7.0048  -6.9944  -6.9942  -6.8894  -6.8777  -0.2323   0.6313

     the Fermi energy is    -6.8595 ev

!    total energy              =     -31.49118544 Ry
     Harris-Foulkes estimate   =     -31.49118557 Ry
     estimated scf accuracy    <          8.5E-10 Ry

     convergence has been achieved in  16 iterations

     Forces acting on atoms (Ry/au):

     atom    1 type  1   force =    -0.00058353   -0.00024477    0.00020172
     atom    2 type  1   force =    -0.00020869    0.00033416    0.00024844
     atom    3 type  2   force =     0.00079222   -0.00008940   -0.00045016

     Total force =     0.001223     Total SCF correction =     0.000318
     SCF correction compared to forces is large: reduce conv_thr to get better values

     Entering Dynamics:    iteration =     6
                           time      =   0.0290 pico-seconds


     Andersen thermostat:    3 collisions

ATOMIC_POSITIONS (bohr)
H        5.761402645   7.870174786  12.332085072
H       12.982553043  18.198788084   4.180643518
O        0.681014591   1.361009831  12.370635254


     kinetic energy (Ekin) =     0.03379994 Ry
     temperature           =  1778.86053920 K 
     Ekin + Etot (const)   =   -31.45738550 Ry
     Message from routine dynamics:
     Total linear momentum <> 0

     Linear momentum :    0.0271839412   -0.0722010692   -0.2133873842

     Writing output data file pwscf.save

     second order wave-functions extrapolation
     Check: negative starting charge=   -0.349102
     second order charge density extrapolation
     Check: negative starting charge=   -0.347495

     negative rho (up, down):  8.685E-02 0.000E+00

     total cpu time spent up to now is        6.4 secs

     per-process dynamical memory:    20.4 Mb

     Self-consistent Calculation

     iteration #  1     ecut=    30.00 Ry     beta=0.70
     Davidson diagonalization with overlap
     ethr =  1.00E-06,  avg # of iterations = 10.0

     negative rho (up, down):  1.626E-02 0.000E+00

     total cpu time spent up to now is        6.5 secs

     total energy              =      -2.44518618 Ry
     Harris-Foulkes estimate   =     -77.62916006 Ry
     estimated scf accuracy    <       5.72775059 Ry

     iteration #  2     ecut=    30.00 Ry     beta=0.70
     Davidson diagonalization with overlap
     ethr =  1.00E-02,  avg # of iterations =  4.0

     negative rho (up, down):  1.079E-02 0.000E+00

     total cpu time spent up to now is        6.5 secs

     total energy              =     -31.42214163 Ry
     Harris-Foulkes estimate   =     -35.16082780 Ry
     estimated scf accuracy    <       7.79031193 Ry

     iteration #  3     ecut=    30.00 Ry     beta=0.70
     Davidson diagonalization with overlap
     ethr =  1.00E-02,  avg # of iterations =  4.0

     negative rho (up, down):  2.280E-03 0.000E+00

     total cpu time spent up to now is        6.6 secs

     total energy              =     -31.53112401 Ry
     Harris-Foulkes estimate   =     -33.30226563 Ry
     estimated scf accuracy    <       6.64562332 Ry

     iteration #  4     ecut=    30.00 Ry     beta=0.70
     Davidson diagonalization with overlap
     ethr =  1.00E-02,  avg # of iterations =  2.0

     negative rho (up, down):  2.090E-03 0.000E+00

     total cpu time spent up to now is        6.6 secs

     total energy              =     -32.56429671 Ry
     Harris-Foulkes estimate   =     -32.41502124 Ry
     estimated scf accuracy    <       2.31391148 Ry

     iteration #  5     ecut=    30.00 Ry     beta=0.70
     Davidson diagonalization with overlap
     ethr =  1.00E-02,  avg # of iterations =  1.0

     negative rho (up, down):  2.139E-03 0.000E+00

     total cpu time spent up to now is        6.6 secs

     total energy              =     -32.21292727 Ry
     Harris-Foulkes estimate   =     -32.56504083 Ry
     estimated scf accuracy    <       2.52199323 Ry

     iteration #  6     ecut=    30.00 Ry     beta=0.70
     Davidson diagonalization with overlap
     ethr =  1.00E-02,  avg # of iterations =  1.0

     negative rho (up, down):  2.250E-03 0.000E+00

     total cpu time spent up to now is        6.7 secs

     total energy              =     -31.72908612 Ry
     Harris-Foulkes estimate   =     -32.21114751 Ry
     estimated scf accuracy    <       2.11009088 Ry

     iteration #  7     ecut=    30.00 Ry     beta=0.70
     Davidson diagonalization with overlap
     ethr =  1.00E-02,  avg # of iterations =  1.0

     negative rho (up, down):  1.512E-03 0.000E+00

     total cpu time spent up to now is        6.7 secs

     total energy              =     -31.76891889 Ry
     Harris-Foulkes estimate   =     -32.02388447 Ry
     estimated scf accuracy    <       3.38848034 Ry

     iteration #  8     ecut=    30.00 Ry     beta=0.70
     Davidson diagonalization with overlap
     ethr =  1.00E-02,  avg # of iterations =  1.0

     negative rho (up, down):  1.439E-06 0.000E+00

     total cpu time spent up to now is        6.7 secs

     total energy              =     -30.81073398 Ry
     Harris-Foulkes estimate   =     -31.76953379 Ry
     estimated scf accuracy    <       3.01701439 Ry

     iteration #  9     ecut=    30.00 Ry     beta=0.70
     Davidson diagonalization with overlap
     ethr =  1.00E-02,  avg # of iterations =  2.0

     negative rho (up, down):  9.195E-04 0.000E+00

     total cpu time spent up to now is        6.8 secs

     total energy              =     -31.60055692 Ry
     Harris-Foulkes estimate   =     -32.67108383 Ry
     estimated scf accuracy    <       5.42556053 Ry

     iteration # 10     ecut=    30.00 Ry     beta=0.70
     Davidson diagonalization with overlap
     ethr =  1.00E-02,  avg # of iterations =  1.0

     total cpu time spent up to now is        6.8 secs

     total energy              =     -32.52696306 Ry
     Harris-Foulkes estimate   =     -31.67241444 Ry
     estimated scf accuracy    <       1.35592834 Ry

     iteration # 11     ecut=    30.00 Ry     beta=0.70
     Davidson diagonalization with overlap
     ethr =  1.00E-02,  avg # of iterations =  2.0

     total cpu time spent up to now is        6.8 secs

     total energy              =     -32.77797896 Ry
     Harris-Foulkes estimate   =     -32.75897205 Ry
     estimated scf accuracy    <       5.59622137 Ry

     iteration # 12     ecut=    30.00 Ry     beta=0.70
     Davidson diagonalization with overlap
     ethr =  1.00E-02,  avg # of iterations =  1.0

     negative rho (up, down):  2.513E-06 0.000E+00

     total cpu time spent up to now is        6.9 secs

     total energy              =     -32.66702250 Ry
     Harris-Foulkes estimate   =     -32.77903113 Ry
     estimated scf accuracy    <       5.64627669 Ry

     iteration # 13     ecut=    30.00 Ry     beta=0.70
     Davidson diagonalization with overlap
     ethr =  1.00E-02,  avg # of iterations =  1.0

     negative rho (up, down):  7.704E-07 0.000E+00

     total cpu time spent up to now is        6.9 secs

     total energy              =     -32.64685204 Ry
     Harris-Foulkes estimate   =     -32.67119748 Ry
     estimated scf accuracy    <       5.47519751 Ry

     iteration # 14     ecut=    30.00 Ry     beta=0.70
     Davidson diagonalization with overlap
     ethr =  1.00E-02,  avg # of iterations =  1.0

     negative rho (up, down):  1.775E-03 0.000E+00

     total cpu time spent up to now is        6.9 secs

     total energy              =     -33.00358473 Ry
     Harris-Foulkes estimate   =     -32.64749482 Ry
     estimated scf accuracy    <       5.45473101 Ry

     iteration # 15     ecut=    30.00 Ry     beta=0.70
     Davidson diagonalization with overlap
     ethr =  1.00E-02,  avg # of iterations =  2.0

     negative rho (up, down):  6.765E-02 0.000E+00

     total cpu time spent up to now is        7.0 secs

     total energy              =     -32.11442024 Ry
     Harris-Foulkes estimate   =     -33.15606930 Ry
     estimated scf accuracy    <       6.09061650 Ry

     iteration # 16     ecut=    30.00 Ry     beta=0.70
     Davidson diagonalization with overlap
     ethr =  1.00E-02,  avg # of iterations =  6.0

     negative rho (up, down):  3.221E-01 0.000E+00

     total cpu time spent up to now is        7.0 secs

     total energy              =     -32.25894202 Ry
     Harris-Foulkes estimate   =     -36.64080683 Ry
     estimated scf accuracy    <      19.75489078 Ry

     iteration # 17     ecut=    30.00 Ry     beta=0.70
     Davidson diagonalization with overlap
     ethr =  1.00E-02,  avg # of iterations =  6.0

     negative rho (up, down):  1.733E-01 0.000E+00

     total cpu time spent up to now is        7.0 secs

     total energy              =     -65.22451763 Ry
     Harris-Foulkes estimate   =     -45.39369372 Ry
     estimated scf accuracy    <      37.27397098 Ry

     iteration # 18     ecut=    30.00 Ry     beta=0.70
     Davidson diagonalization with overlap
     ethr =  1.00E-02,  avg # of iterations =  7.0

     negative rho (up, down):  3.075E-01 0.000E+00

     total cpu time spent up to now is        7.1 secs

     total energy              =      37.37644220 Ry
     Harris-Foulkes estimate   =    -302.25083447 Ry
     estimated scf accuracy    <      78.13177924 Ry

     iteration # 19     ecut=    30.00 Ry     beta=0.70
     Davidson diagonalization with overlap
     ethr =  1.00E-02,  avg # of iterations =  6.0

     negative rho (up, down):  1.373E+00 0.000E+00

     total cpu time spent up to now is        7.1 secs

     total energy              =     -52.42676647 Ry
     Harris-Foulkes estimate   =     -82.55329941 Ry
     estimated scf accuracy    <      74.31497080 Ry

     iteration # 20     ecut=    30.00 Ry     beta=0.70
     Davidson diagonalization with overlap
     ethr =  1.00E-02,  avg # of iterations =  6.0

     negative rho (up, down):  1.120E+00 0.000E+00

     total cpu time spent up to now is        7.2 secs

     total energy              =      43.19228558 Ry
     Harris-Foulkes estimate   =    -296.55546133 Ry
     estimated scf accuracy    <      78.11633763 Ry

     iteration # 21     ecut=    30.00 Ry     beta=0.70
     Davidson diagonalization with overlap
     ethr =  1.00E-02,  avg # of iterations =  9.0

     negative rho (up, down):  1.266E+00 0.000E+00

     total cpu time spent up to now is        7.3 secs

     total energy              =    -431.38936358 Ry
     Harris-Foulkes estimate   =    -487.21763025 Ry
     estimated scf accuracy    <      89.13620329 Ry

     iteration # 22     ecut=    30.00 Ry     beta=0.70
     Davidson diagonalization with overlap
     ethr =  1.00E-02,  avg # of iterations =  5.0

     negative rho (up, down):  1.004E+00 0.000E+00

     total cpu time spent up to now is        7.3 secs

     total energy              =    -171.53138904 Ry
     Harris-Foulkes estimate   =   -1507.62023797 Ry
     estimated scf accuracy    <      81.68971075 Ry

     iteration # 23     ecut=    30.00 Ry     beta=0.70
     Davidson diagonalization with overlap
     ethr =  1.00E-02,  avg # of iterations =  8.0

     negative rho (up, down):  1.264E+00 0.000E+00

     total cpu time spent up to now is        7.4 secs

     total energy              =    -326.40876122 Ry
     Harris-Foulkes estimate   =   -1171.41385962 Ry
     estimated scf accuracy    <      86.71992186 Ry

     iteration # 24     ecut=    30.00 Ry     beta=0.70
     Davidson diagonalization with overlap
     ethr =  1.00E-02,  avg # of iterations =  6.0

     negative rho (up, down):  2.264E+00 0.000E+00

     total cpu time spent up to now is        7.4 secs

     total energy              =     104.97847132 Ry
     Harris-Foulkes estimate   =    -779.89468974 Ry
     estimated scf accuracy    <      76.50626036 Ry

     iteration # 25     ecut=    30.00 Ry     beta=0.70
     Davidson diagonalization with overlap
     ethr =  1.00E-02,  avg # of iterations =  7.0

     negative rho (up, down):  3.019E+00 0.000E+00

     total cpu time spent up to now is        7.5 secs

     total energy              =   -1034.94757198 Ry
     Harris-Foulkes estimate   =   -4639.09732622 Ry
     estimated scf accuracy    <      75.54305339 Ry

     iteration # 26     ecut=    30.00 Ry     beta=0.70
     Davidson diagonalization with overlap
     ethr =  1.00E-02,  avg # of iterations =  5.0

     negative rho (up, down):  1.836E+00 0.000E+00

     total cpu time spent up to now is        7.5 secs

     total energy              =      43.81483214 Ry
     Harris-Foulkes estimate   =  -13749.56457206 Ry
     estimated scf accuracy    <      67.63279333 Ry

     iteration # 27     ecut=    30.00 Ry     beta=0.70
     Davidson diagonalization with overlap
     ethr =  1.00E-02,  avg # of iterations =  8.0

     negative rho (up, down):  3.051E+00 0.000E+00

     total cpu time spent up to now is        7.6 secs

     total energy              =    -392.99685721 Ry
     Harris-Foulkes estimate   =   -2145.93775489 Ry
     estimated scf accuracy    <      30.97632126 Ry

     iteration # 28     ecut=    30.00 Ry     beta=0.70
     Davidson diagonalization with overlap
     ethr =  1.00E-02,  avg # of iterations =  8.0

     negative rho (up, down):  1.833E+00 0.000E+00

     total cpu time spent up to now is        7.6 secs

     total energy              =   -1673.85459200 Ry
     Harris-Foulkes estimate   =  -12730.43831794 Ry
     estimated scf accuracy    <      20.65530323 Ry

     iteration # 29     ecut=    30.00 Ry     beta=0.70
     Davidson diagonalization with overlap
     ethr =  1.00E-02,  avg # of iterations =  7.0

     negative rho (up, down):  1.849E+00 0.000E+00

     total cpu time spent up to now is        7.7 secs

     total energy              =      92.59568634 Ry
     Harris-Foulkes estimate   =   -5213.60384891 Ry
     estimated scf accuracy    <      27.54249903 Ry

     iteration # 30     ecut=    30.00 Ry     beta=0.70
     Davidson diagonalization with overlap
     ethr =  1.00E-02,  avg # of iterations = 12.0

     negative rho (up, down):  1.783E+00 0.000E+00

     total cpu time spent up to now is        7.8 secs

     total energy              =    -337.99325198 Ry
     Harris-Foulkes estimate   =   -3577.18348836 Ry
     estimated scf accuracy    <      22.19144761 Ry

     iteration # 31     ecut=    30.00 Ry     beta=0.70
     Davidson diagonalization with overlap
     ethr =  1.00E-02,  avg # of iterations =  8.0

     negative rho (up, down):  1.031E-01 0.000E+00

     total cpu time spent up to now is        7.8 secs

     total energy              =      48.23791711 Ry
     Harris-Foulkes estimate   =  -35101.00716371 Ry
     estimated scf accuracy    <      27.67355506 Ry

     iteration # 32     ecut=    30.00 Ry     beta=0.70
     Davidson diagonalization with overlap
     ethr =  1.00E-02,  avg # of iterations = 13.0

     negative rho (up, down):  9.129E-02 0.000E+00

     total cpu time spent up to now is        7.9 secs

     total energy              =      34.40844125 Ry
     Harris-Foulkes estimate   =   -1665.23251745 Ry
     estimated scf accuracy    <      25.51559157 Ry

     iteration # 33     ecut=    30.00 Ry     beta=0.70
     Davidson diagonalization with overlap
     ethr =  1.00E-02,  avg # of iterations = 15.0

     negative rho (up, down):  2.017E-01 0.000E+00

     total cpu time spent up to now is        8.0 secs

     total energy              =      36.46271910 Ry
     Harris-Foulkes estimate   =    -250.29249061 Ry
     estimated scf accuracy    <      29.44807361 Ry

     iteration # 34     ecut=    30.00 Ry     beta=0.70
     Davidson diagonalization with overlap
     ethr =  1.00E-02,  avg # of iterations =  8.0

     negative rho (up, down):  1.495E-01 0.000E+00

     total cpu time spent up to now is        8.0 secs

     total energy              =     -14.77702010 Ry
     Harris-Foulkes estimate   =    -388.78013878 Ry
     estimated scf accuracy    <      21.05278840 Ry

     iteration # 35     ecut=    30.00 Ry     beta=0.70
     Davidson diagonalization with overlap
     ethr =  1.00E-02,  avg # of iterations =  6.0

     negative rho (up, down):  1.628E-01 0.000E+00

     total cpu time spent up to now is        8.1 secs

     total energy              =     112.30412404 Ry
     Harris-Foulkes estimate   =   -1885.05632725 Ry
     estimated scf accuracy    <      30.51473885 Ry

     iteration # 36     ecut=    30.00 Ry     beta=0.70
     Davidson diagonalization with overlap
     ethr =  1.00E-02,  avg # of iterations =  7.0

     negative rho (up, down):  1.922E-01 0.000E+00

     total cpu time spent up to now is        8.1 secs

     total energy              =      86.46656386 Ry
     Harris-Foulkes estimate   =   -1742.10556679 Ry
     estimated scf accuracy    <      22.17121941 Ry

     iteration # 37     ecut=    30.00 Ry     beta=0.70
     Davidson diagonalization with overlap
     ethr =  1.00E-02,  avg # of iterations =  9.0

     negative rho (up, down):  1.190E-01 0.000E+00

     total cpu time spent up to now is        8.2 secs

     total energy              =     -15.41653529 Ry
     Harris-Foulkes estimate   =    -286.19878049 Ry
     estimated scf accuracy    <      13.62359414 Ry

     iteration # 38     ecut=    30.00 Ry     beta=0.70
     Davidson diagonalization with overlap
     ethr =  1.00E-02,  avg # of iterations =  8.0

     negative rho (up, down):  2.388E-02 0.000E+00

     total cpu time spent up to now is        8.2 secs

     total energy              =     113.84751755 Ry
     Harris-Foulkes estimate   =    -954.15347723 Ry
     estimated scf accuracy    <      26.56246529 Ry

     iteration # 39     ecut=    30.00 Ry     beta=0.70
     Davidson diagonalization with overlap
     ethr =  1.00E-02,  avg # of iterations = 12.0

     negative rho (up, down):  4.187E-03 0.000E+00

     total cpu time spent up to now is        8.3 secs

     total energy              =     -72.59900205 Ry
     Harris-Foulkes estimate   =     -72.48178669 Ry
     estimated scf accuracy    <      54.65878997 Ry

     iteration # 40     ecut=    30.00 Ry     beta=0.70
     Davidson diagonalization with overlap
     ethr =  1.00E-02,  avg # of iterations =  1.0

     negative rho (up, down):  1.318E-02 0.000E+00

     total cpu time spent up to now is        8.3 secs

     total energy              =     -69.51554482 Ry
     Harris-Foulkes estimate   =     -72.60026200 Ry
     estimated scf accuracy    <      54.82755146 Ry

     iteration # 41     ecut=    30.00 Ry     beta=0.70
     Davidson diagonalization with overlap
     ethr =  1.00E-02,  avg # of iterations =  1.0

     negative rho (up, down):  4.706E-02 0.000E+00

     total cpu time spent up to now is        8.4 secs

     total energy              =     -64.87108939 Ry
     Harris-Foulkes estimate   =     -69.52403372 Ry
     estimated scf accuracy    <      50.86604589 Ry

     iteration # 42     ecut=    30.00 Ry     beta=0.70
     Davidson diagonalization with overlap
     ethr =  1.00E-02,  avg # of iterations =  1.0

     negative rho (up, down):  5.905E-02 0.000E+00

     total cpu time spent up to now is        8.4 secs

     total energy              =     -43.20318198 Ry
     Harris-Foulkes estimate   =     -64.88469596 Ry
     estimated scf accuracy    <      44.95530820 Ry

     iteration # 43     ecut=    30.00 Ry     beta=0.70
     Davidson diagonalization with overlap
     ethr =  1.00E-02,  avg # of iterations =  7.0

     negative rho (up, down):  2.409E-02 0.000E+00

     total cpu time spent up to now is        8.4 secs

     total energy              =     -42.37844963 Ry
     Harris-Foulkes estimate   =    -151.38435199 Ry
     estimated scf accuracy    <      12.68064141 Ry

     iteration # 44     ecut=    30.00 Ry     beta=0.70
     Davidson diagonalization with overlap
     ethr =  1.00E-02,  avg # of iterations =  6.0

     negative rho (up, down):  2.214E-03 0.000E+00

     total cpu time spent up to now is        8.5 secs

     total energy              =      75.16038172 Ry
     Harris-Foulkes estimate   =   -1743.36144493 Ry
     estimated scf accuracy    <      22.01134285 Ry

     iteration # 45     ecut=    30.00 Ry     beta=0.70
     Davidson diagonalization with overlap
     ethr =  1.00E-02,  avg # of iterations =  4.0

     negative rho (up, down):  1.534E-02 0.000E+00

     total cpu time spent up to now is        8.6 secs

     total energy              =     -64.28725356 Ry
     Harris-Foulkes estimate   =     -43.41149378 Ry
     estimated scf accuracy    <      18.62734488 Ry

     iteration # 46     ecut=    30.00 Ry     beta=0.70
     Davidson diagonalization with overlap
     ethr =  1.00E-02,  avg # of iterations =  3.0

     negative rho (up, down):  6.978E-02 0.000E+00

     total cpu time spent up to now is        8.7 secs

     total energy              =     -49.90091729 Ry
     Harris-Foulkes estimate   =     -64.75396372 Ry
     estimated scf accuracy    <      44.82068020 Ry

     iteration # 47     ecut=    30.00 Ry     beta=0.70
     Davidson diagonalization with overlap
     ethr =  1.00E-02,  avg # of iterations =  6.0

     negative rho (up, down):  1.664E-01 0.000E+00

     total cpu time spent up to now is        8.7 secs

     total energy              =     -11.69170896 Ry
     Harris-Foulkes estimate   =    -163.96777341 Ry
     estimated scf accuracy    <      17.93772917 Ry

     iteration # 48     ecut=    30.00 Ry     beta=0.70
     Davidson diagonalization with overlap
     ethr =  1.00E-02,  avg # of iterations =  8.0

     negative rho (up, down):  1.567E-01 0.000E+00

     total cpu time spent up to now is        8.8 secs

     total energy              =     -48.73644416 Ry
     Harris-Foulkes estimate   =    -365.30109642 Ry
     estimated scf accuracy    <      45.83365879 Ry

     iteration # 49     ecut=    30.00 Ry     beta=0.70
     Davidson diagonalization with overlap
[...]
     Harris-Foulkes estimate   =   -1078.02552595 Ry
     estimated scf accuracy    <      22.51641780 Ry

     iteration # 59     ecut=    30.00 Ry     beta=0.70
     Davidson diagonalization with overlap
     ethr =  1.00E-02,  avg # of iterations =  6.0

     negative rho (up, down):  1.648E-01 0.000E+00

     total cpu time spent up to now is        9.3 secs

     total energy              =     -51.32171069 Ry
     Harris-Foulkes estimate   =    -279.37084253 Ry
     estimated scf accuracy    <      35.92263354 Ry

     iteration # 60     ecut=    30.00 Ry     beta=0.70
     Davidson diagonalization with overlap
     ethr =  1.00E-02,  avg # of iterations = 10.0

     negative rho (up, down):  1.461E-01 0.000E+00

     total cpu time spent up to now is        9.4 secs

     total energy              =      28.46798061 Ry
     Harris-Foulkes estimate   =    -215.36453662 Ry
     estimated scf accuracy    <      35.05954130 Ry

     iteration # 61     ecut=    30.00 Ry     beta=0.70
     Davidson diagonalization with overlap
     ethr =  1.00E-02,  avg # of iterations =  8.0

     negative rho (up, down):  1.876E-01 0.000E+00

     total cpu time spent up to now is        9.4 secs

     total energy              =    -168.80976652 Ry
     Harris-Foulkes estimate   =    -148.16599989 Ry
     estimated scf accuracy    <      38.73821256 Ry

     iteration # 62     ecut=    30.00 Ry     beta=0.70
     Davidson diagonalization with overlap
     ethr =  1.00E-02,  avg # of iterations =  6.0

     negative rho (up, down):  5.567E-01 0.000E+00

     total cpu time spent up to now is        9.5 secs

     total energy              =   -4563.71131282 Ry
     Harris-Foulkes estimate   =    -542.50618638 Ry
     estimated scf accuracy    <      35.79307069 Ry

     iteration # 63     ecut=    30.00 Ry     beta=0.70
     Davidson diagonalization with overlap
     ethr =  1.00E-02,  avg # of iterations =  7.0

     negative rho (up, down):  5.309E-01 0.000E+00

     total cpu time spent up to now is        9.6 secs

     total energy              =     -38.76758133 Ry
     Harris-Foulkes estimate   =   -7927.08186165 Ry
     estimated scf accuracy    <      64.22977876 Ry

     iteration # 64     ecut=    30.00 Ry     beta=0.70
     Davidson diagonalization with overlap
     ethr =  1.00E-02,  avg # of iterations =  7.0

     negative rho (up, down):  9.709E-01 0.000E+00

     total cpu time spent up to now is        9.6 secs

     total energy              =     399.69654518 Ry
     Harris-Foulkes estimate   =   -1815.27480153 Ry
     estimated scf accuracy    <      60.53347856 Ry

     iteration # 65     ecut=    30.00 Ry     beta=0.70
     Davidson diagonalization with overlap
     ethr =  1.00E-02,  avg # of iterations =  9.0

     negative rho (up, down):  1.907E+00 0.000E+00

     total cpu time spent up to now is        9.7 secs

     total energy              =    -225.06091386 Ry
     Harris-Foulkes estimate   =    -722.94886953 Ry
     estimated scf accuracy    <      52.17254690 Ry

     iteration # 66     ecut=    30.00 Ry     beta=0.70
     Davidson diagonalization with overlap
     ethr =  1.00E-02,  avg # of iterations =  9.0

     negative rho (up, down):  2.490E+00 0.000E+00

     total cpu time spent up to now is        9.8 secs

     total energy              =   -1511.23078326 Ry
     Harris-Foulkes estimate   =  -29233.34047315 Ry
     estimated scf accuracy    <      48.82426166 Ry

     iteration # 67     ecut=    30.00 Ry     beta=0.70
     Davidson diagonalization with overlap
     ethr =  1.00E-02,  avg # of iterations =  8.0

     negative rho (up, down):  3.248E+00 0.000E+00

     total cpu time spent up to now is        9.8 secs

     total energy              =    5066.13466344 Ry
     Harris-Foulkes estimate   =   -8920.87124285 Ry
     estimated scf accuracy    <      44.45906899 Ry

     iteration # 68     ecut=    30.00 Ry     beta=0.70
     Davidson diagonalization with overlap
     ethr =  1.00E-02,  avg # of iterations =  8.0

     negative rho (up, down):  3.782E+00 0.000E+00

     total cpu time spent up to now is        9.9 secs

     total energy              =    -975.61045318 Ry
     Harris-Foulkes estimate   =  -44715.28427864 Ry
     estimated scf accuracy    <      46.79634896 Ry

     iteration # 69     ecut=    30.00 Ry     beta=0.70
     Davidson diagonalization with overlap
     ethr =  1.00E-02,  avg # of iterations =  8.0

     negative rho (up, down):  3.640E+00 0.000E+00

     total cpu time spent up to now is        9.9 secs

     total energy              =     108.50200134 Ry
     Harris-Foulkes estimate   =  -11230.31143668 Ry
     estimated scf accuracy    <      36.28968777 Ry

     iteration # 70     ecut=    30.00 Ry     beta=0.70
     Davidson diagonalization with overlap
     ethr =  1.00E-02,  avg # of iterations =  8.0

     negative rho (up, down):  3.658E+00 0.000E+00

     total cpu time spent up to now is       10.0 secs

     total energy              =   -1319.65841071 Ry
     Harris-Foulkes estimate   =   -1273.03561430 Ry
     estimated scf accuracy    <      35.05228803 Ry

     iteration # 71     ecut=    30.00 Ry     beta=0.70
     Davidson diagonalization with overlap
     ethr =  1.00E-02,  avg # of iterations =  8.0

     negative rho (up, down):  1.508E+00 0.000E+00

     total cpu time spent up to now is       10.1 secs

     total energy              =    2894.16198383 Ry
     Harris-Foulkes estimate   =  -10037.29492069 Ry
     estimated scf accuracy    <      29.35259328 Ry

     iteration # 72     ecut=    30.00 Ry     beta=0.70
     Davidson diagonalization with overlap
     ethr =  1.00E-02,  avg # of iterations =  7.0

     negative rho (up, down):  3.761E-01 0.000E+00

     total cpu time spent up to now is       10.1 secs

     total energy              =      17.17104999 Ry
     Harris-Foulkes estimate   =   -2312.87534640 Ry
     estimated scf accuracy    <      32.07805119 Ry

     iteration # 73     ecut=    30.00 Ry     beta=0.70
     Davidson diagonalization with overlap
     ethr =  1.00E-02,  avg # of iterations =  9.0

     negative rho (up, down):  3.034E-01 0.000E+00

     total cpu time spent up to now is       10.2 secs

     total energy              =   -2190.49133693 Ry
     Harris-Foulkes estimate   =   -2909.36912855 Ry
     estimated scf accuracy    <      14.45174533 Ry

     iteration # 74     ecut=    30.00 Ry     beta=0.70
     Davidson diagonalization with overlap
     ethr =  1.00E-02,  avg # of iterations =  7.0

     negative rho (up, down):  4.739E-01 0.000E+00

     total cpu time spent up to now is       10.2 secs

     total energy              =     128.59468529 Ry
     Harris-Foulkes estimate   =  -42822.52372647 Ry
     estimated scf accuracy    <      21.29235505 Ry

     iteration # 75     ecut=    30.00 Ry     beta=0.70
     Davidson diagonalization with overlap
     ethr =  1.00E-02,  avg # of iterations = 13.0

     negative rho (up, down):  2.023E-01 0.000E+00

     total cpu time spent up to now is       10.3 secs

     total energy              =     103.27187771 Ry
     Harris-Foulkes estimate   =   -1009.77092420 Ry
     estimated scf accuracy    <      22.35108364 Ry

     iteration # 76     ecut=    30.00 Ry     beta=0.70
     Davidson diagonalization with overlap
     ethr =  1.00E-02,  avg # of iterations =  9.0

     negative rho (up, down):  1.375E-01 0.000E+00

     total cpu time spent up to now is       10.4 secs

     total energy              =    -131.76711567 Ry
     Harris-Foulkes estimate   =    -663.35552766 Ry
     estimated scf accuracy    <      16.71346370 Ry

     iteration # 77     ecut=    30.00 Ry     beta=0.70
     Davidson diagonalization with overlap
     ethr =  1.00E-02,  avg # of iterations =  7.0

     negative rho (up, down):  1.060E-02 0.000E+00

     total cpu time spent up to now is       10.4 secs

     total energy              =      91.29499493 Ry
     Harris-Foulkes estimate   =   -4306.50664215 Ry
     estimated scf accuracy    <      16.37674778 Ry

     iteration # 78     ecut=    30.00 Ry     beta=0.70
     Davidson diagonalization with overlap
     ethr =  1.00E-02,  avg # of iterations =  7.0

     negative rho (up, down):  1.277E-04 0.000E+00

     total cpu time spent up to now is       10.5 secs

     total energy              =      88.37989941 Ry
     Harris-Foulkes estimate   =    -672.86782108 Ry
     estimated scf accuracy    <      35.29928254 Ry

     iteration # 79     ecut=    30.00 Ry     beta=0.70
     Davidson diagonalization with overlap
     ethr =  1.00E-02,  avg # of iterations =  5.0

     negative rho (up, down):  1.022E-03 0.000E+00

     total cpu time spent up to now is       10.5 secs

     total energy              =     -31.68428664 Ry
     Harris-Foulkes estimate   =    -119.33926807 Ry
     estimated scf accuracy    <      45.20381624 Ry

     iteration # 80     ecut=    30.00 Ry     beta=0.70
     Davidson diagonalization with overlap
     ethr =  1.00E-02,  avg # of iterations =  4.0

     negative rho (up, down):  1.077E-07 0.000E+00

     total cpu time spent up to now is       10.5 secs

     total energy              =     -87.31275826 Ry
     Harris-Foulkes estimate   =     -82.99722431 Ry
     estimated scf accuracy    <      67.68316006 Ry

     iteration # 81     ecut=    30.00 Ry     beta=0.70
     Davidson diagonalization with overlap
     ethr =  1.00E-02,  avg # of iterations =  1.0

     negative rho (up, down):  4.700E-02 0.000E+00

     total cpu time spent up to now is       10.6 secs

     total energy              =    -115.55845644 Ry
     Harris-Foulkes estimate   =     -87.31763820 Ry
     estimated scf accuracy    <      73.19374372 Ry

     iteration # 82     ecut=    30.00 Ry     beta=0.70
     Davidson diagonalization with overlap
     ethr =  1.00E-02,  avg # of iterations =  5.0

     negative rho (up, down):  3.916E-02 0.000E+00

     total cpu time spent up to now is       10.6 secs

     total energy              =    -444.75306164 Ry
     Harris-Foulkes estimate   =    -138.33499312 Ry
     estimated scf accuracy    <      90.61446127 Ry

     iteration # 83     ecut=    30.00 Ry     beta=0.70
     Davidson diagonalization with overlap
     ethr =  1.00E-02,  avg # of iterations =  4.0

     negative rho (up, down):  4.547E-01 0.000E+00

     total cpu time spent up to now is       10.7 secs

     total energy              =    -554.53318593 Ry
     Harris-Foulkes estimate   =    -828.19740719 Ry
     estimated scf accuracy    <      88.22165868 Ry

     iteration # 84     ecut=    30.00 Ry     beta=0.70
     Davidson diagonalization with overlap
     ethr =  1.00E-02,  avg # of iterations =  8.0

     negative rho (up, down):  8.531E-01 0.000E+00

     total cpu time spent up to now is       10.7 secs

     total energy              =     -44.89185540 Ry
     Harris-Foulkes estimate   =   -4797.41856509 Ry
     estimated scf accuracy    <      85.16721942 Ry

     iteration # 85     ecut=    30.00 Ry     beta=0.70
     Davidson diagonalization with overlap
     ethr =  1.00E-02,  avg # of iterations =  7.0

     negative rho (up, down):  8.953E-01 0.000E+00

     total cpu time spent up to now is       10.8 secs

     total energy              =      16.26965114 Ry
     Harris-Foulkes estimate   =    -682.89162745 Ry
     estimated scf accuracy    <      85.11340988 Ry

     iteration # 86     ecut=    30.00 Ry     beta=0.70
     Davidson diagonalization with overlap
     ethr =  1.00E-02,  avg # of iterations =  8.0

     negative rho (up, down):  7.089E-01 0.000E+00

     total cpu time spent up to now is       10.9 secs

     total energy              =       4.94193391 Ry
     Harris-Foulkes estimate   =   -1834.13369718 Ry
     estimated scf accuracy    <      43.70807199 Ry

     iteration # 87     ecut=    30.00 Ry     beta=0.70
     Davidson diagonalization with overlap
     ethr =  1.00E-02,  avg # of iterations =  8.0

     negative rho (up, down):  1.193E+00 0.000E+00

     total cpu time spent up to now is       10.9 secs

     total energy              =    -379.92285999 Ry
     Harris-Foulkes estimate   =   -3141.74053696 Ry
     estimated scf accuracy    <      61.29934611 Ry

     iteration # 88     ecut=    30.00 Ry     beta=0.70
     Davidson diagonalization with overlap
     ethr =  1.00E-02,  avg # of iterations =  7.0

     negative rho (up, down):  1.565E+00 0.000E+00

     total cpu time spent up to now is       11.0 secs

     total energy              =    -238.84943135 Ry
     Harris-Foulkes estimate   =   -2182.44596438 Ry
     estimated scf accuracy    <      36.34738051 Ry

     iteration # 89     ecut=    30.00 Ry     beta=0.70
     Davidson diagonalization with overlap
     ethr =  1.00E-02,  avg # of iterations =  6.0

     negative rho (up, down):  1.446E+00 0.000E+00

     total cpu time spent up to now is       11.0 secs

     total energy              =    -872.65471933 Ry
     Harris-Foulkes estimate   =  -10692.38993454 Ry
     estimated scf accuracy    <      30.46207822 Ry

     iteration # 90     ecut=    30.00 Ry     beta=0.70
     Davidson diagonalization with overlap
     ethr =  1.00E-02,  avg # of iterations =  7.0

     negative rho (up, down):  1.012E+00 0.000E+00

     total cpu time spent up to now is       11.1 secs

     total energy              =       8.46624966 Ry
     Harris-Foulkes estimate   =   -5741.25898308 Ry
     estimated scf accuracy    <      21.02978250 Ry

     iteration # 91     ecut=    30.00 Ry     beta=0.70
     Davidson diagonalization with overlap
     ethr =  1.00E-02,  avg # of iterations =  7.0

     negative rho (up, down):  4.776E-01 0.000E+00

     total cpu time spent up to now is       11.1 secs

     total energy              =      99.68853409 Ry
     Harris-Foulkes estimate   =   -2007.78752391 Ry
     estimated scf accuracy    <      25.28503546 Ry

     iteration # 92     ecut=    30.00 Ry     beta=0.70
     Davidson diagonalization with overlap
     ethr =  1.00E-02,  avg # of iterations = 11.0

     negative rho (up, down):  2.288E-01 0.000E+00

     total cpu time spent up to now is       11.2 secs

     total energy              =     195.05622850 Ry
     Harris-Foulkes estimate   =   -1484.42975365 Ry
     estimated scf accuracy    <      24.18636709 Ry

     iteration # 93     ecut=    30.00 Ry     beta=0.70
     Davidson diagonalization with overlap
     ethr =  1.00E-02,  avg # of iterations =  8.0

     negative rho (up, down):  4.710E-02 0.000E+00

     total cpu time spent up to now is       11.3 secs

     total energy              =      60.26593646 Ry
     Harris-Foulkes estimate   =    -717.51133744 Ry
     estimated scf accuracy    <      28.31990690 Ry

     iteration # 94     ecut=    30.00 Ry     beta=0.70
     Davidson diagonalization with overlap
     ethr =  1.00E-02,  avg # of iterations =  7.0

     negative rho (up, down):  1.936E-02 0.000E+00

     total cpu time spent up to now is       11.3 secs

     total energy              =      23.75199923 Ry
     Harris-Foulkes estimate   =    -185.28648606 Ry
     estimated scf accuracy    <      41.20200079 Ry

     iteration # 95     ecut=    30.00 Ry     beta=0.70
     Davidson diagonalization with overlap
     ethr =  1.00E-02,  avg # of iterations =  7.0

     negative rho (up, down):  3.287E-01 0.000E+00

     total cpu time spent up to now is       11.4 secs

     total energy              =     -63.65259062 Ry
     Harris-Foulkes estimate   =     -47.87203268 Ry
     estimated scf accuracy    <      18.50109675 Ry

     iteration # 96     ecut=    30.00 Ry     beta=0.70
     Davidson diagonalization with overlap
     ethr =  1.00E-02,  avg # of iterations =  8.0

     negative rho (up, down):  8.692E-04 0.000E+00

     total cpu time spent up to now is       11.4 secs

     total energy              =     102.76252741 Ry
     Harris-Foulkes estimate   =    -899.96553888 Ry
     estimated scf accuracy    <      34.26216579 Ry

     iteration # 97     ecut=    30.00 Ry     beta=0.70
     Davidson diagonalization with overlap
     ethr =  1.00E-02,  avg # of iterations = 10.0

     negative rho (up, down):  3.859E-04 0.000E+00

     total cpu time spent up to now is       11.5 secs

     total energy              =     -12.92974449 Ry
     Harris-Foulkes estimate   =     -42.51440750 Ry
     estimated scf accuracy    <       7.83686078 Ry

     iteration # 98     ecut=    30.00 Ry     beta=0.70
     Davidson diagonalization with overlap
     ethr =  1.00E-02,  avg # of iterations =  4.0

     negative rho (up, down):  5.010E-02 0.000E+00

     total cpu time spent up to now is       11.5 secs

     total energy              =     -39.01398252 Ry
     Harris-Foulkes estimate   =     -35.94881647 Ry
     estimated scf accuracy    <       9.37247559 Ry

     iteration # 99     ecut=    30.00 Ry     beta=0.70
     Davidson diagonalization with overlap
     ethr =  1.00E-02,  avg # of iterations =  6.0

     negative rho (up, down):  3.781E-02 0.000E+00

     total cpu time spent up to now is       11.6 secs

     total energy              =      41.91210797 Ry
     Harris-Foulkes estimate   =    -260.80581117 Ry
     estimated scf accuracy    <      26.04177278 Ry

     iteration #100     ecut=    30.00 Ry     beta=0.70
     Davidson diagonalization with overlap
     ethr =  1.00E-02,  avg # of iterations =  5.0

     negative rho (up, down):  4.008E-02 0.000E+00

     total cpu time spent up to now is       11.6 secs

     total energy              =    -180.36954082 Ry
     Harris-Foulkes estimate   =    -258.51180782 Ry
     estimated scf accuracy    <      28.87639793 Ry

     End of self-consistent calculation

     convergence NOT achieved after 100 iterations: stopping

     Writing output data file pwscf.save
 
     init_run     :      0.09s CPU      0.11s WALL (       1 calls)
     electrons    :      7.70s CPU      9.72s WALL (       7 calls)
     update_pot   :      0.77s CPU      1.08s WALL (       6 calls)
     forces       :      0.15s CPU      0.16s WALL (       6 calls)

     Called by init_run:
     wfcinit      :      0.01s CPU      0.02s WALL (       1 calls)
     potinit      :      0.02s CPU      0.03s WALL (       1 calls)

     Called by electrons:
     c_bands      :      3.91s CPU      4.17s WALL (     212 calls)
     sum_band     :      0.61s CPU      0.66s WALL (     212 calls)
     v_of_rho     :      1.60s CPU      1.69s WALL (     219 calls)
     mix_rho      :      1.36s CPU      2.40s WALL (     212 calls)

     Called by c_bands:
     init_us_2    :      0.02s CPU      0.02s WALL (     425 calls)
     cegterg      :      3.86s CPU      4.05s WALL (     212 calls)

     Called by sum_band:

     Called by *egterg:
     h_psi        :      3.23s CPU      3.38s WALL (    1180 calls)
     g_psi        :      0.03s CPU      0.03s WALL (     967 calls)
     cdiaghg      :      0.24s CPU      0.25s WALL (    1173 calls)

     Called by h_psi:
     h_psi:pot    :      3.21s CPU      3.36s WALL (    1180 calls)
     h_psi:calbec :      0.09s CPU      0.17s WALL (    1180 calls)
     vloc_psi     :      3.10s CPU      3.18s WALL (    1180 calls)
     add_vuspsi   :      0.01s CPU      0.01s WALL (    1180 calls)

     General routines
     calbec       :      0.15s CPU      0.24s WALL (    1209 calls)
     fft          :      1.06s CPU      1.13s WALL (    2421 calls)
     fftw         :      3.18s CPU      3.30s WALL (   14212 calls)
     davcio       :      0.21s CPU      0.87s WALL (    3630 calls)
 
     Parallel routines
     fft_scatter  :      1.70s CPU      1.82s WALL (   16633 calls)
 
     PWSCF        :     8.96s CPU        11.71s WALL

 
   This run was terminated on:   2:32: 7  11Feb2018            

=------------------------------------------------------------------------------=
   JOB DONE.
=------------------------------------------------------------------------------=
