
     Program PWSCF v.6.0 (svn rev. 13079) starts on 11Feb2018 at  2:35:33 

     This program is part of the open-source Quantum ESPRESSO suite
     for quantum simulation of materials; please cite
         "P. Giannozzi et al., J. Phys.:Condens. Matter 21 395502 (2009);
          URL http://www.quantum-espresso.org", 
     in publications or presentations arising from this work. More details at
     http://www.quantum-espresso.org/quote

     Parallel version (MPI), running on    28 processors
     R & G space division:  proc/nbgrp/npool/nimage =      28
     Reading input from inputs/water-1-md/521.in

     Current dimensions of program PWSCF are:
     Max number of different atomic species (ntypx) = 10
     Max number of k-points (npk) =  40000
     Max angular momentum in pseudopotentials (lmaxx) =  3

     Subspace diagonalization in iterative solution of the eigenvalue problem:
     a serial algorithm will be used

 
     Parallelization info
     --------------------
     sticks:   dense  smooth     PW     G-vecs:    dense   smooth      PW
     Min         136     136     33                 6338     6338     787
     Max         137     137     34                 6341     6341     792
     Sum        3809    3809    949               177509   177509   22119
 


     bravais-lattice index     =            1
     lattice parameter (alat)  =      20.0000  a.u.
     unit-cell volume          =    8000.0000 (a.u.)^3
     number of atoms/cell      =            3
     number of atomic types    =            2
     number of electrons       =         8.00
     number of Kohn-Sham states=            8
     kinetic-energy cutoff     =      30.0000  Ry
     charge density cutoff     =     120.0000  Ry
     convergence threshold     =      1.0E-08
     mixing beta               =       0.7000
     number of iterations used =            8  plain     mixing
     Exchange-correlation      = BLYP ( 1  3  1  3 0 0)
     nstep                     =         5000


     celldm(1)=  20.000000  celldm(2)=   0.000000  celldm(3)=   0.000000
     celldm(4)=   0.000000  celldm(5)=   0.000000  celldm(6)=   0.000000

     crystal axes: (cart. coord. in units of alat)
               a(1) = (   1.000000   0.000000   0.000000 )  
               a(2) = (   0.000000   1.000000   0.000000 )  
               a(3) = (   0.000000   0.000000   1.000000 )  

     reciprocal axes: (cart. coord. in units 2 pi/alat)
               b(1) = (  1.000000  0.000000  0.000000 )  
               b(2) = (  0.000000  1.000000  0.000000 )  
               b(3) = (  0.000000  0.000000  1.000000 )  


     PseudoPot. # 1 for  H read from file:
     ./H.blyp-hgh.UPF
     MD5 check sum: c576e69559cde411e611be972c763230
     Pseudo is Norm-conserving, Zval =  1.0
     Generated in analytical, separable form
     Using radial grid of  929 points,  0 beta functions with: 

     PseudoPot. # 2 for  O read from file:
     ./O.blyp-hgh.UPF
     MD5 check sum: d0b7156309aa9befef28faac7bc56342
     Pseudo is Norm-conserving, Zval =  6.0
     Generated in analytical, separable form
     Using radial grid of 1095 points,  1 beta functions with: 
                l(1) =   0

     atomic species   valence    mass     pseudopotential
        H              1.00     1.01000      H( 1.00)
        O              6.00    16.00000      O( 1.00)

     No symmetry found



   Cartesian axes

     site n.     atom                  positions (alat units)
         1           H   tau(   1) = (   0.4811591   0.0045849   0.0905552  )
         2           H   tau(   2) = (   0.3398520   0.8951690   0.2604839  )
         3           O   tau(   3) = (   0.2257375   0.3134531   0.0198633  )

     number of k points=     1  Marzari-Vanderbilt smearing, width (Ry)=  0.0250
                       cart. coord. in units 2pi/alat
        k(    1) = (   0.0000000   0.0000000   0.0000000), wk =   2.0000000

     Dense  grid:   177509 G-vectors     FFT dimensions: (  72,  72,  72)

     Estimated max dynamical RAM per process >       6.09Mb

     Estimated total allocated dynamical RAM >     170.64Mb

     Initial potential from superposition of free atoms
     Check: negative starting charge=   -0.352414

     starting charge    7.99998, renormalised to    8.00000

     negative rho (up, down):  3.524E-01 0.000E+00
     Starting wfc are    6 randomized atomic wfcs +    2 random wfc

     total cpu time spent up to now is        0.2 secs

     per-process dynamical memory:    18.8 Mb

     Self-consistent Calculation

     iteration #  1     ecut=    30.00 Ry     beta=0.70
     Davidson diagonalization with overlap
     ethr =  1.00E-02,  avg # of iterations =  7.0

     negative rho (up, down):  8.789E-02 0.000E+00

     total cpu time spent up to now is        0.3 secs

     total energy              =     -27.92877909 Ry
     Harris-Foulkes estimate   =     -32.05981286 Ry
     estimated scf accuracy    <       4.75483233 Ry

     iteration #  2     ecut=    30.00 Ry     beta=0.70
     Davidson diagonalization with overlap
     ethr =  1.00E-02,  avg # of iterations =  4.0

     negative rho (up, down):  6.435E-02 0.000E+00

     total cpu time spent up to now is        0.3 secs

     total energy              =     -32.71523993 Ry
     Harris-Foulkes estimate   =     -38.17254459 Ry
     estimated scf accuracy    <      13.25264006 Ry

     iteration #  3     ecut=    30.00 Ry     beta=0.70
     Davidson diagonalization with overlap
     ethr =  1.00E-02,  avg # of iterations =  2.0

     negative rho (up, down):  6.610E-02 0.000E+00

     total cpu time spent up to now is        0.4 secs

     total energy              =     -33.24599895 Ry
     Harris-Foulkes estimate   =     -33.05743508 Ry
     estimated scf accuracy    <       5.16030260 Ry

     iteration #  4     ecut=    30.00 Ry     beta=0.70
     Davidson diagonalization with overlap
     ethr =  1.00E-02,  avg # of iterations =  1.0

     negative rho (up, down):  2.690E-02 0.000E+00

     total cpu time spent up to now is        0.4 secs

     total energy              =     -30.12981117 Ry
     Harris-Foulkes estimate   =     -33.24643362 Ry
     estimated scf accuracy    <       5.43448363 Ry

     iteration #  5     ecut=    30.00 Ry     beta=0.70
     Davidson diagonalization with overlap
     ethr =  1.00E-02,  avg # of iterations =  5.0

     negative rho (up, down):  2.621E-02 0.000E+00

     total cpu time spent up to now is        0.4 secs

     total energy              =     -33.36922305 Ry
     Harris-Foulkes estimate   =     -33.38282509 Ry
     estimated scf accuracy    <      13.65872015 Ry

     iteration #  6     ecut=    30.00 Ry     beta=0.70
     Davidson diagonalization with overlap
     ethr =  1.00E-02,  avg # of iterations =  1.0

     negative rho (up, down):  3.828E-02 0.000E+00

     total cpu time spent up to now is        0.5 secs

     total energy              =     -33.36283238 Ry
     Harris-Foulkes estimate   =     -33.37460920 Ry
     estimated scf accuracy    <      13.64067127 Ry

     iteration #  7     ecut=    30.00 Ry     beta=0.70
     Davidson diagonalization with overlap
     ethr =  1.00E-02,  avg # of iterations =  1.0

     negative rho (up, down):  8.578E-02 0.000E+00

     total cpu time spent up to now is        0.5 secs

     total energy              =     -32.82749558 Ry
     Harris-Foulkes estimate   =     -33.36647414 Ry
     estimated scf accuracy    <      13.11513497 Ry

     iteration #  8     ecut=    30.00 Ry     beta=0.70
     Davidson diagonalization with overlap
     ethr =  1.00E-02,  avg # of iterations =  1.0

     negative rho (up, down):  2.009E-02 0.000E+00

     total cpu time spent up to now is        0.5 secs

     total energy              =     -32.69480453 Ry
     Harris-Foulkes estimate   =     -32.95133636 Ry
     estimated scf accuracy    <       6.26826531 Ry

     iteration #  9     ecut=    30.00 Ry     beta=0.70
     Davidson diagonalization with overlap
     ethr =  1.00E-02,  avg # of iterations =  1.0

     negative rho (up, down):  3.996E-02 0.000E+00

     total cpu time spent up to now is        0.5 secs

     total energy              =     -31.47740565 Ry
     Harris-Foulkes estimate   =     -32.69938574 Ry
     estimated scf accuracy    <       5.78157644 Ry

     iteration # 10     ecut=    30.00 Ry     beta=0.70
     Davidson diagonalization with overlap
     ethr =  1.00E-02,  avg # of iterations =  2.0

     negative rho (up, down):  4.234E-02 0.000E+00

     total cpu time spent up to now is        0.6 secs

     total energy              =     -31.57318964 Ry
     Harris-Foulkes estimate   =     -31.55618308 Ry
     estimated scf accuracy    <       0.29409213 Ry

     iteration # 11     ecut=    30.00 Ry     beta=0.70
     Davidson diagonalization with overlap
     ethr =  3.68E-03,  avg # of iterations =  1.0

     negative rho (up, down):  4.340E-02 0.000E+00

     total cpu time spent up to now is        0.6 secs

     total energy              =     -31.45841128 Ry
     Harris-Foulkes estimate   =     -31.60346324 Ry
     estimated scf accuracy    <       3.65315641 Ry

     iteration # 12     ecut=    30.00 Ry     beta=0.70
     Davidson diagonalization with overlap
     ethr =  3.68E-03,  avg # of iterations =  1.0

     negative rho (up, down):  5.073E-02 0.000E+00

     total cpu time spent up to now is        0.7 secs

     total energy              =     -31.50057506 Ry
     Harris-Foulkes estimate   =     -31.53941401 Ry
     estimated scf accuracy    <       0.07484831 Ry

     iteration # 13     ecut=    30.00 Ry     beta=0.70
     Davidson diagonalization with overlap
     ethr =  9.36E-04,  avg # of iterations =  1.0

     negative rho (up, down):  3.763E-02 0.000E+00

     total cpu time spent up to now is        0.7 secs

     total energy              =     -31.24550536 Ry
     Harris-Foulkes estimate   =     -31.82623762 Ry
     estimated scf accuracy    <       3.24185116 Ry

     iteration # 14     ecut=    30.00 Ry     beta=0.70
     Davidson diagonalization with overlap
     ethr =  9.36E-04,  avg # of iterations =  2.0

     negative rho (up, down):  3.125E-04 0.000E+00

     total cpu time spent up to now is        0.7 secs

     total energy              =     -31.73024053 Ry
     Harris-Foulkes estimate   =     -31.69573131 Ry
     estimated scf accuracy    <       4.10401469 Ry

     iteration # 15     ecut=    30.00 Ry     beta=0.70
     Davidson diagonalization with overlap
     ethr =  9.36E-04,  avg # of iterations =  1.0

     total cpu time spent up to now is        0.8 secs

     total energy              =     -31.77252467 Ry
     Harris-Foulkes estimate   =     -31.73019890 Ry
     estimated scf accuracy    <       4.04167802 Ry

     iteration # 16     ecut=    30.00 Ry     beta=0.70
     Davidson diagonalization with overlap
     ethr =  9.36E-04,  avg # of iterations =  1.0

     negative rho (up, down):  2.082E-03 0.000E+00

     total cpu time spent up to now is        0.8 secs

     total energy              =     -31.64575603 Ry
     Harris-Foulkes estimate   =     -31.77257770 Ry
     estimated scf accuracy    <       4.09911775 Ry

     iteration # 17     ecut=    30.00 Ry     beta=0.70
     Davidson diagonalization with overlap
     ethr =  9.36E-04,  avg # of iterations =  1.0

     negative rho (up, down):  3.804E-07 0.000E+00

     total cpu time spent up to now is        0.8 secs

     total energy              =     -31.65552415 Ry
     Harris-Foulkes estimate   =     -31.64341401 Ry
     estimated scf accuracy    <       4.47663672 Ry

     iteration # 18     ecut=    30.00 Ry     beta=0.70
     Davidson diagonalization with overlap
     ethr =  9.36E-04,  avg # of iterations =  1.0

     negative rho (up, down):  2.053E-03 0.000E+00

     total cpu time spent up to now is        0.9 secs

     total energy              =     -31.33119141 Ry
     Harris-Foulkes estimate   =     -31.65555224 Ry
     estimated scf accuracy    <       4.47605067 Ry

     iteration # 19     ecut=    30.00 Ry     beta=0.70
     Davidson diagonalization with overlap
     ethr =  9.36E-04,  avg # of iterations =  1.0

     negative rho (up, down):  2.695E-06 0.000E+00

     total cpu time spent up to now is        0.9 secs

     total energy              =     -31.49828063 Ry
     Harris-Foulkes estimate   =     -31.55503153 Ry
     estimated scf accuracy    <       0.85210322 Ry

     iteration # 20     ecut=    30.00 Ry     beta=0.70
     Davidson diagonalization with overlap
     ethr =  9.36E-04,  avg # of iterations =  1.0

     total cpu time spent up to now is        0.9 secs

     total energy              =     -31.54673998 Ry
     Harris-Foulkes estimate   =     -31.54899078 Ry
     estimated scf accuracy    <       0.06307371 Ry

     iteration # 21     ecut=    30.00 Ry     beta=0.70
     Davidson diagonalization with overlap
     ethr =  7.88E-04,  avg # of iterations =  1.0

     negative rho (up, down):  3.748E-06 0.000E+00

     total cpu time spent up to now is        1.0 secs

     total energy              =     -31.57000711 Ry
     Harris-Foulkes estimate   =     -31.54677699 Ry
     estimated scf accuracy    <       0.07947102 Ry

     iteration # 22     ecut=    30.00 Ry     beta=0.70
     Davidson diagonalization with overlap
     ethr =  7.88E-04,  avg # of iterations =  1.0

     negative rho (up, down):  1.285E-08 0.000E+00

     total cpu time spent up to now is        1.0 secs

     total energy              =     -31.48812875 Ry
     Harris-Foulkes estimate   =     -31.60913171 Ry
     estimated scf accuracy    <       3.51506175 Ry

     iteration # 23     ecut=    30.00 Ry     beta=0.70
     Davidson diagonalization with overlap
     ethr =  7.88E-04,  avg # of iterations =  1.0

     total cpu time spent up to now is        1.0 secs

     total energy              =     -31.55243711 Ry
     Harris-Foulkes estimate   =     -31.55103602 Ry
     estimated scf accuracy    <       0.07843781 Ry

     iteration # 24     ecut=    30.00 Ry     beta=0.70
     Davidson diagonalization with overlap
     ethr =  7.88E-04,  avg # of iterations =  1.0

     negative rho (up, down):  9.172E-07 0.000E+00

     total cpu time spent up to now is        1.0 secs

     total energy              =     -31.56107079 Ry
     Harris-Foulkes estimate   =     -31.55250770 Ry
     estimated scf accuracy    <       0.08963843 Ry

     iteration # 25     ecut=    30.00 Ry     beta=0.70
     Davidson diagonalization with overlap
     ethr =  7.88E-04,  avg # of iterations =  1.0

     negative rho (up, down):  3.508E-04 0.000E+00

     total cpu time spent up to now is        1.1 secs

     total energy              =     -31.58812403 Ry
     Harris-Foulkes estimate   =     -31.57054891 Ry
     estimated scf accuracy    <       1.02399435 Ry

     iteration # 26     ecut=    30.00 Ry     beta=0.70
     Davidson diagonalization with overlap
     ethr =  7.88E-04,  avg # of iterations =  1.0

     negative rho (up, down):  1.737E-03 0.000E+00

     total cpu time spent up to now is        1.1 secs

     total energy              =     -31.59024219 Ry
     Harris-Foulkes estimate   =     -31.59319951 Ry
     estimated scf accuracy    <       2.56342358 Ry

     iteration # 27     ecut=    30.00 Ry     beta=0.70
     Davidson diagonalization with overlap
     ethr =  7.88E-04,  avg # of iterations =  1.0

     negative rho (up, down):  2.213E-03 0.000E+00

     total cpu time spent up to now is        1.1 secs

     total energy              =     -31.59666171 Ry
     Harris-Foulkes estimate   =     -31.59029996 Ry
     estimated scf accuracy    <       2.37868391 Ry

     iteration # 28     ecut=    30.00 Ry     beta=0.70
     Davidson diagonalization with overlap
     ethr =  7.88E-04,  avg # of iterations =  1.0

     negative rho (up, down):  7.192E-03 0.000E+00

     total cpu time spent up to now is        1.2 secs

     total energy              =     -31.75749003 Ry
     Harris-Foulkes estimate   =     -31.59693079 Ry
     estimated scf accuracy    <       2.79645186 Ry

     iteration # 29     ecut=    30.00 Ry     beta=0.70
     Davidson diagonalization with overlap
     ethr =  7.88E-04,  avg # of iterations =  1.0

     negative rho (up, down):  1.125E-03 0.000E+00

     total cpu time spent up to now is        1.2 secs

     total energy              =     -31.53839531 Ry
     Harris-Foulkes estimate   =     -31.78826612 Ry
     estimated scf accuracy    <       4.12715821 Ry

     iteration # 30     ecut=    30.00 Ry     beta=0.70
     Davidson diagonalization with overlap
     ethr =  7.88E-04,  avg # of iterations =  1.0

     negative rho (up, down):  7.755E-04 0.000E+00

     total cpu time spent up to now is        1.3 secs

     total energy              =     -31.54615941 Ry
     Harris-Foulkes estimate   =     -31.56020998 Ry
     estimated scf accuracy    <       0.47436368 Ry

     iteration # 31     ecut=    30.00 Ry     beta=0.70
     Davidson diagonalization with overlap
     ethr =  7.88E-04,  avg # of iterations =  1.0

     negative rho (up, down):  1.234E-04 0.000E+00

     total cpu time spent up to now is        1.3 secs

     total energy              =     -31.55138472 Ry
     Harris-Foulkes estimate   =     -31.55150177 Ry
     estimated scf accuracy    <       0.08399095 Ry

     iteration # 32     ecut=    30.00 Ry     beta=0.70
     Davidson diagonalization with overlap
     ethr =  7.88E-04,  avg # of iterations =  1.0

     negative rho (up, down):  1.991E-06 0.000E+00

     total cpu time spent up to now is        1.3 secs

     total energy              =     -31.55132171 Ry
     Harris-Foulkes estimate   =     -31.55147826 Ry
     estimated scf accuracy    <       0.08302792 Ry

     iteration # 33     ecut=    30.00 Ry     beta=0.70
     Davidson diagonalization with overlap
     ethr =  7.88E-04,  avg # of iterations =  1.0

     negative rho (up, down):  2.594E-04 0.000E+00

     total cpu time spent up to now is        1.3 secs

     total energy              =     -31.54865451 Ry
     Harris-Foulkes estimate   =     -31.55134691 Ry
     estimated scf accuracy    <       0.08076427 Ry

     iteration # 34     ecut=    30.00 Ry     beta=0.70
     Davidson diagonalization with overlap
     ethr =  7.88E-04,  avg # of iterations =  1.0

     negative rho (up, down):  3.376E-05 0.000E+00

     total cpu time spent up to now is        1.4 secs

     total energy              =     -31.54534322 Ry
     Harris-Foulkes estimate   =     -31.54894555 Ry
     estimated scf accuracy    <       0.05833401 Ry

     iteration # 35     ecut=    30.00 Ry     beta=0.70
     Davidson diagonalization with overlap
     ethr =  7.29E-04,  avg # of iterations =  1.0

     negative rho (up, down):  1.105E-05 0.000E+00

     total cpu time spent up to now is        1.4 secs

     total energy              =     -31.54178185 Ry
     Harris-Foulkes estimate   =     -31.54508465 Ry
     estimated scf accuracy    <       0.07353355 Ry

     iteration # 36     ecut=    30.00 Ry     beta=0.70
     Davidson diagonalization with overlap
     ethr =  7.29E-04,  avg # of iterations =  1.0

     negative rho (up, down):  2.804E-05 0.000E+00

     total cpu time spent up to now is        1.4 secs

     total energy              =     -31.54023867 Ry
     Harris-Foulkes estimate   =     -31.54203456 Ry
     estimated scf accuracy    <       0.03703960 Ry

     iteration # 37     ecut=    30.00 Ry     beta=0.70
     Davidson diagonalization with overlap
     ethr =  4.63E-04,  avg # of iterations =  1.0

     negative rho (up, down):  2.167E-05 0.000E+00

     total cpu time spent up to now is        1.5 secs

     total energy              =     -31.54107345 Ry
     Harris-Foulkes estimate   =     -31.54106199 Ry
     estimated scf accuracy    <       0.00058005 Ry

     iteration # 38     ecut=    30.00 Ry     beta=0.70
     Davidson diagonalization with overlap
     ethr =  7.25E-06,  avg # of iterations =  6.0

     negative rho (up, down):  1.684E-06 0.000E+00

     total cpu time spent up to now is        1.5 secs

     total energy              =     -31.54162249 Ry
     Harris-Foulkes estimate   =     -31.54109125 Ry
     estimated scf accuracy    <       0.00122872 Ry

     iteration # 39     ecut=    30.00 Ry     beta=0.70
     Davidson diagonalization with overlap
     ethr =  7.25E-06,  avg # of iterations =  2.0

     negative rho (up, down):  3.946E-07 0.000E+00

     total cpu time spent up to now is        1.6 secs

     total energy              =     -31.54314521 Ry
     Harris-Foulkes estimate   =     -31.54531360 Ry
     estimated scf accuracy    <       0.07209943 Ry

     iteration # 40     ecut=    30.00 Ry     beta=0.70
     Davidson diagonalization with overlap
     ethr =  7.25E-06,  avg # of iterations =  1.0

     negative rho (up, down):  2.820E-07 0.000E+00

     total cpu time spent up to now is        1.6 secs

     total energy              =     -31.54202616 Ry
     Harris-Foulkes estimate   =     -31.54316206 Ry
     estimated scf accuracy    <       0.06180636 Ry

     iteration # 41     ecut=    30.00 Ry     beta=0.70
     Davidson diagonalization with overlap
     ethr =  7.25E-06,  avg # of iterations =  1.0

     negative rho (up, down):  1.855E-07 0.000E+00

     total cpu time spent up to now is        1.6 secs

     total energy              =     -31.54168476 Ry
     Harris-Foulkes estimate   =     -31.54211582 Ry
     estimated scf accuracy    <       0.04086329 Ry

     iteration # 42     ecut=    30.00 Ry     beta=0.70
     Davidson diagonalization with overlap
     ethr =  7.25E-06,  avg # of iterations =  1.0

     total cpu time spent up to now is        1.7 secs

     total energy              =     -31.53974083 Ry
     Harris-Foulkes estimate   =     -31.54171604 Ry
     estimated scf accuracy    <       0.02912325 Ry

     iteration # 43     ecut=    30.00 Ry     beta=0.70
     Davidson diagonalization with overlap
     ethr =  7.25E-06,  avg # of iterations =  1.0

     negative rho (up, down):  1.794E-08 0.000E+00

     total cpu time spent up to now is        1.7 secs

     total energy              =     -31.54116171 Ry
     Harris-Foulkes estimate   =     -31.54117224 Ry
     estimated scf accuracy    <       0.01106672 Ry

     iteration # 44     ecut=    30.00 Ry     beta=0.70
     Davidson diagonalization with overlap
     ethr =  7.25E-06,  avg # of iterations =  1.0

     negative rho (up, down):  2.681E-08 0.000E+00

     total cpu time spent up to now is        1.7 secs

     total energy              =     -31.54092481 Ry
     Harris-Foulkes estimate   =     -31.54116234 Ry
     estimated scf accuracy    <       0.01043773 Ry

     iteration # 45     ecut=    30.00 Ry     beta=0.70
     Davidson diagonalization with overlap
     ethr =  7.25E-06,  avg # of iterations =  1.0

     total cpu time spent up to now is        1.8 secs

     total energy              =     -31.54105427 Ry
     Harris-Foulkes estimate   =     -31.54100205 Ry
     estimated scf accuracy    <       0.00127659 Ry

     iteration # 46     ecut=    30.00 Ry     beta=0.70
     Davidson diagonalization with overlap
     ethr =  7.25E-06,  avg # of iterations =  1.0

     total cpu time spent up to now is        1.8 secs

     total energy              =     -31.54109330 Ry
     Harris-Foulkes estimate   =     -31.54108350 Ry
     estimated scf accuracy    <       0.00588105 Ry

     iteration # 47     ecut=    30.00 Ry     beta=0.70
     Davidson diagonalization with overlap
     ethr =  7.25E-06,  avg # of iterations =  1.0

     total cpu time spent up to now is        1.8 secs

     total energy              =     -31.54103739 Ry
     Harris-Foulkes estimate   =     -31.54109360 Ry
     estimated scf accuracy    <       0.00651152 Ry

     iteration # 48     ecut=    30.00 Ry     beta=0.70
     Davidson diagonalization with overlap
     ethr =  7.25E-06,  avg # of iterations =  1.0

     total cpu time spent up to now is        1.9 secs

     total energy              =     -31.54097341 Ry
     Harris-Foulkes estimate   =     -31.54104408 Ry
     estimated scf accuracy    <       0.00372541 Ry

     iteration # 49     ecut=    30.00 Ry     beta=0.70
     Davidson diagonalization with overlap
     ethr =  7.25E-06,  avg # of iterations =  1.0

     total cpu time spent up to now is        1.9 secs

     total energy              =     -31.54095548 Ry
     Harris-Foulkes estimate   =     -31.54099180 Ry
     estimated scf accuracy    <       0.00083669 Ry

     iteration # 50     ecut=    30.00 Ry     beta=0.70
     Davidson diagonalization with overlap
     ethr =  7.25E-06,  avg # of iterations =  1.0

     total cpu time spent up to now is        1.9 secs

     total energy              =     -31.54097589 Ry
     Harris-Foulkes estimate   =     -31.54097655 Ry
     estimated scf accuracy    <       0.00002198 Ry

     iteration # 51     ecut=    30.00 Ry     beta=0.70
     Davidson diagonalization with overlap
     ethr =  2.75E-07,  avg # of iterations =  1.0

     total cpu time spent up to now is        2.0 secs

     total energy              =     -31.54097676 Ry
     Harris-Foulkes estimate   =     -31.54097627 Ry
     estimated scf accuracy    <       0.00000009 Ry

     iteration # 52     ecut=    30.00 Ry     beta=0.70
     Davidson diagonalization with overlap
     ethr =  1.07E-09,  avg # of iterations =  2.0

     total cpu time spent up to now is        2.0 secs

     total energy              =     -31.54097682 Ry
     Harris-Foulkes estimate   =     -31.54097678 Ry
     estimated scf accuracy    <       0.00000059 Ry

     iteration # 53     ecut=    30.00 Ry     beta=0.70
     Davidson diagonalization with overlap
     ethr =  1.07E-09,  avg # of iterations =  1.0

     total cpu time spent up to now is        2.0 secs

     total energy              =     -31.54097679 Ry
     Harris-Foulkes estimate   =     -31.54097682 Ry
     estimated scf accuracy    <       0.00000033 Ry

     iteration # 54     ecut=    30.00 Ry     beta=0.70
     Davidson diagonalization with overlap
     ethr =  1.07E-09,  avg # of iterations =  1.0

     total cpu time spent up to now is        2.1 secs

     End of self-consistent calculation

          k = 0.0000 0.0000 0.0000 ( 22119 PWs)   bands (ev):

   -23.9136  -7.4492  -7.3038  -7.3037  -7.2970  -6.3594  -0.2357   0.5369

     the Fermi energy is    -7.1717 ev

!    total energy              =     -31.54097683 Ry
     Harris-Foulkes estimate   =     -31.54097680 Ry
     estimated scf accuracy    <          8.0E-09 Ry

     convergence has been achieved in  54 iterations

     Forces acting on atoms (Ry/au):

     atom    1 type  1   force =    -0.02733323   -0.01970658    0.03157666
     atom    2 type  1   force =     0.02630037    0.02068775   -0.03208462
     atom    3 type  2   force =     0.00103286   -0.00098117    0.00050796

     Total force =     0.065452     Total SCF correction =     0.000128

     Molecular Dynamics Calculation

     Starting temperature  =  1000.00 K

     temperature is controlled by Andersen thermostat
     Collision frequency = 1.0000/timestep
     mass H                =     1.01
     mass O                =    16.00
     Time step             =   100.00 a.u.,  4.8378 femto-seconds

     Entering Dynamics:    iteration =     1
                           time      =   0.0048 pico-seconds


     Andersen thermostat:    3 collisions

ATOMIC_POSITIONS (bohr)
H        9.535486006   0.317372148   1.773899803
H        6.883988812  17.646870911   5.081608633
O        4.514797166   6.271008456   0.407698894


     kinetic energy (Ekin) =     0.01385569 Ry
     temperature           =   729.21241089 K 
     Ekin + Etot (const)   =   -31.52712115 Ry

     Linear momentum :   -0.0000000000   -0.0000000000    0.0000000000

     Writing output data file pwscf.save
     Check: negative starting charge=   -0.352414
     NEW-OLD atomic charge density approx. for the potential
     Check: negative starting charge=   -0.352393

     negative rho (up, down):  2.725E-02 0.000E+00

     total cpu time spent up to now is        2.3 secs

     per-process dynamical memory:    20.4 Mb

     Self-consistent Calculation

     iteration #  1     ecut=    30.00 Ry     beta=0.70
     Davidson diagonalization with overlap
     c_bands:  1 eigenvalues not converged
     ethr =  1.00E-06,  avg # of iterations = 20.0

     negative rho (up, down):  6.190E-03 0.000E+00

     total cpu time spent up to now is        2.4 secs

     total energy              =     -31.51779263 Ry
     Harris-Foulkes estimate   =     -31.51014942 Ry
     estimated scf accuracy    <       0.01817512 Ry

     iteration #  2     ecut=    30.00 Ry     beta=0.70
     Davidson diagonalization with overlap
     ethr =  2.27E-04,  avg # of iterations =  3.0

     negative rho (up, down):  5.853E-03 0.000E+00

     total cpu time spent up to now is        2.4 secs

     total energy              =     -31.42312400 Ry
     Harris-Foulkes estimate   =     -31.72759333 Ry
     estimated scf accuracy    <       4.06957891 Ry

     iteration #  3     ecut=    30.00 Ry     beta=0.70
     Davidson diagonalization with overlap
     ethr =  2.27E-04,  avg # of iterations =  2.0

     negative rho (up, down):  5.436E-03 0.000E+00

     total cpu time spent up to now is        2.5 secs

     total energy              =     -31.53167867 Ry
     Harris-Foulkes estimate   =     -31.53507577 Ry
     estimated scf accuracy    <       0.07342108 Ry

     iteration #  4     ecut=    30.00 Ry     beta=0.70
     Davidson diagonalization with overlap
     ethr =  2.27E-04,  avg # of iterations =  1.0

     negative rho (up, down):  2.775E-03 0.000E+00

     total cpu time spent up to now is        2.5 secs

     total energy              =     -31.53529840 Ry
     Harris-Foulkes estimate   =     -31.53355470 Ry
     estimated scf accuracy    <       0.01965395 Ry

     iteration #  5     ecut=    30.00 Ry     beta=0.70
     Davidson diagonalization with overlap
     ethr =  2.27E-04,  avg # of iterations =  1.0

     negative rho (up, down):  4.176E-05 0.000E+00

     total cpu time spent up to now is        2.5 secs

     total energy              =     -31.53768558 Ry
     Harris-Foulkes estimate   =     -31.53601028 Ry
     estimated scf accuracy    <       0.00247273 Ry

     iteration #  6     ecut=    30.00 Ry     beta=0.70
     Davidson diagonalization with overlap
     ethr =  3.09E-05,  avg # of iterations = 14.0

     negative rho (up, down):  1.330E-06 0.000E+00

     total cpu time spent up to now is        2.6 secs

     total energy              =     -31.53773953 Ry
     Harris-Foulkes estimate   =     -31.53773457 Ry
     estimated scf accuracy    <       0.00005910 Ry

     iteration #  7     ecut=    30.00 Ry     beta=0.70
     Davidson diagonalization with overlap
     ethr =  7.39E-07,  avg # of iterations =  9.0

     negative rho (up, down):  1.176E-08 0.000E+00

     total cpu time spent up to now is        2.6 secs

     total energy              =     -31.53774197 Ry
     Harris-Foulkes estimate   =     -31.53774090 Ry
     estimated scf accuracy    <       0.00002785 Ry

     iteration #  8     ecut=    30.00 Ry     beta=0.70
     Davidson diagonalization with overlap
     ethr =  3.48E-07,  avg # of iterations =  1.0

     total cpu time spent up to now is        2.6 secs

     total energy              =     -31.53774061 Ry
     Harris-Foulkes estimate   =     -31.53774225 Ry
     estimated scf accuracy    <       0.00002548 Ry

     iteration #  9     ecut=    30.00 Ry     beta=0.70
     Davidson diagonalization with overlap
     ethr =  3.18E-07,  avg # of iterations =  1.0

     total cpu time spent up to now is        2.7 secs

     total energy              =     -31.53773992 Ry
     Harris-Foulkes estimate   =     -31.53774089 Ry
     estimated scf accuracy    <       0.00000182 Ry

     iteration # 10     ecut=    30.00 Ry     beta=0.70
     Davidson diagonalization with overlap
     ethr =  2.28E-08,  avg # of iterations =  1.0

     total cpu time spent up to now is        2.7 secs

     total energy              =     -31.53773998 Ry
     Harris-Foulkes estimate   =     -31.53773997 Ry
     estimated scf accuracy    <       0.00000004 Ry

     iteration # 11     ecut=    30.00 Ry     beta=0.70
     Davidson diagonalization with overlap
     ethr =  5.14E-10,  avg # of iterations =  1.0

     total cpu time spent up to now is        2.7 secs

     End of self-consistent calculation

          k = 0.0000 0.0000 0.0000 ( 22119 PWs)   bands (ev):

   -23.8989  -7.4397  -7.2907  -7.2905  -7.2811  -6.4031  -0.2327   0.5398

     the Fermi energy is    -7.1584 ev

!    total energy              =     -31.53773988 Ry
     Harris-Foulkes estimate   =     -31.53773998 Ry
     estimated scf accuracy    <          1.6E-09 Ry

     convergence has been achieved in  11 iterations

     Forces acting on atoms (Ry/au):

     atom    1 type  1   force =    -0.02437982   -0.02216518    0.02855682
     atom    2 type  1   force =     0.02305042    0.02352051   -0.02915366
     atom    3 type  2   force =     0.00132940   -0.00135533    0.00059683

     Total force =     0.061964     Total SCF correction =     0.000294

     Entering Dynamics:    iteration =     2
                           time      =   0.0097 pico-seconds


     Andersen thermostat:    3 collisions

ATOMIC_POSITIONS (bohr)
H        9.817584999  -0.421321863   2.628487809
H        7.333233705  18.037536611   4.680085390
O        4.468631083   6.292977743   0.379099181


     kinetic energy (Ekin) =     0.06370218 Ry
     temperature           =  3352.58896207 K 
     Ekin + Etot (const)   =   -31.47403770 Ry
     Message from routine dynamics:
     Total linear momentum <> 0

     Linear momentum :   -0.3128245178    0.2405301726    0.1999716109

     Writing output data file pwscf.save

     first order wave-functions extrapolation
     Check: negative starting charge=   -0.352393
     first order charge density extrapolation
     Check: negative starting charge=   -0.356132

     negative rho (up, down):  1.483E-01 0.000E+00

     total cpu time spent up to now is        3.0 secs

     per-process dynamical memory:    20.4 Mb

     Self-consistent Calculation

     iteration #  1     ecut=    30.00 Ry     beta=0.70
     Davidson diagonalization with overlap
     ethr =  1.00E-06,  avg # of iterations = 10.0

     negative rho (up, down):  3.014E-02 0.000E+00

     total cpu time spent up to now is        3.1 secs

     total energy              =      -2.99118421 Ry
     Harris-Foulkes estimate   =     -63.01478973 Ry
     estimated scf accuracy    <       9.17932366 Ry

     iteration #  2     ecut=    30.00 Ry     beta=0.70
     Davidson diagonalization with overlap
     ethr =  1.00E-02,  avg # of iterations =  4.0

     negative rho (up, down):  2.080E-02 0.000E+00

     total cpu time spent up to now is        3.1 secs

     total energy              =     -33.09759445 Ry
     Harris-Foulkes estimate   =     -40.52231262 Ry
     estimated scf accuracy    <      16.15165570 Ry

     iteration #  3     ecut=    30.00 Ry     beta=0.70
     Davidson diagonalization with overlap
     ethr =  1.00E-02,  avg # of iterations =  3.0

     negative rho (up, down):  1.401E-02 0.000E+00

     total cpu time spent up to now is        3.2 secs

     total energy              =     -31.43629312 Ry
     Harris-Foulkes estimate   =     -33.55813369 Ry
     estimated scf accuracy    <       5.70969430 Ry

     iteration #  4     ecut=    30.00 Ry     beta=0.70
     Davidson diagonalization with overlap
     ethr =  1.00E-02,  avg # of iterations =  4.0

     negative rho (up, down):  1.125E-02 0.000E+00

     total cpu time spent up to now is        3.2 secs

     total energy              =     -31.85653797 Ry
     Harris-Foulkes estimate   =     -32.13048530 Ry
     estimated scf accuracy    <       1.04395888 Ry

     iteration #  5     ecut=    30.00 Ry     beta=0.70
     Davidson diagonalization with overlap
     ethr =  1.00E-02,  avg # of iterations =  4.0

     negative rho (up, down):  2.903E-04 0.000E+00

     total cpu time spent up to now is        3.2 secs

     total energy              =     -30.12288105 Ry
     Harris-Foulkes estimate   =     -32.11226039 Ry
     estimated scf accuracy    <       3.86556873 Ry

     iteration #  6     ecut=    30.00 Ry     beta=0.70
     Davidson diagonalization with overlap
     ethr =  1.00E-02,  avg # of iterations =  4.0

     negative rho (up, down):  8.584E-04 0.000E+00

     total cpu time spent up to now is        3.3 secs

     total energy              =     -33.00972004 Ry
     Harris-Foulkes estimate   =     -33.63646002 Ry
     estimated scf accuracy    <      15.41253158 Ry

     iteration #  7     ecut=    30.00 Ry     beta=0.70
     Davidson diagonalization with overlap
     ethr =  1.00E-02,  avg # of iterations =  1.0

     negative rho (up, down):  3.591E-03 0.000E+00

     total cpu time spent up to now is        3.3 secs

     total energy              =     -32.16323836 Ry
     Harris-Foulkes estimate   =     -33.12118060 Ry
     estimated scf accuracy    <       6.76355535 Ry

     iteration #  8     ecut=    30.00 Ry     beta=0.70
     Davidson diagonalization with overlap
     ethr =  1.00E-02,  avg # of iterations =  1.0

     negative rho (up, down):  3.688E-03 0.000E+00

     total cpu time spent up to now is        3.3 secs

     total energy              =     -32.18324163 Ry
     Harris-Foulkes estimate   =     -32.19371294 Ry
     estimated scf accuracy    <       5.16089960 Ry

     iteration #  9     ecut=    30.00 Ry     beta=0.70
     Davidson diagonalization with overlap
     ethr =  1.00E-02,  avg # of iterations =  1.0

     negative rho (up, down):  3.412E-03 0.000E+00

     total cpu time spent up to now is        3.4 secs

     total energy              =     -32.15922589 Ry
     Harris-Foulkes estimate   =     -32.18439638 Ry
     estimated scf accuracy    <       5.13269281 Ry

     iteration # 10     ecut=    30.00 Ry     beta=0.70
     Davidson diagonalization with overlap
     ethr =  1.00E-02,  avg # of iterations =  1.0

     negative rho (up, down):  1.391E-02 0.000E+00

     total cpu time spent up to now is        3.4 secs

     total energy              =     -34.12680534 Ry
     Harris-Foulkes estimate   =     -32.15948640 Ry
     estimated scf accuracy    <       5.08588618 Ry

     iteration # 11     ecut=    30.00 Ry     beta=0.70
     Davidson diagonalization with overlap
     ethr =  1.00E-02,  avg # of iterations =  3.0

     negative rho (up, down):  2.788E-03 0.000E+00

     total cpu time spent up to now is        3.5 secs

     total energy              =     -32.71564062 Ry
     Harris-Foulkes estimate   =     -34.69610899 Ry
     estimated scf accuracy    <      17.93642977 Ry

     iteration # 12     ecut=    30.00 Ry     beta=0.70
     Davidson diagonalization with overlap
     ethr =  1.00E-02,  avg # of iterations =  2.0

     negative rho (up, down):  1.949E-01 0.000E+00

     total cpu time spent up to now is        3.5 secs

     total energy              =     -31.44034010 Ry
     Harris-Foulkes estimate   =     -33.04324454 Ry
     estimated scf accuracy    <       6.85063040 Ry

     iteration # 13     ecut=    30.00 Ry     beta=0.70
     Davidson diagonalization with overlap
     ethr =  1.00E-02,  avg # of iterations =  3.0

     negative rho (up, down):  4.427E-01 0.000E+00

     total cpu time spent up to now is        3.5 secs

     total energy              =     -31.81169337 Ry
     Harris-Foulkes estimate   =     -31.64734021 Ry
     estimated scf accuracy    <       0.24699410 Ry

     iteration # 14     ecut=    30.00 Ry     beta=0.70
     Davidson diagonalization with overlap
     ethr =  3.09E-03,  avg # of iterations =  3.0

     negative rho (up, down):  2.898E-01 0.000E+00

     total cpu time spent up to now is        3.6 secs

     total energy              =     -32.04268987 Ry
     Harris-Foulkes estimate   =     -32.40246523 Ry
     estimated scf accuracy    <       4.34504878 Ry

     iteration # 15     ecut=    30.00 Ry     beta=0.70
     Davidson diagonalization with overlap
     ethr =  3.09E-03,  avg # of iterations =  3.0

     negative rho (up, down):  1.621E-01 0.000E+00

     total cpu time spent up to now is        3.6 secs

     total energy              =     -31.60859313 Ry
     Harris-Foulkes estimate   =     -32.04517136 Ry
     estimated scf accuracy    <       3.80379385 Ry

     iteration # 16     ecut=    30.00 Ry     beta=0.70
     Davidson diagonalization with overlap
     ethr =  3.09E-03,  avg # of iterations =  2.0

     negative rho (up, down):  4.112E-03 0.000E+00

     total cpu time spent up to now is        3.6 secs

     total energy              =     -31.52485875 Ry
     Harris-Foulkes estimate   =     -31.63786383 Ry
     estimated scf accuracy    <       0.35970020 Ry

     iteration # 17     ecut=    30.00 Ry     beta=0.70
     Davidson diagonalization with overlap
     ethr =  3.09E-03,  avg # of iterations =  2.0

     negative rho (up, down):  2.777E-04 0.000E+00

     total cpu time spent up to now is        3.7 secs

     total energy              =     -31.55068890 Ry
     Harris-Foulkes estimate   =     -31.69716749 Ry
     estimated scf accuracy    <       1.26012299 Ry

     iteration # 18     ecut=    30.00 Ry     beta=0.70
     Davidson diagonalization with overlap
     ethr =  3.09E-03,  avg # of iterations =  1.0

     negative rho (up, down):  1.686E-04 0.000E+00

     total cpu time spent up to now is        3.7 secs

     total energy              =     -31.65442797 Ry
     Harris-Foulkes estimate   =     -31.65584009 Ry
     estimated scf accuracy    <       0.04632835 Ry

     iteration # 19     ecut=    30.00 Ry     beta=0.70
     Davidson diagonalization with overlap
     ethr =  5.79E-04,  avg # of iterations =  1.0

     negative rho (up, down):  1.595E-04 0.000E+00

     total cpu time spent up to now is        3.7 secs

     total energy              =     -31.64780914 Ry
     Harris-Foulkes estimate   =     -31.65459513 Ry
     estimated scf accuracy    <       0.04093646 Ry

     iteration # 20     ecut=    30.00 Ry     beta=0.70
     Davidson diagonalization with overlap
     ethr =  5.12E-04,  avg # of iterations =  1.0

     negative rho (up, down):  2.391E-05 0.000E+00

     total cpu time spent up to now is        3.8 secs

     total energy              =     -31.64510634 Ry
     Harris-Foulkes estimate   =     -31.64731872 Ry
     estimated scf accuracy    <       0.05314530 Ry

     iteration # 21     ecut=    30.00 Ry     beta=0.70
     Davidson diagonalization with overlap
     ethr =  5.12E-04,  avg # of iterations =  1.0

     negative rho (up, down):  5.936E-05 0.000E+00

     total cpu time spent up to now is        3.8 secs

     total energy              =     -31.62319359 Ry
     Harris-Foulkes estimate   =     -31.64544687 Ry
     estimated scf accuracy    <       0.07107227 Ry

     iteration # 22     ecut=    30.00 Ry     beta=0.70
     Davidson diagonalization with overlap
     ethr =  5.12E-04,  avg # of iterations =  1.0

     negative rho (up, down):  9.469E-06 0.000E+00

     total cpu time spent up to now is        3.9 secs

     total energy              =     -31.61859569 Ry
     Harris-Foulkes estimate   =     -31.73229314 Ry
     estimated scf accuracy    <       3.24346202 Ry

     iteration # 23     ecut=    30.00 Ry     beta=0.70
     Davidson diagonalization with overlap
     ethr =  5.12E-04,  avg # of iterations =  1.0

     negative rho (up, down):  2.180E-06 0.000E+00

     total cpu time spent up to now is        3.9 secs

     total energy              =     -31.64836469 Ry
     Harris-Foulkes estimate   =     -31.64452777 Ry
     estimated scf accuracy    <       0.24583521 Ry

     iteration # 24     ecut=    30.00 Ry     beta=0.70
     Davidson diagonalization with overlap
     ethr =  5.12E-04,  avg # of iterations =  1.0

     negative rho (up, down):  1.865E-08 0.000E+00

     total cpu time spent up to now is        4.0 secs

     total energy              =     -31.57570898 Ry
     Harris-Foulkes estimate   =     -31.64995352 Ry
     estimated scf accuracy    <       0.66137978 Ry

     iteration # 25     ecut=    30.00 Ry     beta=0.70
     Davidson diagonalization with overlap
     ethr =  5.12E-04,  avg # of iterations =  1.0

     negative rho (up, down):  9.633E-05 0.000E+00

     total cpu time spent up to now is        4.0 secs

     total energy              =     -31.65101759 Ry
     Harris-Foulkes estimate   =     -31.65178833 Ry
     estimated scf accuracy    <       0.01976162 Ry

     iteration # 26     ecut=    30.00 Ry     beta=0.70
     Davidson diagonalization with overlap
     ethr =  2.47E-04,  avg # of iterations =  1.0

     negative rho (up, down):  2.341E-05 0.000E+00

     total cpu time spent up to now is        4.1 secs

     total energy              =     -31.64527261 Ry
     Harris-Foulkes estimate   =     -31.65108869 Ry
     estimated scf accuracy    <       0.01817748 Ry

     iteration # 27     ecut=    30.00 Ry     beta=0.70
     Davidson diagonalization with overlap
     ethr =  2.27E-04,  avg # of iterations =  1.0

     negative rho (up, down):  7.729E-06 0.000E+00

     total cpu time spent up to now is        4.1 secs

     total energy              =     -31.64612026 Ry
     Harris-Foulkes estimate   =     -31.64333718 Ry
     estimated scf accuracy    <       0.05710184 Ry

     iteration # 28     ecut=    30.00 Ry     beta=0.70
     Davidson diagonalization with overlap
     ethr =  2.27E-04,  avg # of iterations =  1.0

     negative rho (up, down):  3.400E-07 0.000E+00

     total cpu time spent up to now is        4.2 secs

     total energy              =     -31.64522067 Ry
     Harris-Foulkes estimate   =     -31.64586393 Ry
     estimated scf accuracy    <       0.03429950 Ry

     iteration # 29     ecut=    30.00 Ry     beta=0.70
     Davidson diagonalization with overlap
     ethr =  2.27E-04,  avg # of iterations =  1.0

     negative rho (up, down):  2.865E-08 0.000E+00

     total cpu time spent up to now is        4.2 secs

     total energy              =     -31.64446812 Ry
     Harris-Foulkes estimate   =     -31.64518967 Ry
     estimated scf accuracy    <       0.04202415 Ry

     iteration # 30     ecut=    30.00 Ry     beta=0.70
     Davidson diagonalization with overlap
     ethr =  2.27E-04,  avg # of iterations =  1.0

     total cpu time spent up to now is        4.3 secs

     total energy              =     -31.64235238 Ry
     Harris-Foulkes estimate   =     -31.64443598 Ry
     estimated scf accuracy    <       0.04961167 Ry

     iteration # 31     ecut=    30.00 Ry     beta=0.70
     Davidson diagonalization with overlap
     ethr =  2.27E-04,  avg # of iterations =  1.0

     total cpu time spent up to now is        4.3 secs

     total energy              =     -31.64522831 Ry
     Harris-Foulkes estimate   =     -31.64224077 Ry
     estimated scf accuracy    <       0.05093394 Ry

     iteration # 32     ecut=    30.00 Ry     beta=0.70
     Davidson diagonalization with overlap
     ethr =  2.27E-04,  avg # of iterations =  1.0

     total cpu time spent up to now is        4.4 secs

     total energy              =     -31.64456073 Ry
     Harris-Foulkes estimate   =     -31.64519680 Ry
     estimated scf accuracy    <       0.04181101 Ry

     iteration # 33     ecut=    30.00 Ry     beta=0.70
     Davidson diagonalization with overlap
     ethr =  2.27E-04,  avg # of iterations =  1.0

     negative rho (up, down):  1.372E-05 0.000E+00

     total cpu time spent up to now is        4.4 secs

     total energy              =     -31.66183848 Ry
     Harris-Foulkes estimate   =     -31.64453961 Ry
     estimated scf accuracy    <       0.04872523 Ry

     iteration # 34     ecut=    30.00 Ry     beta=0.70
     Davidson diagonalization with overlap
     ethr =  2.27E-04,  avg # of iterations =  1.0

     negative rho (up, down):  1.727E-05 0.000E+00

     total cpu time spent up to now is        4.5 secs

     total energy              =     -31.65759339 Ry
     Harris-Foulkes estimate   =     -31.65484879 Ry
     estimated scf accuracy    <       0.02395126 Ry

     iteration # 35     ecut=    30.00 Ry     beta=0.70
     Davidson diagonalization with overlap
     ethr =  2.27E-04,  avg # of iterations =  1.0

     negative rho (up, down):  1.941E-05 0.000E+00

     total cpu time spent up to now is        4.5 secs

     total energy              =     -31.66174543 Ry
     Harris-Foulkes estimate   =     -31.65787371 Ry
     estimated scf accuracy    <       0.02679384 Ry

     iteration # 36     ecut=    30.00 Ry     beta=0.70
     Davidson diagonalization with overlap
     ethr =  2.27E-04,  avg # of iterations =  1.0

     negative rho (up, down):  1.180E-05 0.000E+00

     total cpu time spent up to now is        4.6 secs

     total energy              =     -31.63603626 Ry
     Harris-Foulkes estimate   =     -31.66181109 Ry
     estimated scf accuracy    <       0.03305612 Ry

     iteration # 37     ecut=    30.00 Ry     beta=0.70
     Davidson diagonalization with overlap
     ethr =  2.27E-04,  avg # of iterations =  2.0

     total cpu time spent up to now is        4.6 secs

     total energy              =     -31.59038103 Ry
     Harris-Foulkes estimate   =     -31.74570454 Ry
     estimated scf accuracy    <       3.31423010 Ry

     iteration # 38     ecut=    30.00 Ry     beta=0.70
     Davidson diagonalization with overlap
     ethr =  2.27E-04,  avg # of iterations =  1.0

     total cpu time spent up to now is        4.7 secs

     total energy              =     -31.64032108 Ry
     Harris-Foulkes estimate   =     -31.64027556 Ry
     estimated scf accuracy    <       0.00002806 Ry

     iteration # 39     ecut=    30.00 Ry     beta=0.70
     Davidson diagonalization with overlap
     ethr =  3.51E-07,  avg # of iterations = 10.0

     total cpu time spent up to now is        4.7 secs

     total energy              =     -31.64137294 Ry
     Harris-Foulkes estimate   =     -31.64083034 Ry
     estimated scf accuracy    <       0.02156875 Ry

     iteration # 40     ecut=    30.00 Ry     beta=0.70
     Davidson diagonalization with overlap
     ethr =  3.51E-07,  avg # of iterations =  1.0

     total cpu time spent up to now is        4.8 secs

     total energy              =     -31.63655802 Ry
     Harris-Foulkes estimate   =     -31.64146732 Ry
     estimated scf accuracy    <       0.03871394 Ry

     iteration # 41     ecut=    30.00 Ry     beta=0.70
     Davidson diagonalization with overlap
     ethr =  3.51E-07,  avg # of iterations =  3.0

     total cpu time spent up to now is        4.8 secs

     total energy              =     -31.64525836 Ry
     Harris-Foulkes estimate   =     -31.64403950 Ry
     estimated scf accuracy    <       0.26215850 Ry

     iteration # 42     ecut=    30.00 Ry     beta=0.70
     Davidson diagonalization with overlap
     ethr =  3.51E-07,  avg # of iterations =  1.0

     total cpu time spent up to now is        4.9 secs

     total energy              =     -31.64583796 Ry
     Harris-Foulkes estimate   =     -31.64536205 Ry
     estimated scf accuracy    <       0.36087228 Ry

     iteration # 43     ecut=    30.00 Ry     beta=0.70
     Davidson diagonalization with overlap
     ethr =  3.51E-07,  avg # of iterations =  1.0

     total cpu time spent up to now is        4.9 secs

     total energy              =     -31.64561225 Ry
     Harris-Foulkes estimate   =     -31.64584958 Ry
     estimated scf accuracy    <       0.39739900 Ry

     iteration # 44     ecut=    30.00 Ry     beta=0.70
     Davidson diagonalization with overlap
     ethr =  3.51E-07,  avg # of iterations =  1.0

     total cpu time spent up to now is        4.9 secs

     total energy              =     -31.64244374 Ry
     Harris-Foulkes estimate   =     -31.64561487 Ry
     estimated scf accuracy    <       0.37988651 Ry

     iteration # 45     ecut=    30.00 Ry     beta=0.70
     Davidson diagonalization with overlap
     ethr =  3.51E-07,  avg # of iterations =  2.0

     total cpu time spent up to now is        5.0 secs

     total energy              =     -31.63746528 Ry
     Harris-Foulkes estimate   =     -31.64293182 Ry
     estimated scf accuracy    <       0.18040928 Ry

     iteration # 46     ecut=    30.00 Ry     beta=0.70
     Davidson diagonalization with overlap
     ethr =  3.51E-07,  avg # of iterations =  2.0

     total cpu time spent up to now is        5.0 secs

     total energy              =     -31.64028726 Ry
     Harris-Foulkes estimate   =     -31.64029315 Ry
     estimated scf accuracy    <       0.00001433 Ry

     iteration # 47     ecut=    30.00 Ry     beta=0.70
     Davidson diagonalization with overlap
     ethr =  1.79E-07,  avg # of iterations =  1.0

     total cpu time spent up to now is        5.0 secs

     total energy              =     -31.64031159 Ry
     Harris-Foulkes estimate   =     -31.64036360 Ry
     estimated scf accuracy    <       0.00334359 Ry

     iteration # 48     ecut=    30.00 Ry     beta=0.70
     Davidson diagonalization with overlap
     ethr =  1.79E-07,  avg # of iterations =  1.0

     total cpu time spent up to now is        5.1 secs

     total energy              =     -31.64034110 Ry
     Harris-Foulkes estimate   =     -31.64032099 Ry
     estimated scf accuracy    <       0.00133630 Ry

     iteration # 49     ecut=    30.00 Ry     beta=0.70
     Davidson diagonalization with overlap
     ethr =  1.79E-07,  avg # of iterations =  1.0

     total cpu time spent up to now is        5.1 secs

     total energy              =     -31.64029542 Ry
     Harris-Foulkes estimate   =     -31.64034479 Ry
     estimated scf accuracy    <       0.00248902 Ry

     iteration # 50     ecut=    30.00 Ry     beta=0.70
     Davidson diagonalization with overlap
     ethr =  1.79E-07,  avg # of iterations =  1.0

     total cpu time spent up to now is        5.1 secs

     total energy              =     -31.64030441 Ry
     Harris-Foulkes estimate   =     -31.64030714 Ry
     estimated scf accuracy    <       0.00066013 Ry

     iteration # 51     ecut=    30.00 Ry     beta=0.70
     Davidson diagonalization with overlap
     ethr =  1.79E-07,  avg # of iterations =  1.0

     total cpu time spent up to now is        5.2 secs

     total energy              =     -31.64030033 Ry
     Harris-Foulkes estimate   =     -31.64030456 Ry
     estimated scf accuracy    <       0.00052904 Ry

     iteration # 52     ecut=    30.00 Ry     beta=0.70
     Davidson diagonalization with overlap
     ethr =  1.79E-07,  avg # of iterations =  1.0

     total cpu time spent up to now is        5.2 secs

     total energy              =     -31.64029823 Ry
     Harris-Foulkes estimate   =     -31.64030080 Ry
     estimated scf accuracy    <       0.00033135 Ry

     iteration # 53     ecut=    30.00 Ry     beta=0.70
     Davidson diagonalization with overlap
     ethr =  1.79E-07,  avg # of iterations =  1.0

     total cpu time spent up to now is        5.2 secs

     total energy              =     -31.64029272 Ry
     Harris-Foulkes estimate   =     -31.64029853 Ry
     estimated scf accuracy    <       0.00020557 Ry

     iteration # 54     ecut=    30.00 Ry     beta=0.70
     Davidson diagonalization with overlap
     ethr =  1.79E-07,  avg # of iterations =  1.0

     total cpu time spent up to now is        5.3 secs

     total energy              =     -31.64029438 Ry
     Harris-Foulkes estimate   =     -31.64029490 Ry
     estimated scf accuracy    <       0.00001311 Ry

     iteration # 55     ecut=    30.00 Ry     beta=0.70
     Davidson diagonalization with overlap
     ethr =  1.64E-07,  avg # of iterations =  1.0

     total cpu time spent up to now is        5.3 secs

     total energy              =     -31.64029463 Ry
     Harris-Foulkes estimate   =     -31.64029465 Ry
     estimated scf accuracy    <       0.00000001 Ry

     iteration # 56     ecut=    30.00 Ry     beta=0.70
     Davidson diagonalization with overlap
     ethr =  1.47E-10,  avg # of iterations =  2.0

     total cpu time spent up to now is        5.3 secs

     total energy              =     -31.64029464 Ry
     Harris-Foulkes estimate   =     -31.64029463 Ry
     estimated scf accuracy    <       0.00000001 Ry

     iteration # 57     ecut=    30.00 Ry     beta=0.70
     Davidson diagonalization with overlap
     ethr =  1.47E-10,  avg # of iterations =  1.0

     total cpu time spent up to now is        5.4 secs

     End of self-consistent calculation

          k = 0.0000 0.0000 0.0000 ( 22119 PWs)   bands (ev):

   -24.3126  -7.8291  -7.6722  -7.6719  -7.6694  -4.9623  -0.2789   0.5459

     the Fermi energy is    -7.5431 ev

!    total energy              =     -31.64029463 Ry
     Harris-Foulkes estimate   =     -31.64029464 Ry
     estimated scf accuracy    <          8.6E-11 Ry

     convergence has been achieved in  57 iterations

     Forces acting on atoms (Ry/au):

     atom    1 type  1   force =    -0.07380554   -0.04517750    0.06029455
     atom    2 type  1   force =     0.07342266    0.04589723   -0.06096541
     atom    3 type  2   force =     0.00038288   -0.00071974    0.00067086

     Total force =     0.149462     Total SCF correction =     0.000020

     Entering Dynamics:    iteration =     3
                           time      =   0.0145 pico-seconds


     Andersen thermostat:    3 collisions

ATOMIC_POSITIONS (bohr)
H        9.123217770  -1.042599628   3.657278502
H        8.426318451  18.342456207   3.859346160
O        4.443462040   6.312947852   0.365965932


     kinetic energy (Ekin) =     0.06970792 Ry
     temperature           =  3668.66576452 K 
     Ekin + Etot (const)   =   -31.57058671 Ry
     Message from routine dynamics:
     Total linear momentum <> 0

     Linear momentum :   -0.3854415330    0.1227355131    0.1697822393

     Writing output data file pwscf.save

     second order wave-functions extrapolation
     Check: negative starting charge=   -0.356132
     second order charge density extrapolation
     Check: negative starting charge=   -0.362163

     negative rho (up, down):  1.827E-01 0.000E+00

     total cpu time spent up to now is        5.7 secs

     per-process dynamical memory:    20.4 Mb

     Self-consistent Calculation

     iteration #  1     ecut=    30.00 Ry     beta=0.70
     Davidson diagonalization with overlap
     ethr =  1.00E-06,  avg # of iterations =  9.0

     negative rho (up, down):  1.579E-02 0.000E+00

     total cpu time spent up to now is        5.8 secs

     total energy              =      46.35557345 Ry
     Harris-Foulkes estimate   =    -317.72937840 Ry
     estimated scf accuracy    <      23.73499519 Ry

     iteration #  2     ecut=    30.00 Ry     beta=0.70
     Davidson diagonalization with overlap
     ethr =  1.00E-02,  avg # of iterations =  6.0

     negative rho (up, down):  8.810E-03 0.000E+00

     total cpu time spent up to now is        5.8 secs

     total energy              =     -12.32978837 Ry
     Harris-Foulkes estimate   =     -57.88788351 Ry
     estimated scf accuracy    <      19.81479534 Ry

     iteration #  3     ecut=    30.00 Ry     beta=0.70
     Davidson diagonalization with overlap
     ethr =  1.00E-02,  avg # of iterations =  5.0

     negative rho (up, down):  8.257E-03 0.000E+00

     total cpu time spent up to now is        5.9 secs

     total energy              =     -34.90519393 Ry
     Harris-Foulkes estimate   =     -40.54499991 Ry
     estimated scf accuracy    <      17.39094507 Ry

     iteration #  4     ecut=    30.00 Ry     beta=0.70
     Davidson diagonalization with overlap
     ethr =  1.00E-02,  avg # of iterations =  2.0

     negative rho (up, down):  4.819E-02 0.000E+00

     total cpu time spent up to now is        5.9 secs

     total energy              =     -30.73501835 Ry
     Harris-Foulkes estimate   =     -35.03777305 Ry
     estimated scf accuracy    <       9.88811258 Ry

     iteration #  5     ecut=    30.00 Ry     beta=0.70
     Davidson diagonalization with overlap
     ethr =  1.00E-02,  avg # of iterations =  5.0

     negative rho (up, down):  4.713E-03 0.000E+00

     total cpu time spent up to now is        5.9 secs

     total energy              =     -31.87665356 Ry
     Harris-Foulkes estimate   =     -32.53434200 Ry
     estimated scf accuracy    <       1.07557252 Ry

     iteration #  6     ecut=    30.00 Ry     beta=0.70
     Davidson diagonalization with overlap
     ethr =  1.00E-02,  avg # of iterations =  2.0

     negative rho (up, down):  4.610E-03 0.000E+00

     total cpu time spent up to now is        6.0 secs

     total energy              =     -32.18782520 Ry
     Harris-Foulkes estimate   =     -32.26912056 Ry
     estimated scf accuracy    <       0.95919557 Ry

     iteration #  7     ecut=    30.00 Ry     beta=0.70
     Davidson diagonalization with overlap
     ethr =  1.00E-02,  avg # of iterations =  1.0

     negative rho (up, down):  1.190E-01 0.000E+00

     total cpu time spent up to now is        6.0 secs

     total energy              =     -29.90198919 Ry
     Harris-Foulkes estimate   =     -32.27806014 Ry
     estimated scf accuracy    <       6.14617277 Ry

     iteration #  8     ecut=    30.00 Ry     beta=0.70
     Davidson diagonalization with overlap
     ethr =  1.00E-02,  avg # of iterations =  5.0

     negative rho (up, down):  9.875E-02 0.000E+00

     total cpu time spent up to now is        6.1 secs

     total energy              =     254.01619222 Ry
     Harris-Foulkes estimate   =     -32.54369981 Ry
     estimated scf accuracy    <       6.24200114 Ry

     iteration #  9     ecut=    30.00 Ry     beta=0.70
     Davidson diagonalization with overlap
     ethr =  1.00E-02,  avg # of iterations =  5.0

     negative rho (up, down):  9.410E-02 0.000E+00

     total cpu time spent up to now is        6.1 secs

     total energy              =     -25.11712313 Ry
     Harris-Foulkes estimate   =     -32.89855669 Ry
     estimated scf accuracy    <       7.22549988 Ry

     iteration # 10     ecut=    30.00 Ry     beta=0.70
     Davidson diagonalization with overlap
     ethr =  1.00E-02,  avg # of iterations =  4.0

     negative rho (up, down):  1.638E-01 0.000E+00

     total cpu time spent up to now is        6.1 secs

     total energy              =      59.99700849 Ry
     Harris-Foulkes estimate   =    -210.42084871 Ry
     estimated scf accuracy    <       9.97303235 Ry

     iteration # 11     ecut=    30.00 Ry     beta=0.70
     Davidson diagonalization with overlap
     ethr =  1.00E-02,  avg # of iterations =  3.0

     negative rho (up, down):  4.860E-02 0.000E+00

     total cpu time spent up to now is        6.2 secs

     total energy              =     -28.65401872 Ry
     Harris-Foulkes estimate   =     -33.67512498 Ry
     estimated scf accuracy    <       8.00323543 Ry

     iteration # 12     ecut=    30.00 Ry     beta=0.70
     Davidson diagonalization with overlap
     ethr =  1.00E-02,  avg # of iterations =  4.0

     negative rho (up, down):  4.254E-02 0.000E+00

     total cpu time spent up to now is        6.2 secs

     total energy              =     -31.99101631 Ry
     Harris-Foulkes estimate   =     -31.90569150 Ry
     estimated scf accuracy    <       0.05318673 Ry

     iteration # 13     ecut=    30.00 Ry     beta=0.70
     Davidson diagonalization with overlap
     ethr =  6.65E-04,  avg # of iterations =  5.0

     negative rho (up, down):  7.884E-03 0.000E+00

     total cpu time spent up to now is        6.3 secs

     total energy              =     -14.36696158 Ry
     Harris-Foulkes estimate   =     -33.47693827 Ry
     estimated scf accuracy    <       6.69729548 Ry

     iteration # 14     ecut=    30.00 Ry     beta=0.70
     Davidson diagonalization with overlap
     ethr =  6.65E-04,  avg # of iterations =  9.0

     negative rho (up, down):  1.013E-02 0.000E+00

     total cpu time spent up to now is        6.3 secs

     total energy              =     -31.71677797 Ry
     Harris-Foulkes estimate   =     -31.84984180 Ry
     estimated scf accuracy    <       0.06026069 Ry

     iteration # 15     ecut=    30.00 Ry     beta=0.70
     Davidson diagonalization with overlap
     ethr =  6.65E-04,  avg # of iterations =  4.0

     negative rho (up, down):  5.869E-03 0.000E+00

     total cpu time spent up to now is        6.3 secs

     total energy              =     -31.96882937 Ry
     Harris-Foulkes estimate   =     -31.82469696 Ry
     estimated scf accuracy    <       0.00438274 Ry

     iteration # 16     ecut=    30.00 Ry     beta=0.70
     Davidson diagonalization with overlap
     ethr =  5.48E-05,  avg # of iterations =  4.0

     negative rho (up, down):  2.943E-04 0.000E+00

     total cpu time spent up to now is        6.4 secs

     total energy              =     -21.94100538 Ry
     Harris-Foulkes estimate   =     -37.70877070 Ry
     estimated scf accuracy    <       5.57246359 Ry

     iteration # 17     ecut=    30.00 Ry     beta=0.70
     Davidson diagonalization with overlap
     ethr =  5.48E-05,  avg # of iterations = 17.0

     negative rho (up, down):  1.710E-03 0.000E+00

     total cpu time spent up to now is        6.4 secs

     total energy              =     -31.80058525 Ry
     Harris-Foulkes estimate   =     -31.81687913 Ry
     estimated scf accuracy    <       0.00605043 Ry

     iteration # 18     ecut=    30.00 Ry     beta=0.70
     Davidson diagonalization with overlap
     ethr =  5.48E-05,  avg # of iterations =  2.0

     negative rho (up, down):  1.598E-03 0.000E+00

     total cpu time spent up to now is        6.5 secs

     total energy              =     -31.79920205 Ry
     Harris-Foulkes estimate   =     -31.80861172 Ry
     estimated scf accuracy    <       0.00054120 Ry

     iteration # 19     ecut=    30.00 Ry     beta=0.70
     Davidson diagonalization with overlap
     ethr =  6.76E-06,  avg # of iterations = 11.0

     negative rho (up, down):  1.844E-03 0.000E+00

     total cpu time spent up to now is        6.6 secs

     total energy              =     -31.80548096 Ry
     Harris-Foulkes estimate   =     -31.80306245 Ry
     estimated scf accuracy    <       0.00121090 Ry

     iteration # 20     ecut=    30.00 Ry     beta=0.70
     Davidson diagonalization with overlap
     ethr =  6.76E-06,  avg # of iterations =  2.0

     total cpu time spent up to now is        6.6 secs

     total energy              =     -31.79250444 Ry
     Harris-Foulkes estimate   =     -31.80585258 Ry
     estimated scf accuracy    <       0.00074332 Ry

     iteration # 21     ecut=    30.00 Ry     beta=0.70
     Davidson diagonalization with overlap
     ethr =  6.76E-06,  avg # of iterations = 10.0

     total cpu time spent up to now is        6.7 secs

     total energy              =     -31.79359089 Ry
     Harris-Foulkes estimate   =     -31.79565787 Ry
     estimated scf accuracy    <       0.04321052 Ry

     iteration # 22     ecut=    30.00 Ry     beta=0.70
     Davidson diagonalization with overlap
     ethr =  6.76E-06,  avg # of iterations =  1.0

     total cpu time spent up to now is        6.7 secs

     total energy              =     -31.79485804 Ry
     Harris-Foulkes estimate   =     -31.79491336 Ry
     estimated scf accuracy    <       0.00036229 Ry

     iteration # 23     ecut=    30.00 Ry     beta=0.70
     Davidson diagonalization with overlap
     ethr =  4.53E-06,  avg # of iterations =  1.0

     total cpu time spent up to now is        6.7 secs

     total energy              =     -31.79488659 Ry
     Harris-Foulkes estimate   =     -31.79487178 Ry
     estimated scf accuracy    <       0.00006870 Ry

     iteration # 24     ecut=    30.00 Ry     beta=0.70
     Davidson diagonalization with overlap
     ethr =  8.59E-07,  avg # of iterations =  1.0

     total cpu time spent up to now is        6.8 secs

     total energy              =     -31.79487106 Ry
     Harris-Foulkes estimate   =     -31.79488812 Ry
     estimated scf accuracy    <       0.00006821 Ry

     iteration # 25     ecut=    30.00 Ry     beta=0.70
     Davidson diagonalization with overlap
     ethr =  8.53E-07,  avg # of iterations =  1.0

     total cpu time spent up to now is        6.8 secs

     total energy              =     -31.79500097 Ry
     Harris-Foulkes estimate   =     -31.79487149 Ry
     estimated scf accuracy    <       0.00004987 Ry

     iteration # 26     ecut=    30.00 Ry     beta=0.70
     Davidson diagonalization with overlap
     ethr =  6.23E-07,  avg # of iterations =  2.0

     total cpu time spent up to now is        6.8 secs

     total energy              =     -31.79503982 Ry
     Harris-Foulkes estimate   =     -31.79500423 Ry
     estimated scf accuracy    <       0.00002812 Ry

     iteration # 27     ecut=    30.00 Ry     beta=0.70
     Davidson diagonalization with overlap
     ethr =  3.51E-07,  avg # of iterations =  1.0

     total cpu time spent up to now is        6.9 secs

     total energy              =     -31.79503571 Ry
     Harris-Foulkes estimate   =     -31.79504446 Ry
     estimated scf accuracy    <       0.00005180 Ry

     iteration # 28     ecut=    30.00 Ry     beta=0.70
     Davidson diagonalization with overlap
     ethr =  3.51E-07,  avg # of iterations =  1.0

     total cpu time spent up to now is        6.9 secs

     total energy              =     -31.79503411 Ry
     Harris-Foulkes estimate   =     -31.79503774 Ry
     estimated scf accuracy    <       0.00009920 Ry

     iteration # 29     ecut=    30.00 Ry     beta=0.70
     Davidson diagonalization with overlap
     ethr =  3.51E-07,  avg # of iterations =  1.0

     total cpu time spent up to now is        6.9 secs

     total energy              =     -31.79503598 Ry
     Harris-Foulkes estimate   =     -31.79503621 Ry
     estimated scf accuracy    <       0.00000638 Ry

     iteration # 30     ecut=    30.00 Ry     beta=0.70
     Davidson diagonalization with overlap
     ethr =  7.98E-08,  avg # of iterations =  1.0

     total cpu time spent up to now is        7.0 secs

     total energy              =     -31.79503603 Ry
     Harris-Foulkes estimate   =     -31.79503609 Ry
     estimated scf accuracy    <       0.00000113 Ry

     iteration # 31     ecut=    30.00 Ry     beta=0.70
     Davidson diagonalization with overlap
     ethr =  1.41E-08,  avg # of iterations =  1.0

     total cpu time spent up to now is        7.0 secs

     total energy              =     -31.79503608 Ry
     Harris-Foulkes estimate   =     -31.79503607 Ry
     estimated scf accuracy    <       0.00000004 Ry

     iteration # 32     ecut=    30.00 Ry     beta=0.70
     Davidson diagonalization with overlap
     ethr =  4.43E-10,  avg # of iterations =  1.0

     total cpu time spent up to now is        7.0 secs

     End of self-consistent calculation

          k = 0.0000 0.0000 0.0000 ( 22119 PWs)   bands (ev):

   -26.4739  -9.9714  -9.6807  -9.6800  -9.6789  -0.4823   0.6745   0.9642

     the Fermi energy is    -9.5672 ev

!    total energy              =     -31.79503611 Ry
     Harris-Foulkes estimate   =     -31.79503608 Ry
     estimated scf accuracy    <          1.3E-09 Ry

     convergence has been achieved in  32 iterations

     Forces acting on atoms (Ry/au):

     atom    1 type  1   force =     0.59018855    0.52130564   -0.17151468
     atom    2 type  1   force =    -0.59031827   -0.52018781    0.17045468
     atom    3 type  2   force =     0.00012971   -0.00111783    0.00106000

     Total force =     1.139135     Total SCF correction =     0.000037

     Entering Dynamics:    iteration =     4
                           time      =   0.0194 pico-seconds


     Andersen thermostat:    3 collisions

ATOMIC_POSITIONS (bohr)
H       15.351859468   4.436271012   1.753583041
H        2.032481408  12.878831843   5.339143506
O        4.453889996   6.311985431   0.392724500


     kinetic energy (Ekin) =     1.59018352 Ry
     temperature           = 83689.94041507 K 
     Ekin + Etot (const)   =   -30.20485258 Ry
     Message from routine dynamics:
     Total linear momentum <> 0

     Linear momentum :    0.1110509805    0.2061130212   -0.0581326868

     Writing output data file pwscf.save

     second order wave-functions extrapolation
     Check: negative starting charge=   -0.362163
     second order charge density extrapolation
     Check: negative starting charge=   -0.343692

     negative rho (up, down):  2.573E+00 0.000E+00

     total cpu time spent up to now is        7.3 secs

     per-process dynamical memory:    20.4 Mb

     Self-consistent Calculation

     iteration #  1     ecut=    30.00 Ry     beta=0.70
     Davidson diagonalization with overlap
     c_bands:  1 eigenvalues not converged
     ethr =  1.00E-06,  avg # of iterations = 20.0

     negative rho (up, down):  5.477E-01 0.000E+00

     total cpu time spent up to now is        7.5 secs

     total energy              =      96.40808324 Ry
     Harris-Foulkes estimate   =    -216.73938401 Ry
     estimated scf accuracy    <      82.32225554 Ry

     iteration #  2     ecut=    30.00 Ry     beta=0.70
     Davidson diagonalization with overlap
     ethr =  1.00E-02,  avg # of iterations =  9.0

     negative rho (up, down):  1.172E-01 0.000E+00

     total cpu time spent up to now is        7.5 secs

     total energy              =     128.28494459 Ry
     Harris-Foulkes estimate   =   -1457.13518569 Ry
     estimated scf accuracy    <      37.73034672 Ry

     iteration #  3     ecut=    30.00 Ry     beta=0.70
     Davidson diagonalization with overlap
     ethr =  1.00E-02,  avg # of iterations = 11.0

     negative rho (up, down):  1.341E-02 0.000E+00

     total cpu time spent up to now is        7.6 secs

     total energy              =      94.15662403 Ry
     Harris-Foulkes estimate   =    -832.33867603 Ry
     estimated scf accuracy    <      23.83896334 Ry

     iteration #  4     ecut=    30.00 Ry     beta=0.70
     Davidson diagonalization with overlap
     ethr =  1.00E-02,  avg # of iterations =  8.0

     negative rho (up, down):  5.575E-02 0.000E+00

     total cpu time spent up to now is        7.6 secs

     total energy              =     -49.38236817 Ry
     Harris-Foulkes estimate   =     -76.04346922 Ry
     estimated scf accuracy    <      59.84305473 Ry

     iteration #  5     ecut=    30.00 Ry     beta=0.70
     Davidson diagonalization with overlap
     ethr =  1.00E-02,  avg # of iterations =  4.0

     negative rho (up, down):  3.998E-02 0.000E+00

     total cpu time spent up to now is        7.7 secs

     total energy              =     -24.38099238 Ry
     Harris-Foulkes estimate   =    -289.76475244 Ry
     estimated scf accuracy    <      14.58166119 Ry

     iteration #  6     ecut=    30.00 Ry     beta=0.70
     Davidson diagonalization with overlap
     ethr =  1.00E-02,  avg # of iterations =  8.0

     negative rho (up, down):  4.452E-02 0.000E+00

     total cpu time spent up to now is        7.7 secs

     total energy              =      -6.48599590 Ry
     Harris-Foulkes estimate   =    -167.05596361 Ry
     estimated scf accuracy    <      12.55572517 Ry

     iteration #  7     ecut=    30.00 Ry     beta=0.70
     Davidson diagonalization with overlap
     ethr =  1.00E-02,  avg # of iterations =  5.0

     negative rho (up, down):  5.030E-02 0.000E+00

     total cpu time spent up to now is        7.8 secs

     total energy              =     -13.29255578 Ry
     Harris-Foulkes estimate   =     -53.42584702 Ry
     estimated scf accuracy    <      14.27348811 Ry

     iteration #  8     ecut=    30.00 Ry     beta=0.70
     Davidson diagonalization with overlap
     ethr =  1.00E-02,  avg # of iterations =  5.0

     negative rho (up, down):  8.256E-02 0.000E+00

     total cpu time spent up to now is        7.8 secs

     total energy              =      -9.46873945 Ry
     Harris-Foulkes estimate   =     -97.32871381 Ry
     estimated scf accuracy    <      11.21400402 Ry

     iteration #  9     ecut=    30.00 Ry     beta=0.70
     Davidson diagonalization with overlap
     ethr =  1.00E-02,  avg # of iterations =  5.0

     negative rho (up, down):  1.646E-01 0.000E+00

     total cpu time spent up to now is        7.9 secs

     total energy              =    1189.60282818 Ry
     Harris-Foulkes estimate   =    -123.57739381 Ry
     estimated scf accuracy    <      10.95719702 Ry

     iteration # 10     ecut=    30.00 Ry     beta=0.70
     Davidson diagonalization with overlap
     ethr =  1.00E-02,  avg # of iterations =  5.0

     negative rho (up, down):  2.207E+00 0.000E+00

     total cpu time spent up to now is        7.9 secs

     total energy              =     -33.41415417 Ry
     Harris-Foulkes estimate   =     -43.24540719 Ry
     estimated scf accuracy    <      18.39516217 Ry

     iteration # 11     ecut=    30.00 Ry     beta=0.70
     Davidson diagonalization with overlap
     ethr =  1.00E-02,  avg # of iterations =  9.0

     negative rho (up, down):  4.414E-01 0.000E+00

     total cpu time spent up to now is        8.0 secs

     total energy              =    -235.67792870 Ry
     Harris-Foulkes estimate   =   -5331.38886359 Ry
     estimated scf accuracy    <     103.12059549 Ry

     iteration # 12     ecut=    30.00 Ry     beta=0.70
     Davidson diagonalization with overlap
     ethr =  1.00E-02,  avg # of iterations =  7.0

     negative rho (up, down):  5.384E-01 0.000E+00

     total cpu time spent up to now is        8.0 secs

     total energy              =      78.60606246 Ry
     Harris-Foulkes estimate   =    -763.96027313 Ry
     estimated scf accuracy    <      77.23357579 Ry

     iteration # 13     ecut=    30.00 Ry     beta=0.70
     Davidson diagonalization with overlap
     ethr =  1.00E-02,  avg # of iterations = 12.0

     negative rho (up, down):  4.319E-01 0.000E+00

     total cpu time spent up to now is        8.1 secs

     total energy              =     -72.44726280 Ry
     Harris-Foulkes estimate   =    -605.26998691 Ry
     estimated scf accuracy    <      61.28764022 Ry

     iteration # 14     ecut=    30.00 Ry     beta=0.70
     Davidson diagonalization with overlap
     ethr =  1.00E-02,  avg # of iterations =  4.0

     negative rho (up, down):  4.097E-01 0.000E+00

     total cpu time spent up to now is        8.1 secs

     total energy              =    -965.53072636 Ry
     Harris-Foulkes estimate   =   -2744.75940631 Ry
     estimated scf accuracy    <      64.91603104 Ry

     iteration # 15     ecut=    30.00 Ry     beta=0.70
     Davidson diagonalization with overlap
     ethr =  1.00E-02,  avg # of iterations = 10.0

     negative rho (up, down):  1.849E-01 0.000E+00

     total cpu time spent up to now is        8.2 secs

     total energy              =   -2025.61858306 Ry
     Harris-Foulkes estimate   =   -2624.89602713 Ry
     estimated scf accuracy    <      59.72977939 Ry

     iteration # 16     ecut=    30.00 Ry     beta=0.70
     Davidson diagonalization with overlap
     ethr =  1.00E-02,  avg # of iterations = 10.0

     negative rho (up, down):  2.577E-01 0.000E+00

     total cpu time spent up to now is        8.2 secs

     total energy              =  -12012.85976065 Ry
     Harris-Foulkes estimate   =   -7793.57450891 Ry
     estimated scf accuracy    <      34.63429706 Ry

     iteration # 17     ecut=    30.00 Ry     beta=0.70
     Davidson diagonalization with overlap
     ethr =  1.00E-02,  avg # of iterations =  5.0

     negative rho (up, down):  2.878E-01 0.000E+00

[...]

     total energy              =     -32.20525815 Ry
     Harris-Foulkes estimate   =     -32.39827187 Ry
     estimated scf accuracy    <       4.16458953 Ry

     iteration # 59     ecut=    30.00 Ry     beta=0.70
     Davidson diagonalization with overlap
     ethr =  1.00E-02,  avg # of iterations =  2.0

     total cpu time spent up to now is       29.8 secs

     total energy              =     -31.90167086 Ry
     Harris-Foulkes estimate   =     -32.22723580 Ry
     estimated scf accuracy    <       3.80761076 Ry

     iteration # 60     ecut=    30.00 Ry     beta=0.70
     Davidson diagonalization with overlap
     ethr =  1.00E-02,  avg # of iterations =  1.0

     negative rho (up, down):  7.454E-03 0.000E+00

     total cpu time spent up to now is       29.8 secs

     total energy              =     -31.81455572 Ry
     Harris-Foulkes estimate   =     -31.90262287 Ry
     estimated scf accuracy    <       3.33823742 Ry

     iteration # 61     ecut=    30.00 Ry     beta=0.70
     Davidson diagonalization with overlap
     ethr =  1.00E-02,  avg # of iterations =  1.0

     negative rho (up, down):  4.473E-02 0.000E+00

     total cpu time spent up to now is       29.8 secs

     total energy              =     -32.01289677 Ry
     Harris-Foulkes estimate   =     -31.81573019 Ry
     estimated scf accuracy    <       3.13169719 Ry

     iteration # 62     ecut=    30.00 Ry     beta=0.70
     Davidson diagonalization with overlap
     ethr =  1.00E-02,  avg # of iterations =  1.0

     negative rho (up, down):  7.096E-02 0.000E+00

     total cpu time spent up to now is       29.9 secs

     total energy              =     -32.13159335 Ry
     Harris-Foulkes estimate   =     -32.01458432 Ry
     estimated scf accuracy    <       3.47689318 Ry

     iteration # 63     ecut=    30.00 Ry     beta=0.70
     Davidson diagonalization with overlap
     ethr =  1.00E-02,  avg # of iterations =  1.0

     negative rho (up, down):  8.071E-02 0.000E+00

     total cpu time spent up to now is       29.9 secs

     total energy              =     -29.82654328 Ry
     Harris-Foulkes estimate   =     -32.13206336 Ry
     estimated scf accuracy    <       3.68420965 Ry

     iteration # 64     ecut=    30.00 Ry     beta=0.70
     Davidson diagonalization with overlap
     ethr =  1.00E-02,  avg # of iterations =  4.0

     negative rho (up, down):  5.235E-04 0.000E+00

     total cpu time spent up to now is       30.0 secs

     total energy              =     -31.65501378 Ry
     Harris-Foulkes estimate   =     -34.92627064 Ry
     estimated scf accuracy    <      16.90010219 Ry

     iteration # 65     ecut=    30.00 Ry     beta=0.70
     Davidson diagonalization with overlap
     ethr =  1.00E-02,  avg # of iterations =  3.0

     negative rho (up, down):  3.529E-05 0.000E+00

     total cpu time spent up to now is       30.0 secs

     total energy              =     -31.89151514 Ry
     Harris-Foulkes estimate   =     -32.29914369 Ry
     estimated scf accuracy    <       5.15674374 Ry

     iteration # 66     ecut=    30.00 Ry     beta=0.70
     Davidson diagonalization with overlap
     ethr =  1.00E-02,  avg # of iterations =  1.0

     negative rho (up, down):  1.745E-04 0.000E+00

     total cpu time spent up to now is       30.0 secs

     total energy              =     -32.13757450 Ry
     Harris-Foulkes estimate   =     -31.90571661 Ry
     estimated scf accuracy    <       4.38662185 Ry

     iteration # 67     ecut=    30.00 Ry     beta=0.70
     Davidson diagonalization with overlap
     ethr =  1.00E-02,  avg # of iterations =  1.0

     negative rho (up, down):  2.499E-05 0.000E+00

     total cpu time spent up to now is       30.1 secs

     total energy              =     -31.77550921 Ry
     Harris-Foulkes estimate   =     -32.14008661 Ry
     estimated scf accuracy    <       4.72135661 Ry

     iteration # 68     ecut=    30.00 Ry     beta=0.70
     Davidson diagonalization with overlap
     ethr =  1.00E-02,  avg # of iterations =  1.0

     negative rho (up, down):  5.019E-06 0.000E+00

     total cpu time spent up to now is       30.1 secs

     total energy              =     -31.93546930 Ry
     Harris-Foulkes estimate   =     -31.78978615 Ry
     estimated scf accuracy    <       4.13958637 Ry

     iteration # 69     ecut=    30.00 Ry     beta=0.70
     Davidson diagonalization with overlap
     ethr =  1.00E-02,  avg # of iterations =  1.0

     negative rho (up, down):  4.504E-06 0.000E+00

     total cpu time spent up to now is       30.1 secs

     total energy              =     -31.93316205 Ry
     Harris-Foulkes estimate   =     -31.93656904 Ry
     estimated scf accuracy    <       4.33178541 Ry

     iteration # 70     ecut=    30.00 Ry     beta=0.70
     Davidson diagonalization with overlap
     ethr =  1.00E-02,  avg # of iterations =  1.0

     negative rho (up, down):  2.630E-05 0.000E+00

     total cpu time spent up to now is       30.2 secs

     total energy              =     -31.66883474 Ry
     Harris-Foulkes estimate   =     -31.93319752 Ry
     estimated scf accuracy    <       4.33477982 Ry

     iteration # 71     ecut=    30.00 Ry     beta=0.70
     Davidson diagonalization with overlap
     ethr =  1.00E-02,  avg # of iterations =  1.0

     negative rho (up, down):  2.503E-02 0.000E+00

     total cpu time spent up to now is       30.2 secs

     total energy              =     -31.51191082 Ry
     Harris-Foulkes estimate   =     -31.67168480 Ry
     estimated scf accuracy    <       4.03665555 Ry

     iteration # 72     ecut=    30.00 Ry     beta=0.70
     Davidson diagonalization with overlap
     ethr =  1.00E-02,  avg # of iterations =  4.0

     negative rho (up, down):  2.636E+00 0.000E+00

     total cpu time spent up to now is       30.2 secs

     total energy              =     -32.60591294 Ry
     Harris-Foulkes estimate   =     -31.53176580 Ry
     estimated scf accuracy    <       2.69144596 Ry

     iteration # 73     ecut=    30.00 Ry     beta=0.70
     Davidson diagonalization with overlap
     ethr =  1.00E-02,  avg # of iterations =  6.0

     negative rho (up, down):  7.054E-01 0.000E+00

     total cpu time spent up to now is       30.3 secs

     total energy              =     -22.31244469 Ry
     Harris-Foulkes estimate   =     -35.05332528 Ry
     estimated scf accuracy    <      20.37757145 Ry

     iteration # 74     ecut=    30.00 Ry     beta=0.70
     Davidson diagonalization with overlap
     ethr =  1.00E-02,  avg # of iterations =  7.0

     negative rho (up, down):  6.517E-01 0.000E+00

     total cpu time spent up to now is       30.3 secs

     total energy              =     -70.37186784 Ry
     Harris-Foulkes estimate   =    -407.99027560 Ry
     estimated scf accuracy    <      47.80155692 Ry

     iteration # 75     ecut=    30.00 Ry     beta=0.70
     Davidson diagonalization with overlap
     ethr =  1.00E-02,  avg # of iterations =  8.0

     negative rho (up, down):  6.982E-01 0.000E+00

     total cpu time spent up to now is       30.4 secs

     total energy              =      -6.71412810 Ry
     Harris-Foulkes estimate   =    -319.35881016 Ry
     estimated scf accuracy    <      76.37763464 Ry

     iteration # 76     ecut=    30.00 Ry     beta=0.70
     Davidson diagonalization with overlap
     ethr =  1.00E-02,  avg # of iterations =  7.0

     negative rho (up, down):  6.178E-01 0.000E+00

     total cpu time spent up to now is       30.4 secs

     total energy              =     -68.18672571 Ry
     Harris-Foulkes estimate   =    -240.28803874 Ry
     estimated scf accuracy    <      48.63346177 Ry

     iteration # 77     ecut=    30.00 Ry     beta=0.70
     Davidson diagonalization with overlap
     ethr =  1.00E-02,  avg # of iterations =  4.0

     negative rho (up, down):  6.904E-01 0.000E+00

     total cpu time spent up to now is       30.5 secs

     total energy              =     -65.73657613 Ry
     Harris-Foulkes estimate   =    -399.52731223 Ry
     estimated scf accuracy    <      47.03773844 Ry

     iteration # 78     ecut=    30.00 Ry     beta=0.70
     Davidson diagonalization with overlap
     ethr =  1.00E-02,  avg # of iterations =  6.0

     negative rho (up, down):  2.951E-01 0.000E+00

     total cpu time spent up to now is       30.5 secs

     total energy              =      16.76972572 Ry
     Harris-Foulkes estimate   =    -434.13698525 Ry
     estimated scf accuracy    <      47.05491068 Ry

     iteration # 79     ecut=    30.00 Ry     beta=0.70
     Davidson diagonalization with overlap
     ethr =  1.00E-02,  avg # of iterations =  7.0

     negative rho (up, down):  8.067E-01 0.000E+00

     total cpu time spent up to now is       30.6 secs

     total energy              =     738.90471034 Ry
     Harris-Foulkes estimate   =    -354.32820107 Ry
     estimated scf accuracy    <      56.93700200 Ry

     iteration # 80     ecut=    30.00 Ry     beta=0.70
     Davidson diagonalization with overlap
     ethr =  1.00E-02,  avg # of iterations =  7.0

     negative rho (up, down):  7.617E-01 0.000E+00

     total cpu time spent up to now is       30.7 secs

     total energy              =    -147.04099425 Ry
     Harris-Foulkes estimate   =   -1096.45825701 Ry
     estimated scf accuracy    <      53.88147408 Ry

     iteration # 81     ecut=    30.00 Ry     beta=0.70
     Davidson diagonalization with overlap
     ethr =  1.00E-02,  avg # of iterations =  5.0

     negative rho (up, down):  4.834E-01 0.000E+00

     total cpu time spent up to now is       30.7 secs

     total energy              =      -3.80938928 Ry
     Harris-Foulkes estimate   =   -2583.90374654 Ry
     estimated scf accuracy    <      52.25708169 Ry

     iteration # 82     ecut=    30.00 Ry     beta=0.70
     Davidson diagonalization with overlap
     ethr =  1.00E-02,  avg # of iterations =  6.0

     negative rho (up, down):  9.009E-01 0.000E+00

     total cpu time spent up to now is       30.8 secs

     total energy              =     104.56231197 Ry
     Harris-Foulkes estimate   =   -3101.54354408 Ry
     estimated scf accuracy    <      30.55725490 Ry

     iteration # 83     ecut=    30.00 Ry     beta=0.70
     Davidson diagonalization with overlap
     ethr =  1.00E-02,  avg # of iterations =  8.0

     negative rho (up, down):  1.469E+00 0.000E+00

     total cpu time spent up to now is       30.8 secs

     total energy              =      73.85875557 Ry
     Harris-Foulkes estimate   =   -4438.08753730 Ry
     estimated scf accuracy    <      41.81678873 Ry

     iteration # 84     ecut=    30.00 Ry     beta=0.70
     Davidson diagonalization with overlap
     ethr =  1.00E-02,  avg # of iterations =  9.0

     negative rho (up, down):  1.287E+00 0.000E+00

     total cpu time spent up to now is       30.9 secs

     total energy              =     153.16361952 Ry
     Harris-Foulkes estimate   =   -2844.09917543 Ry
     estimated scf accuracy    <      28.32563080 Ry

     iteration # 85     ecut=    30.00 Ry     beta=0.70
     Davidson diagonalization with overlap
     ethr =  1.00E-02,  avg # of iterations =  8.0

     negative rho (up, down):  1.138E+00 0.000E+00

     total cpu time spent up to now is       31.0 secs

     total energy              =      43.82607437 Ry
     Harris-Foulkes estimate   =    -565.67344011 Ry
     estimated scf accuracy    <      30.91884572 Ry

     iteration # 86     ecut=    30.00 Ry     beta=0.70
     Davidson diagonalization with overlap
     ethr =  1.00E-02,  avg # of iterations = 13.0

     negative rho (up, down):  1.088E+00 0.000E+00

     total cpu time spent up to now is       31.0 secs

     total energy              =     -70.12297130 Ry
     Harris-Foulkes estimate   =   -4582.85458564 Ry
     estimated scf accuracy    <      27.96938607 Ry

     iteration # 87     ecut=    30.00 Ry     beta=0.70
     Davidson diagonalization with overlap
     ethr =  1.00E-02,  avg # of iterations =  7.0

     negative rho (up, down):  9.299E-01 0.000E+00

     total cpu time spent up to now is       31.1 secs

     total energy              =    -291.80339027 Ry
     Harris-Foulkes estimate   =   -2890.42407444 Ry
     estimated scf accuracy    <      25.26435326 Ry

     iteration # 88     ecut=    30.00 Ry     beta=0.70
     Davidson diagonalization with overlap
     ethr =  1.00E-02,  avg # of iterations =  6.0

     negative rho (up, down):  9.253E-01 0.000E+00

     total cpu time spent up to now is       31.1 secs

     total energy              =    -802.00639243 Ry
     Harris-Foulkes estimate   =   -7429.69107780 Ry
     estimated scf accuracy    <      34.81927475 Ry

     iteration # 89     ecut=    30.00 Ry     beta=0.70
     Davidson diagonalization with overlap
     ethr =  1.00E-02,  avg # of iterations =  7.0

     negative rho (up, down):  1.047E-01 0.000E+00

     total cpu time spent up to now is       31.2 secs

     total energy              =     112.46733050 Ry
     Harris-Foulkes estimate   =  -20012.96565273 Ry
     estimated scf accuracy    <      21.48251216 Ry

     iteration # 90     ecut=    30.00 Ry     beta=0.70
     Davidson diagonalization with overlap
     ethr =  1.00E-02,  avg # of iterations = 12.0

     negative rho (up, down):  3.701E-01 0.000E+00

     total cpu time spent up to now is       31.2 secs

     total energy              =      55.31098764 Ry
     Harris-Foulkes estimate   =    -879.30985709 Ry
     estimated scf accuracy    <      23.51211631 Ry

     iteration # 91     ecut=    30.00 Ry     beta=0.70
     Davidson diagonalization with overlap
     ethr =  1.00E-02,  avg # of iterations =  6.0

     negative rho (up, down):  5.441E-01 0.000E+00

     total cpu time spent up to now is       31.3 secs

     total energy              =     102.10169862 Ry
     Harris-Foulkes estimate   =   -2904.58659713 Ry
     estimated scf accuracy    <      27.97862980 Ry

     iteration # 92     ecut=    30.00 Ry     beta=0.70
     Davidson diagonalization with overlap
     ethr =  1.00E-02,  avg # of iterations =  8.0

     negative rho (up, down):  6.707E-01 0.000E+00

     total cpu time spent up to now is       31.3 secs

     total energy              =     138.66693869 Ry
     Harris-Foulkes estimate   =  -24447.47253031 Ry
     estimated scf accuracy    <      24.94332745 Ry

     iteration # 93     ecut=    30.00 Ry     beta=0.70
     Davidson diagonalization with overlap
     ethr =  1.00E-02,  avg # of iterations = 10.0

     negative rho (up, down):  3.438E-01 0.000E+00

     total cpu time spent up to now is       31.4 secs

     total energy              =      21.45193778 Ry
     Harris-Foulkes estimate   =    -193.71309859 Ry
     estimated scf accuracy    <      29.49365836 Ry

     iteration # 94     ecut=    30.00 Ry     beta=0.70
     Davidson diagonalization with overlap
     ethr =  1.00E-02,  avg # of iterations =  6.0

     negative rho (up, down):  4.765E-01 0.000E+00

     total cpu time spent up to now is       31.5 secs

     total energy              =     108.50133292 Ry
     Harris-Foulkes estimate   =   -1325.20274411 Ry
     estimated scf accuracy    <      21.93497620 Ry

     iteration # 95     ecut=    30.00 Ry     beta=0.70
     Davidson diagonalization with overlap
     ethr =  1.00E-02,  avg # of iterations =  9.0

     negative rho (up, down):  4.248E-01 0.000E+00

     total cpu time spent up to now is       31.5 secs

     total energy              =    -533.80971886 Ry
     Harris-Foulkes estimate   =   -1189.56197904 Ry
     estimated scf accuracy    <      29.66327518 Ry

     iteration # 96     ecut=    30.00 Ry     beta=0.70
     Davidson diagonalization with overlap
     ethr =  1.00E-02,  avg # of iterations =  9.0

     negative rho (up, down):  4.979E-01 0.000E+00

     total cpu time spent up to now is       31.6 secs

     total energy              =      83.62750767 Ry
     Harris-Foulkes estimate   =  -19399.97532850 Ry
     estimated scf accuracy    <      37.58378913 Ry

     iteration # 97     ecut=    30.00 Ry     beta=0.70
     Davidson diagonalization with overlap
     ethr =  1.00E-02,  avg # of iterations =  8.0

     negative rho (up, down):  7.951E-03 0.000E+00

     total cpu time spent up to now is       31.6 secs

     total energy              =      73.40775753 Ry
     Harris-Foulkes estimate   =   -1855.72564579 Ry
     estimated scf accuracy    <      24.70999753 Ry

     iteration # 98     ecut=    30.00 Ry     beta=0.70
     Davidson diagonalization with overlap
     ethr =  1.00E-02,  avg # of iterations =  6.0

     negative rho (up, down):  3.745E-02 0.000E+00

     total cpu time spent up to now is       31.7 secs

     total energy              =    -164.41658628 Ry
     Harris-Foulkes estimate   =   -1189.28109655 Ry
     estimated scf accuracy    <      37.01337276 Ry

     iteration # 99     ecut=    30.00 Ry     beta=0.70
     Davidson diagonalization with overlap
     ethr =  1.00E-02,  avg # of iterations =  4.0

     negative rho (up, down):  1.033E-01 0.000E+00

     total cpu time spent up to now is       31.7 secs

     total energy              =      -6.48913596 Ry
     Harris-Foulkes estimate   =    -934.28340243 Ry
     estimated scf accuracy    <      18.79102439 Ry

     iteration #100     ecut=    30.00 Ry     beta=0.70
     Davidson diagonalization with overlap
     ethr =  1.00E-02,  avg # of iterations =  8.0

     negative rho (up, down):  2.094E-01 0.000E+00

     total cpu time spent up to now is       31.8 secs

     total energy              =     -63.80128088 Ry
     Harris-Foulkes estimate   =   -3350.59903855 Ry
     estimated scf accuracy    <      27.59933279 Ry

     End of self-consistent calculation

     convergence NOT achieved after 100 iterations: stopping

     Writing output data file pwscf.save
 
     init_run     :      0.10s CPU      0.11s WALL (       1 calls)
     electrons    :     20.90s CPU     26.78s WALL (      18 calls)
     update_pot   :      2.12s CPU      3.23s WALL (      17 calls)
     forces       :      0.51s CPU      0.59s WALL (      17 calls)

     Called by init_run:
     wfcinit      :      0.02s CPU      0.02s WALL (       1 calls)
     potinit      :      0.02s CPU      0.03s WALL (       1 calls)

     Called by electrons:
     c_bands      :      9.19s CPU      9.85s WALL (     632 calls)
     sum_band     :      1.90s CPU      2.01s WALL (     632 calls)
     v_of_rho     :      4.85s CPU      5.19s WALL (     650 calls)
     mix_rho      :      4.16s CPU      7.40s WALL (     632 calls)

     Called by c_bands:
     init_us_2    :      0.06s CPU      0.07s WALL (    1265 calls)
     cegterg      :      9.05s CPU      9.51s WALL (     632 calls)

     Called by sum_band:

     Called by *egterg:
     h_psi        :      7.65s CPU      7.99s WALL (    2658 calls)
     g_psi        :      0.07s CPU      0.07s WALL (    2025 calls)
     cdiaghg      :      0.52s CPU      0.56s WALL (    2640 calls)

     Called by h_psi:
     h_psi:pot    :      7.60s CPU      7.94s WALL (    2658 calls)
     h_psi:calbec :      0.20s CPU      0.31s WALL (    2658 calls)
     vloc_psi     :      7.37s CPU      7.60s WALL (    2658 calls)
     add_vuspsi   :      0.02s CPU      0.02s WALL (    2658 calls)

     General routines
     calbec       :      0.33s CPU      0.50s WALL (    2742 calls)
     fft          :      3.02s CPU      3.26s WALL (    7184 calls)
     fftw         :      7.86s CPU      8.16s WALL (   33976 calls)
     davcio       :      0.69s CPU      2.72s WALL (   11051 calls)
 
     Parallel routines
     fft_scatter  :      4.31s CPU      4.66s WALL (   41160 calls)
 
     PWSCF        :    24.14s CPU        31.86s WALL

 
   This run was terminated on:   2:36: 5  11Feb2018            

=------------------------------------------------------------------------------=
   JOB DONE.
=------------------------------------------------------------------------------=
