
     Program PWSCF v.6.0 (svn rev. 13079) starts on 11Feb2018 at  2:39: 3 

     This program is part of the open-source Quantum ESPRESSO suite
     for quantum simulation of materials; please cite
         "P. Giannozzi et al., J. Phys.:Condens. Matter 21 395502 (2009);
          URL http://www.quantum-espresso.org", 
     in publications or presentations arising from this work. More details at
     http://www.quantum-espresso.org/quote

     Parallel version (MPI), running on    28 processors
     R & G space division:  proc/nbgrp/npool/nimage =      28
     Reading input from inputs/water-1-md/531.in

     Current dimensions of program PWSCF are:
     Max number of different atomic species (ntypx) = 10
     Max number of k-points (npk) =  40000
     Max angular momentum in pseudopotentials (lmaxx) =  3

     Subspace diagonalization in iterative solution of the eigenvalue problem:
     a serial algorithm will be used

 
     Parallelization info
     --------------------
     sticks:   dense  smooth     PW     G-vecs:    dense   smooth      PW
     Min         136     136     33                 6338     6338     787
     Max         137     137     34                 6341     6341     792
     Sum        3809    3809    949               177509   177509   22119
 


     bravais-lattice index     =            1
     lattice parameter (alat)  =      20.0000  a.u.
     unit-cell volume          =    8000.0000 (a.u.)^3
     number of atoms/cell      =            3
     number of atomic types    =            2
     number of electrons       =         8.00
     number of Kohn-Sham states=            8
     kinetic-energy cutoff     =      30.0000  Ry
     charge density cutoff     =     120.0000  Ry
     convergence threshold     =      1.0E-08
     mixing beta               =       0.7000
     number of iterations used =            8  plain     mixing
     Exchange-correlation      = BLYP ( 1  3  1  3 0 0)
     nstep                     =         5000


     celldm(1)=  20.000000  celldm(2)=   0.000000  celldm(3)=   0.000000
     celldm(4)=   0.000000  celldm(5)=   0.000000  celldm(6)=   0.000000

     crystal axes: (cart. coord. in units of alat)
               a(1) = (   1.000000   0.000000   0.000000 )  
               a(2) = (   0.000000   1.000000   0.000000 )  
               a(3) = (   0.000000   0.000000   1.000000 )  

     reciprocal axes: (cart. coord. in units 2 pi/alat)
               b(1) = (  1.000000  0.000000  0.000000 )  
               b(2) = (  0.000000  1.000000  0.000000 )  
               b(3) = (  0.000000  0.000000  1.000000 )  


     PseudoPot. # 1 for  H read from file:
     ./H.blyp-hgh.UPF
     MD5 check sum: c576e69559cde411e611be972c763230
     Pseudo is Norm-conserving, Zval =  1.0
     Generated in analytical, separable form
     Using radial grid of  929 points,  0 beta functions with: 

     PseudoPot. # 2 for  O read from file:
     ./O.blyp-hgh.UPF
     MD5 check sum: d0b7156309aa9befef28faac7bc56342
     Pseudo is Norm-conserving, Zval =  6.0
     Generated in analytical, separable form
     Using radial grid of 1095 points,  1 beta functions with: 
                l(1) =   0

     atomic species   valence    mass     pseudopotential
        H              1.00     1.01000      H( 1.00)
        O              6.00    16.00000      O( 1.00)

     No symmetry found



   Cartesian axes

     site n.     atom                  positions (alat units)
         1           H   tau(   1) = (   0.1276444   0.0951402   0.6517567  )
         2           H   tau(   2) = (   0.8455222   0.1226403   0.9856874  )
         3           O   tau(   3) = (   0.5414822   0.6467938   0.2611127  )

     number of k points=     1  Marzari-Vanderbilt smearing, width (Ry)=  0.0250
                       cart. coord. in units 2pi/alat
        k(    1) = (   0.0000000   0.0000000   0.0000000), wk =   2.0000000

     Dense  grid:   177509 G-vectors     FFT dimensions: (  72,  72,  72)

     Estimated max dynamical RAM per process >       6.09Mb

     Estimated total allocated dynamical RAM >     170.64Mb

     Initial potential from superposition of free atoms
     Check: negative starting charge=   -0.354356

     starting charge    7.99998, renormalised to    8.00000

     negative rho (up, down):  3.544E-01 0.000E+00
     Starting wfc are    6 randomized atomic wfcs +    2 random wfc

     total cpu time spent up to now is        0.2 secs

     per-process dynamical memory:    18.8 Mb

     Self-consistent Calculation

     iteration #  1     ecut=    30.00 Ry     beta=0.70
     Davidson diagonalization with overlap
     ethr =  1.00E-02,  avg # of iterations =  7.0

     negative rho (up, down):  8.687E-02 0.000E+00

     total cpu time spent up to now is        0.3 secs

     total energy              =     -27.97966912 Ry
     Harris-Foulkes estimate   =     -32.08419811 Ry
     estimated scf accuracy    <       4.69911873 Ry

     iteration #  2     ecut=    30.00 Ry     beta=0.70
     Davidson diagonalization with overlap
     ethr =  1.00E-02,  avg # of iterations =  4.0

     negative rho (up, down):  6.360E-02 0.000E+00

     total cpu time spent up to now is        0.3 secs

     total energy              =     -32.71549617 Ry
     Harris-Foulkes estimate   =     -38.15548119 Ry
     estimated scf accuracy    <      13.22734438 Ry

     iteration #  3     ecut=    30.00 Ry     beta=0.70
     Davidson diagonalization with overlap
     ethr =  1.00E-02,  avg # of iterations =  2.0

     negative rho (up, down):  6.556E-02 0.000E+00

     total cpu time spent up to now is        0.4 secs

     total energy              =     -33.26172684 Ry
     Harris-Foulkes estimate   =     -33.05389859 Ry
     estimated scf accuracy    <       5.17795836 Ry

     iteration #  4     ecut=    30.00 Ry     beta=0.70
     Davidson diagonalization with overlap
     ethr =  1.00E-02,  avg # of iterations =  1.0

     negative rho (up, down):  2.626E-02 0.000E+00

     total cpu time spent up to now is        0.4 secs

     total energy              =     -30.15969064 Ry
     Harris-Foulkes estimate   =     -33.26225323 Ry
     estimated scf accuracy    <       5.48036052 Ry

     iteration #  5     ecut=    30.00 Ry     beta=0.70
     Davidson diagonalization with overlap
     ethr =  1.00E-02,  avg # of iterations =  6.0

     negative rho (up, down):  2.471E-02 0.000E+00

     total cpu time spent up to now is        0.4 secs

     total energy              =     -33.31689825 Ry
     Harris-Foulkes estimate   =     -33.34914071 Ry
     estimated scf accuracy    <      13.93560038 Ry

     iteration #  6     ecut=    30.00 Ry     beta=0.70
     Davidson diagonalization with overlap
     ethr =  1.00E-02,  avg # of iterations =  1.0

     negative rho (up, down):  3.414E-02 0.000E+00

     total cpu time spent up to now is        0.5 secs

     total energy              =     -33.17486921 Ry
     Harris-Foulkes estimate   =     -33.32303486 Ry
     estimated scf accuracy    <      13.90565194 Ry

     iteration #  7     ecut=    30.00 Ry     beta=0.70
     Davidson diagonalization with overlap
     ethr =  1.00E-02,  avg # of iterations =  1.0

     negative rho (up, down):  3.483E-02 0.000E+00

     total cpu time spent up to now is        0.5 secs

     total energy              =     -32.48010611 Ry
     Harris-Foulkes estimate   =     -33.18296647 Ry
     estimated scf accuracy    <      11.97609188 Ry

     iteration #  8     ecut=    30.00 Ry     beta=0.70
     Davidson diagonalization with overlap
     ethr =  1.00E-02,  avg # of iterations =  2.0

     negative rho (up, down):  1.891E-04 0.000E+00

     total cpu time spent up to now is        0.5 secs

     total energy              =     -32.44017492 Ry
     Harris-Foulkes estimate   =     -32.66410904 Ry
     estimated scf accuracy    <       5.59442010 Ry

     iteration #  9     ecut=    30.00 Ry     beta=0.70
     Davidson diagonalization with overlap
     ethr =  1.00E-02,  avg # of iterations =  1.0

     negative rho (up, down):  2.764E-02 0.000E+00

     total cpu time spent up to now is        0.6 secs

     total energy              =     -31.96161336 Ry
     Harris-Foulkes estimate   =     -32.44361394 Ry
     estimated scf accuracy    <       5.22329223 Ry

     iteration # 10     ecut=    30.00 Ry     beta=0.70
     Davidson diagonalization with overlap
     ethr =  1.00E-02,  avg # of iterations =  1.0

     negative rho (up, down):  4.828E-02 0.000E+00

     total cpu time spent up to now is        0.6 secs

     total energy              =     -31.68795020 Ry
     Harris-Foulkes estimate   =     -31.96911392 Ry
     estimated scf accuracy    <       4.44300268 Ry

     iteration # 11     ecut=    30.00 Ry     beta=0.70
     Davidson diagonalization with overlap
     ethr =  1.00E-02,  avg # of iterations =  1.0

     negative rho (up, down):  3.480E-02 0.000E+00

     total cpu time spent up to now is        0.6 secs

     total energy              =     -32.84183971 Ry
     Harris-Foulkes estimate   =     -31.69061272 Ry
     estimated scf accuracy    <       4.02527425 Ry

     iteration # 12     ecut=    30.00 Ry     beta=0.70
     Davidson diagonalization with overlap
     ethr =  1.00E-02,  avg # of iterations =  1.0

     negative rho (up, down):  1.240E-01 0.000E+00

     total cpu time spent up to now is        0.7 secs

     total energy              =     -30.44379710 Ry
     Harris-Foulkes estimate   =     -32.86986953 Ry
     estimated scf accuracy    <       5.87231111 Ry

     iteration # 13     ecut=    30.00 Ry     beta=0.70
     Davidson diagonalization with overlap
     ethr =  1.00E-02,  avg # of iterations =  2.0

     negative rho (up, down):  1.341E-01 0.000E+00

     total cpu time spent up to now is        0.7 secs

     total energy              =     -31.94650468 Ry
     Harris-Foulkes estimate   =     -32.41112711 Ry
     estimated scf accuracy    <       4.17603970 Ry

     iteration # 14     ecut=    30.00 Ry     beta=0.70
     Davidson diagonalization with overlap
     ethr =  1.00E-02,  avg # of iterations =  1.0

     negative rho (up, down):  2.071E-01 0.000E+00

     total cpu time spent up to now is        0.8 secs

     total energy              =     -31.88175355 Ry
     Harris-Foulkes estimate   =     -31.93822102 Ry
     estimated scf accuracy    <       3.50271726 Ry

     iteration # 15     ecut=    30.00 Ry     beta=0.70
     Davidson diagonalization with overlap
     ethr =  1.00E-02,  avg # of iterations =  1.0

     negative rho (up, down):  5.112E-03 0.000E+00

     total cpu time spent up to now is        0.8 secs

     total energy              =     -30.39835342 Ry
     Harris-Foulkes estimate   =     -31.88236972 Ry
     estimated scf accuracy    <       3.46379121 Ry

     iteration # 16     ecut=    30.00 Ry     beta=0.70
     Davidson diagonalization with overlap
     ethr =  1.00E-02,  avg # of iterations =  2.0

     negative rho (up, down):  8.912E-03 0.000E+00

     total cpu time spent up to now is        0.8 secs

     total energy              =     -32.57204126 Ry
     Harris-Foulkes estimate   =     -32.97260510 Ry
     estimated scf accuracy    <       6.02460385 Ry

     iteration # 17     ecut=    30.00 Ry     beta=0.70
     Davidson diagonalization with overlap
     ethr =  1.00E-02,  avg # of iterations =  1.0

     negative rho (up, down):  1.590E-02 0.000E+00

     total cpu time spent up to now is        0.9 secs

     total energy              =     -31.71090793 Ry
     Harris-Foulkes estimate   =     -32.57796374 Ry
     estimated scf accuracy    <       5.40556447 Ry

     iteration # 18     ecut=    30.00 Ry     beta=0.70
     Davidson diagonalization with overlap
     ethr =  1.00E-02,  avg # of iterations =  1.0

     negative rho (up, down):  2.189E-03 0.000E+00

     total cpu time spent up to now is        0.9 secs

     total energy              =     -31.65443474 Ry
     Harris-Foulkes estimate   =     -31.72802748 Ry
     estimated scf accuracy    <       4.05484443 Ry

     iteration # 19     ecut=    30.00 Ry     beta=0.70
     Davidson diagonalization with overlap
     ethr =  1.00E-02,  avg # of iterations =  1.0

     negative rho (up, down):  1.423E-03 0.000E+00

     total cpu time spent up to now is        0.9 secs

     total energy              =     -31.46380813 Ry
     Harris-Foulkes estimate   =     -31.65509786 Ry
     estimated scf accuracy    <       3.96513294 Ry

     iteration # 20     ecut=    30.00 Ry     beta=0.70
     Davidson diagonalization with overlap
     ethr =  1.00E-02,  avg # of iterations =  1.0

     negative rho (up, down):  6.054E-03 0.000E+00

     total cpu time spent up to now is        0.9 secs

     total energy              =     -31.51667318 Ry
     Harris-Foulkes estimate   =     -31.49087681 Ry
     estimated scf accuracy    <       0.01003138 Ry

     iteration # 21     ecut=    30.00 Ry     beta=0.70
     Davidson diagonalization with overlap
     ethr =  1.25E-04,  avg # of iterations =  4.0

     negative rho (up, down):  8.040E-05 0.000E+00

     total cpu time spent up to now is        1.0 secs

     total energy              =     -31.41074569 Ry
     Harris-Foulkes estimate   =     -32.04143021 Ry
     estimated scf accuracy    <       3.61755250 Ry

     iteration # 22     ecut=    30.00 Ry     beta=0.70
     Davidson diagonalization with overlap
     ethr =  1.25E-04,  avg # of iterations =  5.0

     negative rho (up, down):  3.424E-05 0.000E+00

     total cpu time spent up to now is        1.0 secs

     total energy              =     -31.18756112 Ry
     Harris-Foulkes estimate   =     -31.51491069 Ry
     estimated scf accuracy    <       2.57181133 Ry

     iteration # 23     ecut=    30.00 Ry     beta=0.70
     Davidson diagonalization with overlap
     ethr =  1.25E-04,  avg # of iterations =  3.0

     negative rho (up, down):  3.214E-06 0.000E+00

     total cpu time spent up to now is        1.1 secs

     total energy              =     -31.67829365 Ry
     Harris-Foulkes estimate   =     -31.77421377 Ry
     estimated scf accuracy    <       3.21178603 Ry

     iteration # 24     ecut=    30.00 Ry     beta=0.70
     Davidson diagonalization with overlap
     ethr =  1.25E-04,  avg # of iterations =  1.0

     negative rho (up, down):  4.035E-07 0.000E+00

     total cpu time spent up to now is        1.1 secs

     total energy              =     -31.55872623 Ry
     Harris-Foulkes estimate   =     -31.67852753 Ry
     estimated scf accuracy    <       3.06276149 Ry

     iteration # 25     ecut=    30.00 Ry     beta=0.70
     Davidson diagonalization with overlap
     ethr =  1.25E-04,  avg # of iterations =  1.0

     negative rho (up, down):  4.599E-05 0.000E+00

     total cpu time spent up to now is        1.1 secs

     total energy              =     -31.45195468 Ry
     Harris-Foulkes estimate   =     -31.55922374 Ry
     estimated scf accuracy    <       2.82753511 Ry

     iteration # 26     ecut=    30.00 Ry     beta=0.70
     Davidson diagonalization with overlap
     ethr =  1.25E-04,  avg # of iterations =  1.0

     negative rho (up, down):  2.856E-05 0.000E+00

     total cpu time spent up to now is        1.2 secs

     total energy              =     -31.49461988 Ry
     Harris-Foulkes estimate   =     -31.49072352 Ry
     estimated scf accuracy    <       0.06539665 Ry

     iteration # 27     ecut=    30.00 Ry     beta=0.70
     Davidson diagonalization with overlap
     ethr =  1.25E-04,  avg # of iterations =  1.0

     negative rho (up, down):  1.015E-05 0.000E+00

     total cpu time spent up to now is        1.2 secs

     total energy              =     -31.50108873 Ry
     Harris-Foulkes estimate   =     -31.50280126 Ry
     estimated scf accuracy    <       1.41344853 Ry

     iteration # 28     ecut=    30.00 Ry     beta=0.70
     Davidson diagonalization with overlap
     ethr =  1.25E-04,  avg # of iterations =  1.0

     negative rho (up, down):  1.801E-06 0.000E+00

     total cpu time spent up to now is        1.2 secs

     total energy              =     -31.48518649 Ry
     Harris-Foulkes estimate   =     -31.50114478 Ry
     estimated scf accuracy    <       1.23993045 Ry

     iteration # 29     ecut=    30.00 Ry     beta=0.70
     Davidson diagonalization with overlap
     ethr =  1.25E-04,  avg # of iterations =  1.0

     negative rho (up, down):  4.920E-07 0.000E+00

     total cpu time spent up to now is        1.3 secs

     total energy              =     -31.49283837 Ry
     Harris-Foulkes estimate   =     -31.49093913 Ry
     estimated scf accuracy    <       0.09818258 Ry

     iteration # 30     ecut=    30.00 Ry     beta=0.70
     Davidson diagonalization with overlap
     ethr =  1.25E-04,  avg # of iterations =  1.0

     total cpu time spent up to now is        1.3 secs

     total energy              =     -31.49516443 Ry
     Harris-Foulkes estimate   =     -31.49405755 Ry
     estimated scf accuracy    <       0.45755988 Ry

     iteration # 31     ecut=    30.00 Ry     beta=0.70
     Davidson diagonalization with overlap
     ethr =  1.25E-04,  avg # of iterations =  1.0

     total cpu time spent up to now is        1.3 secs

     total energy              =     -31.48507149 Ry
     Harris-Foulkes estimate   =     -31.49525666 Ry
     estimated scf accuracy    <       0.59738862 Ry

     iteration # 32     ecut=    30.00 Ry     beta=0.70
     Davidson diagonalization with overlap
     ethr =  1.25E-04,  avg # of iterations =  1.0

     total cpu time spent up to now is        1.4 secs

     total energy              =     -31.48991790 Ry
     Harris-Foulkes estimate   =     -31.49006378 Ry
     estimated scf accuracy    <       0.00399615 Ry

     iteration # 33     ecut=    30.00 Ry     beta=0.70
     Davidson diagonalization with overlap
     ethr =  5.00E-05,  avg # of iterations =  1.0

     total cpu time spent up to now is        1.4 secs

     total energy              =     -31.49912842 Ry
     Harris-Foulkes estimate   =     -31.49747762 Ry
     estimated scf accuracy    <       0.71096945 Ry

     iteration # 34     ecut=    30.00 Ry     beta=0.70
     Davidson diagonalization with overlap
     ethr =  5.00E-05,  avg # of iterations =  1.0

     total cpu time spent up to now is        1.4 secs

     total energy              =     -31.48987974 Ry
     Harris-Foulkes estimate   =     -31.49920752 Ry
     estimated scf accuracy    <       0.85310583 Ry

     iteration # 35     ecut=    30.00 Ry     beta=0.70
     Davidson diagonalization with overlap
     ethr =  5.00E-05,  avg # of iterations =  1.0

     negative rho (up, down):  4.391E-08 0.000E+00

     total cpu time spent up to now is        1.5 secs

     total energy              =     -31.49178958 Ry
     Harris-Foulkes estimate   =     -31.49209718 Ry
     estimated scf accuracy    <       0.21555082 Ry

     iteration # 36     ecut=    30.00 Ry     beta=0.70
     Davidson diagonalization with overlap
     ethr =  5.00E-05,  avg # of iterations =  1.0

     negative rho (up, down):  3.530E-08 0.000E+00

     total cpu time spent up to now is        1.5 secs

     total energy              =     -31.49195475 Ry
     Harris-Foulkes estimate   =     -31.49180058 Ry
     estimated scf accuracy    <       0.18633833 Ry

     iteration # 37     ecut=    30.00 Ry     beta=0.70
     Davidson diagonalization with overlap
     ethr =  5.00E-05,  avg # of iterations =  1.0

     negative rho (up, down):  9.665E-08 0.000E+00

     total cpu time spent up to now is        1.5 secs

     total energy              =     -31.49171175 Ry
     Harris-Foulkes estimate   =     -31.49195787 Ry
     estimated scf accuracy    <       0.20154717 Ry

     iteration # 38     ecut=    30.00 Ry     beta=0.70
     Davidson diagonalization with overlap
     ethr =  5.00E-05,  avg # of iterations =  1.0

     negative rho (up, down):  4.191E-08 0.000E+00

     total cpu time spent up to now is        1.6 secs

     total energy              =     -31.49149291 Ry
     Harris-Foulkes estimate   =     -31.49171924 Ry
     estimated scf accuracy    <       0.17844929 Ry

     iteration # 39     ecut=    30.00 Ry     beta=0.70
     Davidson diagonalization with overlap
     ethr =  5.00E-05,  avg # of iterations =  1.0

     total cpu time spent up to now is        1.6 secs

     total energy              =     -31.49111564 Ry
     Harris-Foulkes estimate   =     -31.49150000 Ry
     estimated scf accuracy    <       0.15669052 Ry

     iteration # 40     ecut=    30.00 Ry     beta=0.70
     Davidson diagonalization with overlap
     ethr =  5.00E-05,  avg # of iterations =  1.0

     total cpu time spent up to now is        1.6 secs

     total energy              =     -31.48931947 Ry
     Harris-Foulkes estimate   =     -31.49113909 Ry
     estimated scf accuracy    <       0.12045639 Ry

     iteration # 41     ecut=    30.00 Ry     beta=0.70
     Davidson diagonalization with overlap
     ethr =  5.00E-05,  avg # of iterations =  1.0

     total cpu time spent up to now is        1.6 secs

     total energy              =     -31.48992916 Ry
     Harris-Foulkes estimate   =     -31.49004174 Ry
     estimated scf accuracy    <       0.00493062 Ry

     iteration # 42     ecut=    30.00 Ry     beta=0.70
     Davidson diagonalization with overlap
     ethr =  5.00E-05,  avg # of iterations =  1.0

     total cpu time spent up to now is        1.7 secs

     total energy              =     -31.48999399 Ry
     Harris-Foulkes estimate   =     -31.49000191 Ry
     estimated scf accuracy    <       0.00039604 Ry

     iteration # 43     ecut=    30.00 Ry     beta=0.70
     Davidson diagonalization with overlap
     ethr =  4.95E-06,  avg # of iterations =  1.0

     total cpu time spent up to now is        1.7 secs

     total energy              =     -31.48999733 Ry
     Harris-Foulkes estimate   =     -31.48999764 Ry
     estimated scf accuracy    <       0.00000019 Ry

     iteration # 44     ecut=    30.00 Ry     beta=0.70
     Davidson diagonalization with overlap
     ethr =  2.38E-09,  avg # of iterations =  1.0

     total cpu time spent up to now is        1.8 secs

     total energy              =     -31.48999717 Ry
     Harris-Foulkes estimate   =     -31.48999736 Ry
     estimated scf accuracy    <       0.00000112 Ry

     iteration # 45     ecut=    30.00 Ry     beta=0.70
     Davidson diagonalization with overlap
     ethr =  2.38E-09,  avg # of iterations =  1.0

     total cpu time spent up to now is        1.8 secs

     total energy              =     -31.48999715 Ry
     Harris-Foulkes estimate   =     -31.48999718 Ry
     estimated scf accuracy    <       0.00000001 Ry

     iteration # 46     ecut=    30.00 Ry     beta=0.70
     Davidson diagonalization with overlap
     ethr =  1.26E-10,  avg # of iterations =  1.0

     total cpu time spent up to now is        1.8 secs

     End of self-consistent calculation

          k = 0.0000 0.0000 0.0000 ( 22119 PWs)   bands (ev):

   -23.6491  -7.0544  -7.0535  -7.0531  -6.9822  -6.9171  -0.2435   0.6363

     the Fermi energy is    -6.9197 ev

!    total energy              =     -31.48999701 Ry
     Harris-Foulkes estimate   =     -31.48999715 Ry
     estimated scf accuracy    <          2.1E-09 Ry

     convergence has been achieved in  46 iterations

     Forces acting on atoms (Ry/au):

     atom    1 type  1   force =    -0.00013658    0.00026206    0.00056789
     atom    2 type  1   force =     0.00017069    0.00021225    0.00013779
     atom    3 type  2   force =    -0.00003411   -0.00047431   -0.00070567

     Total force =     0.001108     Total SCF correction =     0.000044

     Molecular Dynamics Calculation

     Starting temperature  =  1000.00 K

     temperature is controlled by Andersen thermostat
     Collision frequency = 1.0000/timestep
     mass H                =     1.01
     mass O                =    16.00
     Time step             =   100.00 a.u.,  4.8378 femto-seconds

     Entering Dynamics:    iteration =     1
                           time      =   0.0048 pico-seconds


     Andersen thermostat:    3 collisions

ATOMIC_POSITIONS (bohr)
H        2.155444998   1.298712060  12.912871502
H       17.434325701   2.753862688  19.729509279
O       10.821662557  12.955005100   5.228976889


     kinetic energy (Ekin) =     0.04193385 Ry
     temperature           =  2206.94099855 K 
     Ekin + Etot (const)   =   -31.44806316 Ry

     Linear momentum :   -0.0000000000    0.0000000000    0.0000000000

     Writing output data file pwscf.save
     Check: negative starting charge=   -0.354356
     NEW-OLD atomic charge density approx. for the potential
     Check: negative starting charge=   -0.354567

     negative rho (up, down):  4.181E-02 0.000E+00

     total cpu time spent up to now is        2.1 secs

     per-process dynamical memory:    20.4 Mb

     Self-consistent Calculation

     iteration #  1     ecut=    30.00 Ry     beta=0.70
     Davidson diagonalization with overlap
     ethr =  1.00E-06,  avg # of iterations = 14.0

     negative rho (up, down):  9.848E-03 0.000E+00

     total cpu time spent up to now is        2.2 secs

     total energy              =     -30.09244821 Ry
     Harris-Foulkes estimate   =     -31.96796134 Ry
     estimated scf accuracy    <       1.26165770 Ry

     iteration #  2     ecut=    30.00 Ry     beta=0.70
     Davidson diagonalization with overlap
     ethr =  1.00E-02,  avg # of iterations =  3.0

     negative rho (up, down):  7.652E-03 0.000E+00

     total cpu time spent up to now is        2.2 secs

     total energy              =     -31.49609384 Ry
     Harris-Foulkes estimate   =     -33.50870455 Ry
     estimated scf accuracy    <       5.97795797 Ry

     iteration #  3     ecut=    30.00 Ry     beta=0.70
     Davidson diagonalization with overlap
     ethr =  1.00E-02,  avg # of iterations =  2.0

     negative rho (up, down):  6.196E-03 0.000E+00

     total cpu time spent up to now is        2.2 secs

     total energy              =     -31.80954886 Ry
     Harris-Foulkes estimate   =     -32.37429909 Ry
     estimated scf accuracy    <       2.27633937 Ry

     iteration #  4     ecut=    30.00 Ry     beta=0.70
     Davidson diagonalization with overlap
     ethr =  1.00E-02,  avg # of iterations =  2.0

     negative rho (up, down):  5.892E-03 0.000E+00

     total cpu time spent up to now is        2.3 secs

     total energy              =     -31.73143716 Ry
     Harris-Foulkes estimate   =     -31.82315978 Ry
     estimated scf accuracy    <       1.64833577 Ry

     iteration #  5     ecut=    30.00 Ry     beta=0.70
     Davidson diagonalization with overlap
     ethr =  1.00E-02,  avg # of iterations =  1.0

     negative rho (up, down):  3.695E-03 0.000E+00

     total cpu time spent up to now is        2.3 secs

     total energy              =     -31.55000039 Ry
     Harris-Foulkes estimate   =     -31.78111779 Ry
     estimated scf accuracy    <       2.38151454 Ry

     iteration #  6     ecut=    30.00 Ry     beta=0.70
     Davidson diagonalization with overlap
     ethr =  1.00E-02,  avg # of iterations =  2.0

     negative rho (up, down):  2.844E-03 0.000E+00

     total cpu time spent up to now is        2.3 secs

     total energy              =     -31.50822900 Ry
     Harris-Foulkes estimate   =     -31.59849262 Ry
     estimated scf accuracy    <       0.83126040 Ry

     iteration #  7     ecut=    30.00 Ry     beta=0.70
     Davidson diagonalization with overlap
     ethr =  1.00E-02,  avg # of iterations =  1.0

     negative rho (up, down):  7.269E-04 0.000E+00

     total cpu time spent up to now is        2.4 secs

     total energy              =     -31.40370111 Ry
     Harris-Foulkes estimate   =     -31.61443937 Ry
     estimated scf accuracy    <       2.97890509 Ry

     iteration #  8     ecut=    30.00 Ry     beta=0.70
     Davidson diagonalization with overlap
     ethr =  1.00E-02,  avg # of iterations =  1.0

     negative rho (up, down):  6.399E-04 0.000E+00

     total cpu time spent up to now is        2.4 secs

     total energy              =     -31.81080634 Ry
     Harris-Foulkes estimate   =     -31.77850418 Ry
     estimated scf accuracy    <       1.37883953 Ry

     iteration #  9     ecut=    30.00 Ry     beta=0.70
     Davidson diagonalization with overlap
     ethr =  1.00E-02,  avg # of iterations =  1.0

     negative rho (up, down):  5.717E-04 0.000E+00

     total cpu time spent up to now is        2.4 secs

     total energy              =     -31.87295392 Ry
     Harris-Foulkes estimate   =     -31.81142426 Ry
     estimated scf accuracy    <       1.43084905 Ry

     iteration # 10     ecut=    30.00 Ry     beta=0.70
     Davidson diagonalization with overlap
     ethr =  1.00E-02,  avg # of iterations =  1.0

     negative rho (up, down):  1.859E-06 0.000E+00

     total cpu time spent up to now is        2.5 secs

     total energy              =     -32.38438553 Ry
     Harris-Foulkes estimate   =     -31.87332468 Ry
     estimated scf accuracy    <       1.53444694 Ry

     iteration # 11     ecut=    30.00 Ry     beta=0.70
     Davidson diagonalization with overlap
     ethr =  1.00E-02,  avg # of iterations =  1.0

     negative rho (up, down):  1.450E-04 0.000E+00

     total cpu time spent up to now is        2.5 secs

     total energy              =     -31.97948761 Ry
     Harris-Foulkes estimate   =     -32.39233964 Ry
     estimated scf accuracy    <       2.37217278 Ry

     iteration # 12     ecut=    30.00 Ry     beta=0.70
     Davidson diagonalization with overlap
     ethr =  1.00E-02,  avg # of iterations =  1.0

     negative rho (up, down):  4.912E-04 0.000E+00

     total cpu time spent up to now is        2.5 secs

     total energy              =     -32.72388921 Ry
     Harris-Foulkes estimate   =     -31.98975489 Ry
     estimated scf accuracy    <       1.77338621 Ry

     iteration # 13     ecut=    30.00 Ry     beta=0.70
     Davidson diagonalization with overlap
     ethr =  1.00E-02,  avg # of iterations =  2.0

     negative rho (up, down):  1.321E-03 0.000E+00

     total cpu time spent up to now is        2.6 secs

     total energy              =     -30.55917131 Ry
     Harris-Foulkes estimate   =     -33.66898854 Ry
     estimated scf accuracy    <       3.25421356 Ry

     iteration # 14     ecut=    30.00 Ry     beta=0.70
     Davidson diagonalization with overlap
     ethr =  1.00E-02,  avg # of iterations =  2.0

     negative rho (up, down):  1.713E-01 0.000E+00

     total cpu time spent up to now is        2.6 secs

     total energy              =     -31.08520423 Ry
     Harris-Foulkes estimate   =     -31.85925826 Ry
     estimated scf accuracy    <       1.53270798 Ry

     iteration # 15     ecut=    30.00 Ry     beta=0.70
     Davidson diagonalization with overlap
     ethr =  1.00E-02,  avg # of iterations =  4.0

     negative rho (up, down):  1.713E-04 0.000E+00

     total cpu time spent up to now is        2.6 secs

     total energy              =     -32.10537370 Ry
     Harris-Foulkes estimate   =     -35.55915166 Ry
     estimated scf accuracy    <       6.12979372 Ry

     iteration # 16     ecut=    30.00 Ry     beta=0.70
     Davidson diagonalization with overlap
     ethr =  1.00E-02,  avg # of iterations =  1.0

     negative rho (up, down):  5.035E-04 0.000E+00

     total cpu time spent up to now is        2.7 secs

     total energy              =     -32.06556173 Ry
     Harris-Foulkes estimate   =     -32.21948446 Ry
     estimated scf accuracy    <       2.01616576 Ry

     iteration # 17     ecut=    30.00 Ry     beta=0.70
     Davidson diagonalization with overlap
     ethr =  1.00E-02,  avg # of iterations =  1.0

     negative rho (up, down):  5.213E-05 0.000E+00

     total cpu time spent up to now is        2.7 secs

     total energy              =     -32.27212470 Ry
     Harris-Foulkes estimate   =     -32.06808296 Ry
     estimated scf accuracy    <       1.76402352 Ry

     iteration # 18     ecut=    30.00 Ry     beta=0.70
     Davidson diagonalization with overlap
     ethr =  1.00E-02,  avg # of iterations =  1.0

     negative rho (up, down):  1.711E-02 0.000E+00

     total cpu time spent up to now is        2.7 secs

     total energy              =     -32.78287999 Ry
     Harris-Foulkes estimate   =     -32.27390901 Ry
     estimated scf accuracy    <       2.07985202 Ry

     iteration # 19     ecut=    30.00 Ry     beta=0.70
     Davidson diagonalization with overlap
     ethr =  1.00E-02,  avg # of iterations =  1.0

     negative rho (up, down):  5.958E-06 0.000E+00

     total cpu time spent up to now is        2.8 secs

     total energy              =     -31.67484143 Ry
     Harris-Foulkes estimate   =     -32.78973521 Ry
     estimated scf accuracy    <       2.88237342 Ry

     iteration # 20     ecut=    30.00 Ry     beta=0.70
     Davidson diagonalization with overlap
     ethr =  1.00E-02,  avg # of iterations =  3.0

     negative rho (up, down):  1.226E-05 0.000E+00

     total cpu time spent up to now is        2.8 secs

     total energy              =     -31.30275763 Ry
     Harris-Foulkes estimate   =     -31.69658276 Ry
     estimated scf accuracy    <       1.34756141 Ry

     iteration # 21     ecut=    30.00 Ry     beta=0.70
     Davidson diagonalization with overlap
     ethr =  1.00E-02,  avg # of iterations =  2.0

     negative rho (up, down):  3.318E-07 0.000E+00

     total cpu time spent up to now is        2.9 secs

     total energy              =     -31.67190991 Ry
     Harris-Foulkes estimate   =     -31.75211951 Ry
     estimated scf accuracy    <       3.19655946 Ry

     iteration # 22     ecut=    30.00 Ry     beta=0.70
     Davidson diagonalization with overlap
     ethr =  1.00E-02,  avg # of iterations =  1.0

     negative rho (up, down):  1.170E-07 0.000E+00

     total cpu time spent up to now is        2.9 secs

     total energy              =     -31.37738010 Ry
     Harris-Foulkes estimate   =     -31.67350602 Ry
     estimated scf accuracy    <       2.57352455 Ry

     iteration # 23     ecut=    30.00 Ry     beta=0.70
     Davidson diagonalization with overlap
     ethr =  1.00E-02,  avg # of iterations =  1.0

     negative rho (up, down):  9.837E-06 0.000E+00

     total cpu time spent up to now is        2.9 secs

     total energy              =     -31.58675677 Ry
     Harris-Foulkes estimate   =     -31.57126311 Ry
     estimated scf accuracy    <       4.92658088 Ry

     iteration # 24     ecut=    30.00 Ry     beta=0.70
     Davidson diagonalization with overlap
     ethr =  1.00E-02,  avg # of iterations =  1.0

     negative rho (up, down):  1.053E-05 0.000E+00

     total cpu time spent up to now is        3.0 secs

     total energy              =     -31.47894343 Ry
     Harris-Foulkes estimate   =     -31.58679653 Ry
     estimated scf accuracy    <       4.67187817 Ry

     iteration # 25     ecut=    30.00 Ry     beta=0.70
     Davidson diagonalization with overlap
     ethr =  1.00E-02,  avg # of iterations =  1.0

     negative rho (up, down):  2.778E-07 0.000E+00

     total cpu time spent up to now is        3.0 secs

     total energy              =     -31.62927808 Ry
     Harris-Foulkes estimate   =     -31.72582642 Ry
     estimated scf accuracy    <       1.29463817 Ry

     iteration # 26     ecut=    30.00 Ry     beta=0.70
     Davidson diagonalization with overlap
     ethr =  1.00E-02,  avg # of iterations =  1.0

     negative rho (up, down):  1.496E-07 0.000E+00

     total cpu time spent up to now is        3.0 secs

     total energy              =     -31.53038822 Ry
     Harris-Foulkes estimate   =     -31.62971751 Ry
     estimated scf accuracy    <       1.15410277 Ry

     iteration # 27     ecut=    30.00 Ry     beta=0.70
     Davidson diagonalization with overlap
     ethr =  1.00E-02,  avg # of iterations =  1.0

     negative rho (up, down):  4.613E-06 0.000E+00

     total cpu time spent up to now is        3.1 secs

     total energy              =     -31.52964206 Ry
     Harris-Foulkes estimate   =     -31.56202312 Ry
     estimated scf accuracy    <       2.54976790 Ry

     iteration # 28     ecut=    30.00 Ry     beta=0.70
     Davidson diagonalization with overlap
     ethr =  1.00E-02,  avg # of iterations =  1.0

     negative rho (up, down):  7.023E-07 0.000E+00

     total cpu time spent up to now is        3.1 secs

     total energy              =     -31.51477796 Ry
     Harris-Foulkes estimate   =     -31.52767791 Ry
     estimated scf accuracy    <       3.08306486 Ry

     iteration # 29     ecut=    30.00 Ry     beta=0.70
     Davidson diagonalization with overlap
     ethr =  1.00E-02,  avg # of iterations =  1.0

     total cpu time spent up to now is        3.1 secs

     total energy              =     -31.44150024 Ry
     Harris-Foulkes estimate   =     -31.63021706 Ry
     estimated scf accuracy    <       1.13297471 Ry

     iteration # 30     ecut=    30.00 Ry     beta=0.70
     Davidson diagonalization with overlap
     ethr =  1.00E-02,  avg # of iterations =  1.0

     total cpu time spent up to now is        3.2 secs

     total energy              =     -31.49532461 Ry
     Harris-Foulkes estimate   =     -31.52436414 Ry
     estimated scf accuracy    <       1.49275229 Ry

     iteration # 31     ecut=    30.00 Ry     beta=0.70
     Davidson diagonalization with overlap
     ethr =  1.00E-02,  avg # of iterations =  1.0

     total cpu time spent up to now is        3.2 secs

     total energy              =     -31.50390778 Ry
     Harris-Foulkes estimate   =     -31.52861681 Ry
     estimated scf accuracy    <       2.86349279 Ry

     iteration # 32     ecut=    30.00 Ry     beta=0.70
     Davidson diagonalization with overlap
     ethr =  1.00E-02,  avg # of iterations =  1.0

     total cpu time spent up to now is        3.2 secs

     total energy              =     -31.50936893 Ry
     Harris-Foulkes estimate   =     -31.50768971 Ry
     estimated scf accuracy    <       1.41493268 Ry

     iteration # 33     ecut=    30.00 Ry     beta=0.70
     Davidson diagonalization with overlap
     ethr =  1.00E-02,  avg # of iterations =  1.0

     total cpu time spent up to now is        3.3 secs

     total energy              =     -31.53237965 Ry
     Harris-Foulkes estimate   =     -31.51025722 Ry
     estimated scf accuracy    <       1.86811275 Ry

     iteration # 34     ecut=    30.00 Ry     beta=0.70
     Davidson diagonalization with overlap
     ethr =  1.00E-02,  avg # of iterations =  1.0

     total cpu time spent up to now is        3.3 secs

     total energy              =     -31.49157155 Ry
     Harris-Foulkes estimate   =     -31.53526809 Ry
     estimated scf accuracy    <       2.94839493 Ry

     iteration # 35     ecut=    30.00 Ry     beta=0.70
     Davidson diagonalization with overlap
     ethr =  1.00E-02,  avg # of iterations =  1.0

     total cpu time spent up to now is        3.3 secs

     total energy              =     -31.45816832 Ry
     Harris-Foulkes estimate   =     -31.49816786 Ry
     estimated scf accuracy    <       0.86402175 Ry

     iteration # 36     ecut=    30.00 Ry     beta=0.70
     Davidson diagonalization with overlap
     ethr =  1.00E-02,  avg # of iterations =  1.0

     total cpu time spent up to now is        3.4 secs

     total energy              =     -31.51036669 Ry
     Harris-Foulkes estimate   =     -31.50848304 Ry
     estimated scf accuracy    <       0.76927644 Ry

     iteration # 37     ecut=    30.00 Ry     beta=0.70
     Davidson diagonalization with overlap
     ethr =  9.62E-03,  avg # of iterations =  1.0

     total cpu time spent up to now is        3.4 secs

     total energy              =     -31.50114970 Ry
     Harris-Foulkes estimate   =     -31.51059098 Ry
     estimated scf accuracy    <       0.92478352 Ry

     iteration # 38     ecut=    30.00 Ry     beta=0.70
     Davidson diagonalization with overlap
     ethr =  9.62E-03,  avg # of iterations =  1.0

     total cpu time spent up to now is        3.4 secs

     total energy              =     -31.46923776 Ry
     Harris-Foulkes estimate   =     -31.50170420 Ry
     estimated scf accuracy    <       0.64760794 Ry

     iteration # 39     ecut=    30.00 Ry     beta=0.70
     Davidson diagonalization with overlap
     ethr =  8.10E-03,  avg # of iterations =  1.0

     total cpu time spent up to now is        3.5 secs

     total energy              =     -31.48862155 Ry
     Harris-Foulkes estimate   =     -31.49634019 Ry
     estimated scf accuracy    <       0.46701540 Ry

     iteration # 40     ecut=    30.00 Ry     beta=0.70
     Davidson diagonalization with overlap
     ethr =  5.84E-03,  avg # of iterations =  1.0

     total cpu time spent up to now is        3.5 secs

     total energy              =     -31.48797561 Ry
     Harris-Foulkes estimate   =     -31.49094067 Ry
     estimated scf accuracy    <       0.06716654 Ry

     iteration # 41     ecut=    30.00 Ry     beta=0.70
     Davidson diagonalization with overlap
     ethr =  8.40E-04,  avg # of iterations =  1.0

     total cpu time spent up to now is        3.5 secs

     total energy              =     -31.48958247 Ry
     Harris-Foulkes estimate   =     -31.49053695 Ry
     estimated scf accuracy    <       0.03355962 Ry

     iteration # 42     ecut=    30.00 Ry     beta=0.70
     Davidson diagonalization with overlap
     ethr =  4.19E-04,  avg # of iterations =  1.0

     total cpu time spent up to now is        3.6 secs

     total energy              =     -31.49008712 Ry
     Harris-Foulkes estimate   =     -31.49008596 Ry
     estimated scf accuracy    <       0.00022403 Ry

     iteration # 43     ecut=    30.00 Ry     beta=0.70
     Davidson diagonalization with overlap
     ethr =  2.80E-06,  avg # of iterations = 19.0

     total cpu time spent up to now is        3.6 secs

     total energy              =     -31.49006443 Ry
     Harris-Foulkes estimate   =     -31.49008743 Ry
     estimated scf accuracy    <       0.00034144 Ry

     iteration # 44     ecut=    30.00 Ry     beta=0.70
     Davidson diagonalization with overlap
     ethr =  2.80E-06,  avg # of iterations =  1.0

     total cpu time spent up to now is        3.7 secs

     total energy              =     -31.49008760 Ry
     Harris-Foulkes estimate   =     -31.49009879 Ry
     estimated scf accuracy    <       0.00112494 Ry

     iteration # 45     ecut=    30.00 Ry     beta=0.70
     Davidson diagonalization with overlap
     ethr =  2.80E-06,  avg # of iterations =  1.0

     total cpu time spent up to now is        3.7 secs

     total energy              =     -31.49007986 Ry
     Harris-Foulkes estimate   =     -31.49008972 Ry
     estimated scf accuracy    <       0.00042992 Ry

     iteration # 46     ecut=    30.00 Ry     beta=0.70
     Davidson diagonalization with overlap
     ethr =  2.80E-06,  avg # of iterations =  1.0

     total cpu time spent up to now is        3.7 secs

     total energy              =     -31.49008377 Ry
     Harris-Foulkes estimate   =     -31.49008398 Ry
     estimated scf accuracy    <       0.00000898 Ry

     iteration # 47     ecut=    30.00 Ry     beta=0.70
     Davidson diagonalization with overlap
     ethr =  1.12E-07,  avg # of iterations =  1.0

     total cpu time spent up to now is        3.8 secs

     total energy              =     -31.49008393 Ry
     Harris-Foulkes estimate   =     -31.49008392 Ry
     estimated scf accuracy    <       0.00000011 Ry

     iteration # 48     ecut=    30.00 Ry     beta=0.70
     Davidson diagonalization with overlap
     ethr =  1.42E-09,  avg # of iterations =  1.0

     total cpu time spent up to now is        3.8 secs

     total energy              =     -31.49008391 Ry
     Harris-Foulkes estimate   =     -31.49008393 Ry
     estimated scf accuracy    <       0.00000001 Ry

     iteration # 49     ecut=    30.00 Ry     beta=0.70
     Davidson diagonalization with overlap
     ethr =  1.28E-10,  avg # of iterations =  1.0

     total cpu time spent up to now is        3.8 secs

     End of self-consistent calculation

          k = 0.0000 0.0000 0.0000 ( 22119 PWs)   bands (ev):

   -23.6568  -7.0612  -7.0603  -7.0601  -6.9981  -6.9143  -0.2435   0.6311

     the Fermi energy is    -6.9266 ev

!    total energy              =     -31.49008391 Ry
     Harris-Foulkes estimate   =     -31.49008391 Ry
     estimated scf accuracy    <          1.1E-09 Ry

     convergence has been achieved in  49 iterations

     Forces acting on atoms (Ry/au):

     atom    1 type  1   force =    -0.00015289    0.00053273    0.00083511
     atom    2 type  1   force =     0.00031339    0.00037007   -0.00003888
     atom    3 type  2   force =    -0.00016051   -0.00090279   -0.00079623

     Total force =     0.001648     Total SCF correction =     0.000032

     Entering Dynamics:    iteration =     2
                           time      =   0.0097 pico-seconds


     Andersen thermostat:    3 collisions

ATOMIC_POSITIONS (bohr)
H        2.654865386   1.568364512  13.284306652
H       17.205917269   2.650504585  19.848545550
O       10.804554927  12.944507770   5.198015881


     kinetic energy (Ekin) =     0.02797101 Ry
     temperature           =  1472.08941921 K 
     Ekin + Etot (const)   =   -31.46211290 Ry
     Message from routine dynamics:
     Total linear momentum <> 0

     Linear momentum :   -0.4232253781    0.1276338257   -0.0447397148

     Writing output data file pwscf.save

     first order wave-functions extrapolation
     Check: negative starting charge=   -0.354567
     first order charge density extrapolation
     Check: negative starting charge=   -0.354832

     negative rho (up, down):  1.006E-01 0.000E+00

     total cpu time spent up to now is        4.1 secs

     per-process dynamical memory:    20.4 Mb

     Self-consistent Calculation

     iteration #  1     ecut=    30.00 Ry     beta=0.70
     Davidson diagonalization with overlap
     ethr =  1.00E-06,  avg # of iterations = 13.0

     negative rho (up, down):  1.977E-02 0.000E+00

     total cpu time spent up to now is        4.2 secs

     total energy              =      -4.37156737 Ry
     Harris-Foulkes estimate   =     -92.68983014 Ry
     estimated scf accuracy    <       5.35564459 Ry

     iteration #  2     ecut=    30.00 Ry     beta=0.70
     Davidson diagonalization with overlap
     ethr =  1.00E-02,  avg # of iterations =  5.0

     negative rho (up, down):  1.326E-02 0.000E+00

     total cpu time spent up to now is        4.2 secs

     total energy              =     -31.42326798 Ry
     Harris-Foulkes estimate   =     -35.17958266 Ry
     estimated scf accuracy    <       7.97997460 Ry

     iteration #  3     ecut=    30.00 Ry     beta=0.70
     Davidson diagonalization with overlap
     ethr =  1.00E-02,  avg # of iterations =  2.0

     negative rho (up, down):  2.142E-04 0.000E+00

     total cpu time spent up to now is        4.3 secs

     total energy              =     -31.84280548 Ry
     Harris-Foulkes estimate   =     -33.27279879 Ry
     estimated scf accuracy    <       4.83327220 Ry

     iteration #  4     ecut=    30.00 Ry     beta=0.70
     Davidson diagonalization with overlap
     ethr =  1.00E-02,  avg # of iterations =  3.0

     negative rho (up, down):  1.144E-04 0.000E+00

     total cpu time spent up to now is        4.3 secs

     total energy              =     -32.36803835 Ry
     Harris-Foulkes estimate   =     -32.25885283 Ry
     estimated scf accuracy    <       2.06741757 Ry

     iteration #  5     ecut=    30.00 Ry     beta=0.70
     Davidson diagonalization with overlap
     ethr =  1.00E-02,  avg # of iterations =  1.0

     negative rho (up, down):  3.690E-02 0.000E+00

     total cpu time spent up to now is        4.3 secs

     total energy              =     -31.34123657 Ry
     Harris-Foulkes estimate   =     -32.36883377 Ry
     estimated scf accuracy    <       2.22604571 Ry

     iteration #  6     ecut=    30.00 Ry     beta=0.70
     Davidson diagonalization with overlap
     ethr =  1.00E-02,  avg # of iterations =  2.0

     negative rho (up, down):  1.302E-01 0.000E+00

     total cpu time spent up to now is        4.4 secs

     total energy              =     -31.78778069 Ry
     Harris-Foulkes estimate   =     -31.90015399 Ry
     estimated scf accuracy    <       2.62706130 Ry

     iteration #  7     ecut=    30.00 Ry     beta=0.70
     Davidson diagonalization with overlap
     ethr =  1.00E-02,  avg # of iterations =  2.0

     negative rho (up, down):  8.525E-03 0.000E+00

     total cpu time spent up to now is        4.4 secs

     total energy              =     -31.45465521 Ry
     Harris-Foulkes estimate   =     -32.48274776 Ry
     estimated scf accuracy    <       2.49762310 Ry

     iteration #  8     ecut=    30.00 Ry     beta=0.70
     Davidson diagonalization with overlap
     ethr =  1.00E-02,  avg # of iterations =  2.0

     negative rho (up, down):  1.213E-02 0.000E+00

     total cpu time spent up to now is        4.5 secs

     total energy              =     -31.78392674 Ry
     Harris-Foulkes estimate   =     -31.75325487 Ry
     estimated scf accuracy    <       3.15845332 Ry

     iteration #  9     ecut=    30.00 Ry     beta=0.70
     Davidson diagonalization with overlap
     ethr =  1.00E-02,  avg # of iterations =  1.0

     negative rho (up, down):  2.287E-02 0.000E+00

     total cpu time spent up to now is        4.5 secs

     total energy              =     -31.82320919 Ry
     Harris-Foulkes estimate   =     -31.78405500 Ry
     estimated scf accuracy    <       3.21622522 Ry

     iteration # 10     ecut=    30.00 Ry     beta=0.70
     Davidson diagonalization with overlap
     ethr =  1.00E-02,  avg # of iterations =  1.0

     negative rho (up, down):  3.011E-01 0.000E+00

     total cpu time spent up to now is        4.5 secs

     total energy              =     -32.30740831 Ry
     Harris-Foulkes estimate   =     -31.82324863 Ry
     estimated scf accuracy    <       3.27710047 Ry

     iteration # 11     ecut=    30.00 Ry     beta=0.70
     Davidson diagonalization with overlap
     ethr =  1.00E-02,  avg # of iterations =  3.0

     negative rho (up, down):  3.473E+00 0.000E+00

     total cpu time spent up to now is        4.6 secs

     total energy              =     -35.38062773 Ry
     Harris-Foulkes estimate   =     -34.55259363 Ry
     estimated scf accuracy    <       5.26219518 Ry

     iteration # 12     ecut=    30.00 Ry     beta=0.70
     Davidson diagonalization with overlap
     ethr =  1.00E-02,  avg # of iterations = 11.0

     negative rho (up, down):  3.179E-05 0.000E+00

     total cpu time spent up to now is        4.6 secs

     total energy              =     -20.19698055 Ry
     Harris-Foulkes estimate   =     -66.03431318 Ry
     estimated scf accuracy    <      92.84436950 Ry

     iteration # 13     ecut=    30.00 Ry     beta=0.70
     Davidson diagonalization with overlap
     ethr =  1.00E-02,  avg # of iterations = 13.0

     negative rho (up, down):  4.896E-03 0.000E+00

     total cpu time spent up to now is        4.7 secs

     total energy              =     -32.07811526 Ry
     Harris-Foulkes estimate   =     -32.11961645 Ry
     estimated scf accuracy    <       4.89454526 Ry

     iteration # 14     ecut=    30.00 Ry     beta=0.70
     Davidson diagonalization with overlap
     ethr =  1.00E-02,  avg # of iterations =  1.0

     negative rho (up, down):  1.851E-02 0.000E+00

     total cpu time spent up to now is        4.7 secs

     total energy              =     -31.80003757 Ry
     Harris-Foulkes estimate   =     -32.07932098 Ry
     estimated scf accuracy    <       4.80962557 Ry

     iteration # 15     ecut=    30.00 Ry     beta=0.70
     Davidson diagonalization with overlap
     ethr =  1.00E-02,  avg # of iterations =  1.0

     negative rho (up, down):  3.410E-02 0.000E+00

     total cpu time spent up to now is        4.8 secs

     total energy              =     -32.30595813 Ry
     Harris-Foulkes estimate   =     -31.80556816 Ry
     estimated scf accuracy    <       4.59449553 Ry

     iteration # 16     ecut=    30.00 Ry     beta=0.70
     Davidson diagonalization with overlap
     ethr =  1.00E-02,  avg # of iterations =  1.0

     negative rho (up, down):  1.651E-04 0.000E+00

     total cpu time spent up to now is        4.8 secs

     total energy              =     -31.91902958 Ry
     Harris-Foulkes estimate   =     -32.30386036 Ry
     estimated scf accuracy    <       5.13941237 Ry

     iteration # 17     ecut=    30.00 Ry     beta=0.70
     Davidson diagonalization with overlap
     ethr =  1.00E-02,  avg # of iterations =  1.0

     negative rho (up, down):  1.319E-02 0.000E+00

     total cpu time spent up to now is        4.8 secs

     total energy              =     -31.27923936 Ry
     Harris-Foulkes estimate   =     -31.92708161 Ry
     estimated scf accuracy    <       4.55365875 Ry

     iteration # 18     ecut=    30.00 Ry     beta=0.70
     Davidson diagonalization with overlap
     ethr =  1.00E-02,  avg # of iterations =  1.0

     negative rho (up, down):  3.374E-03 0.000E+00

     total cpu time spent up to now is        4.9 secs

     total energy              =     -31.08560647 Ry
     Harris-Foulkes estimate   =     -31.30907636 Ry
     estimated scf accuracy    <       3.65519702 Ry

     iteration # 19     ecut=    30.00 Ry     beta=0.70
     Davidson diagonalization with overlap
     ethr =  1.00E-02,  avg # of iterations =  2.0

     negative rho (up, down):  1.475E-01 0.000E+00

     total cpu time spent up to now is        4.9 secs

     total energy              =     -30.91662808 Ry
     Harris-Foulkes estimate   =     -31.19112494 Ry
     estimated scf accuracy    <       3.46026972 Ry

     iteration # 20     ecut=    30.00 Ry     beta=0.70
     Davidson diagonalization with overlap
     ethr =  1.00E-02,  avg # of iterations =  5.0

     negative rho (up, down):  9.838E-02 0.000E+00

     total cpu time spent up to now is        4.9 secs

     total energy              =     -30.79594021 Ry
     Harris-Foulkes estimate   =     -32.49475557 Ry
     estimated scf accuracy    <       2.59632533 Ry

     iteration # 21     ecut=    30.00 Ry     beta=0.70
     Davidson diagonalization with overlap
     ethr =  1.00E-02,  avg # of iterations =  3.0

     negative rho (up, down):  3.777E-02 0.000E+00

     total cpu time spent up to now is        5.0 secs

     total energy              =     -31.84673387 Ry
     Harris-Foulkes estimate   =     -32.38066852 Ry
     estimated scf accuracy    <       2.32315780 Ry

     iteration # 22     ecut=    30.00 Ry     beta=0.70
     Davidson diagonalization with overlap
     ethr =  1.00E-02,  avg # of iterations =  1.0

     negative rho (up, down):  1.093E-01 0.000E+00

     total cpu time spent up to now is        5.0 secs

     total energy              =     -31.23939188 Ry
     Harris-Foulkes estimate   =     -31.85601785 Ry
     estimated scf accuracy    <       1.56546376 Ry

     iteration # 23     ecut=    30.00 Ry     beta=0.70
     Davidson diagonalization with overlap
     ethr =  1.00E-02,  avg # of iterations =  5.0

     negative rho (up, down):  3.520E-02 0.000E+00

     total cpu time spent up to now is        5.0 secs

     total energy              =     -31.00976908 Ry
     Harris-Foulkes estimate   =     -31.77075770 Ry
     estimated scf accuracy    <       1.87092860 Ry

     iteration # 24     ecut=    30.00 Ry     beta=0.70
     Davidson diagonalization with overlap
     ethr =  1.00E-02,  avg # of iterations =  2.0

     negative rho (up, down):  5.642E-02 0.000E+00

     total cpu time spent up to now is        5.1 secs

     total energy              =     -31.33903141 Ry
     Harris-Foulkes estimate   =     -32.20010256 Ry
     estimated scf accuracy    <       2.15055777 Ry

     iteration # 25     ecut=    30.00 Ry     beta=0.70
     Davidson diagonalization with overlap
     ethr =  1.00E-02,  avg # of iterations =  2.0

     negative rho (up, down):  1.350E-02 0.000E+00

     total cpu time spent up to now is        5.1 secs

     total energy              =     -31.49591041 Ry
     Harris-Foulkes estimate   =     -31.61497909 Ry
     estimated scf accuracy    <       1.20522531 Ry

     iteration # 26     ecut=    30.00 Ry     beta=0.70
     Davidson diagonalization with overlap
     ethr =  1.00E-02,  avg # of iterations =  1.0

     negative rho (up, down):  5.781E-03 0.000E+00

     total cpu time spent up to now is        5.1 secs

     total energy              =     -31.42103676 Ry
     Harris-Foulkes estimate   =     -31.73712770 Ry
     estimated scf accuracy    <       1.25143914 Ry

     iteration # 27     ecut=    30.00 Ry     beta=0.70
     Davidson diagonalization with overlap
     ethr =  1.00E-02,  avg # of iterations =  1.0

     negative rho (up, down):  3.737E-03 0.000E+00

     total cpu time spent up to now is        5.2 secs

     total energy              =     -31.68245976 Ry
     Harris-Foulkes estimate   =     -31.64589214 Ry
     estimated scf accuracy    <       3.00801364 Ry

     iteration # 28     ecut=    30.00 Ry     beta=0.70
     Davidson diagonalization with overlap
     ethr =  1.00E-02,  avg # of iterations =  1.0

     negative rho (up, down):  1.048E-04 0.000E+00

     total cpu time spent up to now is        5.2 secs

     total energy              =     -31.37669286 Ry
     Harris-Foulkes estimate   =     -31.70690868 Ry
     estimated scf accuracy    <       1.05790264 Ry

     iteration # 29     ecut=    30.00 Ry     beta=0.70
     Davidson diagonalization with overlap
     ethr =  1.00E-02,  avg # of iterations =  1.0

     negative rho (up, down):  3.377E-05 0.000E+00

     total cpu time spent up to now is        5.2 secs

     total energy              =     -31.62254567 Ry
     Harris-Foulkes estimate   =     -31.66736266 Ry
     estimated scf accuracy    <       2.63623922 Ry

     iteration # 30     ecut=    30.00 Ry     beta=0.70
     Davidson diagonalization with overlap
     ethr =  1.00E-02,  avg # of iterations =  1.0

     negative rho (up, down):  6.737E-04 0.000E+00

     total cpu time spent up to now is        5.3 secs

     total energy              =     -31.55030079 Ry
     Harris-Foulkes estimate   =     -31.62871473 Ry
     estimated scf accuracy    <       2.28530711 Ry

     iteration # 31     ecut=    30.00 Ry     beta=0.70
     Davidson diagonalization with overlap
     ethr =  1.00E-02,  avg # of iterations =  1.0

     negative rho (up, down):  1.839E-03 0.000E+00

     total cpu time spent up to now is        5.3 secs

     total energy              =     -31.60817077 Ry
     Harris-Foulkes estimate   =     -31.55666769 Ry
     estimated scf accuracy    <       1.35880327 Ry

     iteration # 32     ecut=    30.00 Ry     beta=0.70
     Davidson diagonalization with overlap
     ethr =  1.00E-02,  avg # of iterations =  1.0

     negative rho (up, down):  2.677E-08 0.000E+00

     total cpu time spent up to now is        5.4 secs

     total energy              =     -31.78634958 Ry
     Harris-Foulkes estimate   =     -31.72213008 Ry
     estimated scf accuracy    <       4.82432192 Ry

     iteration # 33     ecut=    30.00 Ry     beta=0.70
     Davidson diagonalization with overlap
     ethr =  1.00E-02,  avg # of iterations =  1.0

     negative rho (up, down):  1.364E-03 0.000E+00

     total cpu time spent up to now is        5.4 secs

     total energy              =     -31.76035075 Ry
     Harris-Foulkes estimate   =     -31.79171913 Ry
     estimated scf accuracy    <       3.66607849 Ry

     iteration # 34     ecut=    30.00 Ry     beta=0.70
     Davidson diagonalization with overlap
     ethr =  1.00E-02,  avg # of iterations =  1.0

     negative rho (up, down):  1.452E-03 0.000E+00

     total cpu time spent up to now is        5.4 secs

     total energy              =     -31.89868117 Ry
     Harris-Foulkes estimate   =     -31.84422274 Ry
     estimated scf accuracy    <       1.57823501 Ry

     iteration # 35     ecut=    30.00 Ry     beta=0.70
     Davidson diagonalization with overlap
     ethr =  1.00E-02,  avg # of iterations =  1.0

     negative rho (up, down):  5.548E-05 0.000E+00

     total cpu time spent up to now is        5.5 secs

     total energy              =     -31.83684333 Ry
     Harris-Foulkes estimate   =     -31.90548618 Ry
     estimated scf accuracy    <       1.64550238 Ry

     iteration # 36     ecut=    30.00 Ry     beta=0.70
     Davidson diagonalization with overlap
     ethr =  1.00E-02,  avg # of iterations =  1.0

     negative rho (up, down):  8.981E-07 0.000E+00

     total cpu time spent up to now is        5.5 secs

     total energy              =     -31.78612621 Ry
     Harris-Foulkes estimate   =     -31.83732669 Ry
     estimated scf accuracy    <       1.52273394 Ry

     iteration # 37     ecut=    30.00 Ry     beta=0.70
     Davidson diagonalization with overlap
     ethr =  1.00E-02,  avg # of iterations =  1.0

     total cpu time spent up to now is        5.5 secs

     total energy              =     -31.72066694 Ry
     Harris-Foulkes estimate   =     -31.78647350 Ry
     estimated scf accuracy    <       1.43708356 Ry

     iteration # 38     ecut=    30.00 Ry     beta=0.70
     Davidson diagonalization with overlap
     ethr =  1.00E-02,  avg # of iterations =  1.0

     total cpu time spent up to now is        5.6 secs

     total energy              =     -31.47830600 Ry
     Harris-Foulkes estimate   =     -31.72177417 Ry
     estimated scf accuracy    <       1.31755780 Ry

     iteration # 39     ecut=    30.00 Ry     beta=0.70
     Davidson diagonalization with overlap
     ethr =  1.00E-02,  avg # of iterations =  1.0

     total cpu time spent up to now is        5.6 secs

     total energy              =     -31.52365457 Ry
     Harris-Foulkes estimate   =     -31.60414391 Ry
     estimated scf accuracy    <       2.99624402 Ry

     iteration # 40     ecut=    30.00 Ry     beta=0.70
     Davidson diagonalization with overlap
     ethr =  1.00E-02,  avg # of iterations =  1.0

     total cpu time spent up to now is        5.6 secs

     total energy              =     -31.45222865 Ry
     Harris-Foulkes estimate   =     -31.53605030 Ry
     estimated scf accuracy    <       1.13847684 Ry

     iteration # 41     ecut=    30.00 Ry     beta=0.70
     Davidson diagonalization with overlap
     ethr =  1.00E-02,  avg # of iterations =  1.0

     negative rho (up, down):  4.555E-03 0.000E+00

     total cpu time spent up to now is        5.7 secs

     total energy              =     -31.94198218 Ry
     Harris-Foulkes estimate   =     -31.79330952 Ry
     estimated scf accuracy    <       2.95737998 Ry

     iteration # 42     ecut=    30.00 Ry     beta=0.70
     Davidson diagonalization with overlap
     ethr =  1.00E-02,  avg # of iterations =  1.0

     negative rho (up, down):  7.759E-03 0.000E+00

     total cpu time spent up to now is        5.7 secs

     total energy              =     -31.96136090 Ry
     Harris-Foulkes estimate   =     -31.94530307 Ry
     estimated scf accuracy    <       2.93437496 Ry

     iteration # 43     ecut=    30.00 Ry     beta=0.70
     Davidson diagonalization with overlap
     ethr =  1.00E-02,  avg # of iterations =  1.0

     negative rho (up, down):  5.595E-03 0.000E+00

     total cpu time spent up to now is        5.7 secs

     total energy              =     -31.93716897 Ry
     Harris-Foulkes estimate   =     -31.96233809 Ry
     estimated scf accuracy    <       2.45994250 Ry

     iteration # 44     ecut=    30.00 Ry     beta=0.70
     Davidson diagonalization with overlap
     ethr =  1.00E-02,  avg # of iterations =  1.0

     negative rho (up, down):  1.996E-04 0.000E+00

     total cpu time spent up to now is        5.8 secs

     total energy              =     -31.81794135 Ry
     Harris-Foulkes estimate   =     -31.93744596 Ry
     estimated scf accuracy    <       2.65425106 Ry

     iteration # 45     ecut=    30.00 Ry     beta=0.70
     Davidson diagonalization with overlap
     ethr =  1.00E-02,  avg # of iterations =  1.0

     negative rho (up, down):  2.319E-06 0.000E+00

     total cpu time spent up to now is        5.8 secs

     total energy              =     -31.82557765 Ry
     Harris-Foulkes estimate   =     -31.86318134 Ry
     estimated scf accuracy    <       1.57677951 Ry

     iteration # 46     ecut=    30.00 Ry     beta=0.70
     Davidson diagonalization with overlap
     ethr =  1.00E-02,  avg # of iterations =  1.0

     negative rho (up, down):  2.596E-06 0.000E+00

     total cpu time spent up to now is        5.8 secs

     total energy              =     -31.55575983 Ry
     Harris-Foulkes estimate   =     -31.82592408 Ry
     estimated scf accuracy    <       1.50516971 Ry

     iteration # 47     ecut=    30.00 Ry     beta=0.70
     Davidson diagonalization with overlap
     ethr =  1.00E-02,  avg # of iterations =  1.0

     negative rho (up, down):  3.879E-04 0.000E+00

     total cpu time spent up to now is        5.9 secs

     total energy              =     -31.18398100 Ry
     Harris-Foulkes estimate   =     -31.56195819 Ry
     estimated scf accuracy    <       1.16960889 Ry

     iteration # 48     ecut=    30.00 Ry     beta=0.70
     Davidson diagonalization with overlap
     ethr =  1.00E-02,  avg # of iterations =  1.0

     negative rho (up, down):  1.004E-05 0.000E+00

     total cpu time spent up to now is        5.9 secs

     total energy              =     -31.43281524 Ry
     Harris-Foulkes estimate   =     -31.82429311 Ry
     estimated scf accuracy    <       3.03043952 Ry

     iteration # 49     ecut=    30.00 Ry     beta=0.70
     Davidson diagonalization with overlap
     ethr =  1.00E-02,  avg # of iterations =  1.0

     negative rho (up, down):  3.402E-05 0.000E+00

     total cpu time spent up to now is        6.0 secs

     total energy              =     -31.29956839 Ry
     Harris-Foulkes estimate   =     -31.52445650 Ry
     estimated scf accuracy    <       1.14229144 Ry

     iteration # 50     ecut=    30.00 Ry     beta=0.70
     Davidson diagonalization with overlap
     ethr =  1.00E-02,  avg # of iterations =  1.0

     negative rho (up, down):  3.457E-06 0.000E+00

     total cpu time spent up to now is        6.0 secs

     total energy              =     -31.52703515 Ry
     Harris-Foulkes estimate   =     -31.62291711 Ry
     estimated scf accuracy    <       0.89070398 Ry

     iteration # 51     ecut=    30.00 Ry     beta=0.70
     Davidson diagonalization with overlap
     ethr =  1.00E-02,  avg # of iterations =  1.0

     negative rho (up, down):  2.830E-08 0.000E+00

     total cpu time spent up to now is        6.0 secs

     total energy              =     -31.47476673 Ry
     Harris-Foulkes estimate   =     -31.52753193 Ry
     estimated scf accuracy    <       0.70308276 Ry

     iteration # 52     ecut=    30.00 Ry     beta=0.70
     Davidson diagonalization with overlap
     ethr =  8.79E-03,  avg # of iterations =  1.0

     negative rho (up, down):  1.540E-06 0.000E+00

     total cpu time spent up to now is        6.1 secs

     total energy              =     -31.48117779 Ry
     Harris-Foulkes estimate   =     -31.49106939 Ry
     estimated scf accuracy    <       0.11036963 Ry

     iteration # 53     ecut=    30.00 Ry     beta=0.70
     Davidson diagonalization with overlap
     ethr =  1.38E-03,  avg # of iterations =  1.0

     total cpu time spent up to now is        6.1 secs

     total energy              =     -31.44140384 Ry
     Harris-Foulkes estimate   =     -31.53550709 Ry
     estimated scf accuracy    <       0.72777226 Ry

     iteration # 54     ecut=    30.00 Ry     beta=0.70
     Davidson diagonalization with overlap
     ethr =  1.38E-03,  avg # of iterations =  1.0

     negative rho (up, down):  2.174E-07 0.000E+00

     total cpu time spent up to now is        6.1 secs

     total energy              =     -31.38076428 Ry
     Harris-Foulkes estimate   =     -31.52228966 Ry
     estimated scf accuracy    <       1.23188522 Ry

     iteration # 55     ecut=    30.00 Ry     beta=0.70
     Davidson diagonalization with overlap
     ethr =  1.38E-03,  avg # of iterations =  1.0

     total cpu time spent up to now is        6.2 secs

     total energy              =     -31.47024883 Ry
     Harris-Foulkes estimate   =     -31.55053710 Ry
     estimated scf accuracy    <       0.73920720 Ry

     iteration # 56     ecut=    30.00 Ry     beta=0.70
     Davidson diagonalization with overlap
     ethr =  1.38E-03,  avg # of iterations =  1.0

     total cpu time spent up to now is        6.2 secs

     total energy              =     -31.49213636 Ry
     Harris-Foulkes estimate   =     -31.49138885 Ry
     estimated scf accuracy    <       0.09556334 Ry

     iteration # 57     ecut=    30.00 Ry     beta=0.70
     Davidson diagonalization with overlap
     ethr =  1.19E-03,  avg # of iterations =  1.0

     total cpu time spent up to now is        6.2 secs

     total energy              =     -31.48601337 Ry
     Harris-Foulkes estimate   =     -31.49229708 Ry
     estimated scf accuracy    <       0.16063153 Ry

     iteration # 58     ecut=    30.00 Ry     beta=0.70
     Davidson diagonalization with overlap
     ethr =  1.19E-03,  avg # of iterations =  1.0

     total cpu time spent up to now is        6.3 secs

     total energy              =     -31.48885440 Ry
     Harris-Foulkes estimate   =     -31.49045444 Ry
     estimated scf accuracy    <       0.02903965 Ry

     iteration # 59     ecut=    30.00 Ry     beta=0.70
     Davidson diagonalization with overlap
     ethr =  3.63E-04,  avg # of iterations =  1.0

     total cpu time spent up to now is        6.3 secs

     total energy              =     -31.49046470 Ry
     Harris-Foulkes estimate   =     -31.49057553 Ry
     estimated scf accuracy    <       0.03825362 Ry

     iteration # 60     ecut=    30.00 Ry     beta=0.70
     Davidson diagonalization with overlap
     ethr =  3.63E-04,  avg # of iterations =  1.0

     total cpu time spent up to now is        6.3 secs

     total energy              =     -31.48973483 Ry
     Harris-Foulkes estimate   =     -31.49047147 Ry
     estimated scf accuracy    <       0.03074119 Ry

     iteration # 61     ecut=    30.00 Ry     beta=0.70
     Davidson diagonalization with overlap
     ethr =  3.63E-04,  avg # of iterations =  1.0

     total cpu time spent up to now is        6.4 secs

     total energy              =     -31.49005693 Ry
     Harris-Foulkes estimate   =     -31.49006878 Ry
     estimated scf accuracy    <       0.00022632 Ry

     iteration # 62     ecut=    30.00 Ry     beta=0.70
     Davidson diagonalization with overlap
     ethr =  2.83E-06,  avg # of iterations =  9.0

     total cpu time spent up to now is        6.4 secs

     total energy              =     -31.49007028 Ry
     Harris-Foulkes estimate   =     -31.49006864 Ry
     estimated scf accuracy    <       0.00021059 Ry

     iteration # 63     ecut=    30.00 Ry     beta=0.70
     Davidson diagonalization with overlap
     ethr =  2.63E-06,  avg # of iterations =  1.0

     total cpu time spent up to now is        6.4 secs

     total energy              =     -31.49007786 Ry
     Harris-Foulkes estimate   =     -31.49007054 Ry
     estimated scf accuracy    <       0.00034364 Ry

     iteration # 64     ecut=    30.00 Ry     beta=0.70
     Davidson diagonalization with overlap
     ethr =  2.63E-06,  avg # of iterations =  1.0

     total cpu time spent up to now is        6.5 secs

     total energy              =     -31.49005290 Ry
     Harris-Foulkes estimate   =     -31.49008054 Ry
     estimated scf accuracy    <       0.00109411 Ry

     iteration # 65     ecut=    30.00 Ry     beta=0.70
     Davidson diagonalization with overlap
     ethr =  2.63E-06,  avg # of iterations =  1.0

     total cpu time spent up to now is        6.5 secs

     total energy              =     -31.49006616 Ry
     Harris-Foulkes estimate   =     -31.49006626 Ry
     estimated scf accuracy    <       0.00000085 Ry

     iteration # 66     ecut=    30.00 Ry     beta=0.70
     Davidson diagonalization with overlap
     ethr =  1.06E-08,  avg # of iterations =  1.0

     total cpu time spent up to now is        6.5 secs

     total energy              =     -31.49006619 Ry
     Harris-Foulkes estimate   =     -31.49006619 Ry
     estimated scf accuracy    <       0.00000041 Ry

     iteration # 67     ecut=    30.00 Ry     beta=0.70
     Davidson diagonalization with overlap
     ethr =  5.06E-09,  avg # of iterations =  1.0

     total cpu time spent up to now is        6.6 secs

     total energy              =     -31.49006621 Ry
     Harris-Foulkes estimate   =     -31.49006619 Ry
     estimated scf accuracy    <       0.00000020 Ry

     iteration # 68     ecut=    30.00 Ry     beta=0.70
     Davidson diagonalization with overlap
     ethr =  2.44E-09,  avg # of iterations =  1.0

     total cpu time spent up to now is        6.6 secs

     total energy              =     -31.49006620 Ry
     Harris-Foulkes estimate   =     -31.49006622 Ry
     estimated scf accuracy    <       0.00000038 Ry

     iteration # 69     ecut=    30.00 Ry     beta=0.70
     Davidson diagonalization with overlap
     ethr =  2.44E-09,  avg # of iterations =  1.0

     total cpu time spent up to now is        6.6 secs

     total energy              =     -31.49006621 Ry
     Harris-Foulkes estimate   =     -31.49006621 Ry
     estimated scf accuracy    <       0.00000001 Ry

     iteration # 70     ecut=    30.00 Ry     beta=0.70
     Davidson diagonalization with overlap
     ethr =  1.72E-10,  avg # of iterations =  1.0

     total cpu time spent up to now is        6.7 secs

     End of self-consistent calculation

          k = 0.0000 0.0000 0.0000 ( 22119 PWs)   bands (ev):

   -23.6519  -7.0569  -7.0563  -7.0559  -6.9886  -6.9159  -0.2433   0.6362

     the Fermi energy is    -6.9224 ev

!    total energy              =     -31.49006621 Ry
     Harris-Foulkes estimate   =     -31.49006621 Ry
     estimated scf accuracy    <          6.5E-11 Ry

     convergence has been achieved in  70 iterations

     Forces acting on atoms (Ry/au):

     atom    1 type  1   force =    -0.00004744    0.00028664    0.00063428
     atom    2 type  1   force =     0.00038207    0.00021298    0.00010561
     atom    3 type  2   force =    -0.00033463   -0.00049963   -0.00073990

     Total force =     0.001264     Total SCF correction =     0.000000

     Entering Dynamics:    iteration =     3
                           time      =   0.0145 pico-seconds


     Andersen thermostat:    3 collisions

ATOMIC_POSITIONS (bohr)
H        2.770958270   1.726821923  13.585282043
H       17.090345213   3.007058799  19.840421400
O       10.804522050  12.911997661   5.179529646


     kinetic energy (Ekin) =     0.01559375 Ry
     temperature           =   820.68539576 K 
     Ekin + Etot (const)   =   -31.47447245 Ry
     Message from routine dynamics:
     Total linear momentum <> 0

     Linear momentum :    0.2793823679   -0.3145124366   -0.1105359402

     Writing output data file pwscf.save

     second order wave-functions extrapolation
     Check: negative starting charge=   -0.354832
     second order charge density extrapolation
     Check: negative starting charge=   -0.355201

     negative rho (up, down):  6.097E-02 0.000E+00

     total cpu time spent up to now is        7.0 secs

     per-process dynamical memory:    20.4 Mb

     Self-consistent Calculation

     iteration #  1     ecut=    30.00 Ry     beta=0.70
     Davidson diagonalization with overlap
     c_bands:  1 eigenvalues not converged
     ethr =  1.00E-06,  avg # of iterations = 20.0

     negative rho (up, down):  1.346E-02 0.000E+00

     total cpu time spent up to now is        7.1 secs

     total energy              =     -31.44116151 Ry
     Harris-Foulkes estimate   =     -31.43467692 Ry
     estimated scf accuracy    <       0.04414491 Ry

     iteration #  2     ecut=    30.00 Ry     beta=0.70
     Davidson diagonalization with overlap
     ethr =  5.52E-04,  avg # of iterations =  2.0

     negative rho (up, down):  1.237E-02 0.000E+00

     total cpu time spent up to now is        7.1 secs

     total energy              =     -31.48348894 Ry
     Harris-Foulkes estimate   =     -31.96124967 Ry
     estimated scf accuracy    <       4.45339372 Ry

     iteration #  3     ecut=    30.00 Ry     beta=0.70
     Davidson diagonalization with overlap
     ethr =  5.52E-04,  avg # of iterations =  2.0

     negative rho (up, down):  1.204E-02 0.000E+00

     total cpu time spent up to now is        7.2 secs

     total energy              =     -31.47479160 Ry
     Harris-Foulkes estimate   =     -31.50910884 Ry
     estimated scf accuracy    <       1.21741694 Ry

     iteration #  4     ecut=    30.00 Ry     beta=0.70
     Davidson diagonalization with overlap
     ethr =  5.52E-04,  avg # of iterations =  1.0

     negative rho (up, down):  8.404E-03 0.000E+00

     total cpu time spent up to now is        7.2 secs

     total energy              =     -31.42109861 Ry
     Harris-Foulkes estimate   =     -31.48676075 Ry
     estimated scf accuracy    <       0.96910520 Ry

     iteration #  5     ecut=    30.00 Ry     beta=0.70
     Davidson diagonalization with overlap
     ethr =  5.52E-04,  avg # of iterations =  1.0

     negative rho (up, down):  2.174E-03 0.000E+00

     total cpu time spent up to now is        7.2 secs

     total energy              =     -31.46013142 Ry
     Harris-Foulkes estimate   =     -31.54088310 Ry
     estimated scf accuracy    <       2.74579494 Ry

     iteration #  6     ecut=    30.00 Ry     beta=0.70
     Davidson diagonalization with overlap
     ethr =  5.52E-04,  avg # of iterations =  1.0

     negative rho (up, down):  4.136E-04 0.000E+00

     total cpu time spent up to now is        7.3 secs

     total energy              =     -31.49037608 Ry
     Harris-Foulkes estimate   =     -31.48881904 Ry
     estimated scf accuracy    <       0.01028755 Ry

     iteration #  7     ecut=    30.00 Ry     beta=0.70
     Davidson diagonalization with overlap
     ethr =  1.29E-04,  avg # of iterations =  5.0

     negative rho (up, down):  1.825E-04 0.000E+00

     total cpu time spent up to now is        7.3 secs

     total energy              =     -31.49087342 Ry
     Harris-Foulkes estimate   =     -31.49108234 Ry
     estimated scf accuracy    <       0.10405306 Ry

     iteration #  8     ecut=    30.00 Ry     beta=0.70
     Davidson diagonalization with overlap
     ethr =  1.29E-04,  avg # of iterations =  1.0

     negative rho (up, down):  3.797E-07 0.000E+00

     total cpu time spent up to now is        7.3 secs

     total energy              =     -31.48863985 Ry
     Harris-Foulkes estimate   =     -31.49089044 Ry
     estimated scf accuracy    <       0.08518285 Ry

     iteration #  9     ecut=    30.00 Ry     beta=0.70
     Davidson diagonalization with overlap
     ethr =  1.29E-04,  avg # of iterations =  1.0

     total cpu time spent up to now is        7.4 secs

     total energy              =     -31.49026237 Ry
     Harris-Foulkes estimate   =     -31.49027616 Ry
     estimated scf accuracy    <       0.01807633 Ry

     iteration # 10     ecut=    30.00 Ry     beta=0.70
     Davidson diagonalization with overlap
     ethr =  1.29E-04,  avg # of iterations =  1.0

     total cpu time spent up to now is        7.4 secs

     total energy              =     -31.48999456 Ry
[...]

     total energy              =     137.20602377 Ry
     Harris-Foulkes estimate   =    -947.85583086 Ry
     estimated scf accuracy    <      29.14446934 Ry

     iteration # 59     ecut=    30.00 Ry     beta=0.70
     Davidson diagonalization with overlap
     ethr =  1.00E-02,  avg # of iterations =  7.0

     negative rho (up, down):  2.174E-01 0.000E+00

     total cpu time spent up to now is       95.5 secs

     total energy              =      69.83079578 Ry
     Harris-Foulkes estimate   =    -442.83653049 Ry
     estimated scf accuracy    <      30.34582548 Ry

     iteration # 60     ecut=    30.00 Ry     beta=0.70
     Davidson diagonalization with overlap
     ethr =  1.00E-02,  avg # of iterations =  8.0

     negative rho (up, down):  2.709E-01 0.000E+00

     total cpu time spent up to now is       95.6 secs

     total energy              =     100.53319010 Ry
     Harris-Foulkes estimate   =    -873.40590881 Ry
     estimated scf accuracy    <      20.78252837 Ry

     iteration # 61     ecut=    30.00 Ry     beta=0.70
     Davidson diagonalization with overlap
     ethr =  1.00E-02,  avg # of iterations =  6.0

     negative rho (up, down):  1.157E-03 0.000E+00

     total cpu time spent up to now is       95.7 secs

     total energy              =     127.41600439 Ry
     Harris-Foulkes estimate   =    -321.35998587 Ry
     estimated scf accuracy    <      19.33650115 Ry

     iteration # 62     ecut=    30.00 Ry     beta=0.70
     Davidson diagonalization with overlap
     ethr =  1.00E-02,  avg # of iterations =  9.0

     total cpu time spent up to now is       95.7 secs

     total energy              =     -72.15453127 Ry
     Harris-Foulkes estimate   =     -89.34750680 Ry
     estimated scf accuracy    <      78.15021626 Ry

     iteration # 63     ecut=    30.00 Ry     beta=0.70
     Davidson diagonalization with overlap
     ethr =  1.00E-02,  avg # of iterations =  1.0

     negative rho (up, down):  1.006E-03 0.000E+00

     total cpu time spent up to now is       95.7 secs

     total energy              =     -81.05586159 Ry
     Harris-Foulkes estimate   =     -72.23939057 Ry
     estimated scf accuracy    <      55.29014571 Ry

     iteration # 64     ecut=    30.00 Ry     beta=0.70
     Davidson diagonalization with overlap
     ethr =  1.00E-02,  avg # of iterations =  1.0

     negative rho (up, down):  1.815E-03 0.000E+00

     total cpu time spent up to now is       95.8 secs

     total energy              =     -75.40525788 Ry
     Harris-Foulkes estimate   =     -81.08681070 Ry
     estimated scf accuracy    <      66.40932661 Ry

     iteration # 65     ecut=    30.00 Ry     beta=0.70
     Davidson diagonalization with overlap
     ethr =  1.00E-02,  avg # of iterations =  5.0

     negative rho (up, down):  1.261E-03 0.000E+00

     total cpu time spent up to now is       95.8 secs

     total energy              =     -26.73815148 Ry
     Harris-Foulkes estimate   =    -109.72295485 Ry
     estimated scf accuracy    <      37.48398239 Ry

     iteration # 66     ecut=    30.00 Ry     beta=0.70
     Davidson diagonalization with overlap
     ethr =  1.00E-02,  avg # of iterations =  5.0

     negative rho (up, down):  2.047E-03 0.000E+00

     total cpu time spent up to now is       95.9 secs

     total energy              =     -61.43343056 Ry
     Harris-Foulkes estimate   =     -75.25882047 Ry
     estimated scf accuracy    <      59.28290032 Ry

     iteration # 67     ecut=    30.00 Ry     beta=0.70
     Davidson diagonalization with overlap
     ethr =  1.00E-02,  avg # of iterations =  1.0

     negative rho (up, down):  2.218E-02 0.000E+00

     total cpu time spent up to now is       95.9 secs

     total energy              =     -39.85235736 Ry
     Harris-Foulkes estimate   =     -61.53135569 Ry
     estimated scf accuracy    <      42.25021249 Ry

     iteration # 68     ecut=    30.00 Ry     beta=0.70
     Davidson diagonalization with overlap
     ethr =  1.00E-02,  avg # of iterations =  5.0

     negative rho (up, down):  2.972E-02 0.000E+00

     total cpu time spent up to now is       96.0 secs

     total energy              =     -34.63169885 Ry
     Harris-Foulkes estimate   =     -40.50295253 Ry
     estimated scf accuracy    <      15.14352003 Ry

     iteration # 69     ecut=    30.00 Ry     beta=0.70
     Davidson diagonalization with overlap
     ethr =  1.00E-02,  avg # of iterations = 10.0

     negative rho (up, down):  3.758E-01 0.000E+00

     total cpu time spent up to now is       96.1 secs

     total energy              =   -1086.05879255 Ry
     Harris-Foulkes estimate   =     -74.16297281 Ry
     estimated scf accuracy    <      16.82552483 Ry

     iteration # 70     ecut=    30.00 Ry     beta=0.70
     Davidson diagonalization with overlap
     ethr =  1.00E-02,  avg # of iterations = 11.0

     negative rho (up, down):  1.785E-01 0.000E+00

     total cpu time spent up to now is       96.2 secs

     total energy              =      87.61304601 Ry
     Harris-Foulkes estimate   =   -2591.92422890 Ry
     estimated scf accuracy    <      70.17387232 Ry

     iteration # 71     ecut=    30.00 Ry     beta=0.70
     Davidson diagonalization with overlap
     ethr =  1.00E-02,  avg # of iterations =  9.0

     negative rho (up, down):  1.174E-01 0.000E+00

     total cpu time spent up to now is       96.3 secs

     total energy              =    -167.59986872 Ry
     Harris-Foulkes estimate   =    -253.98601442 Ry
     estimated scf accuracy    <      71.98539352 Ry

     iteration # 72     ecut=    30.00 Ry     beta=0.70
     Davidson diagonalization with overlap
     ethr =  1.00E-02,  avg # of iterations =  6.0

     negative rho (up, down):  1.182E-01 0.000E+00

     total cpu time spent up to now is       96.4 secs

     total energy              =      24.48483343 Ry
     Harris-Foulkes estimate   =    -543.30499745 Ry
     estimated scf accuracy    <      23.62526459 Ry

     iteration # 73     ecut=    30.00 Ry     beta=0.70
     Davidson diagonalization with overlap
     ethr =  1.00E-02,  avg # of iterations =  7.0

     negative rho (up, down):  1.111E-01 0.000E+00

     total cpu time spent up to now is       96.5 secs

     total energy              =      22.87252817 Ry
     Harris-Foulkes estimate   =    -208.05689058 Ry
     estimated scf accuracy    <      58.31840887 Ry

     iteration # 74     ecut=    30.00 Ry     beta=0.70
     Davidson diagonalization with overlap
     ethr =  1.00E-02,  avg # of iterations =  9.0

     negative rho (up, down):  4.952E-02 0.000E+00

     total cpu time spent up to now is       96.6 secs

     total energy              =    -357.12236105 Ry
     Harris-Foulkes estimate   =   -2094.80973056 Ry
     estimated scf accuracy    <      31.55500475 Ry

     iteration # 75     ecut=    30.00 Ry     beta=0.70
     Davidson diagonalization with overlap
     ethr =  1.00E-02,  avg # of iterations =  5.0

     negative rho (up, down):  8.513E-02 0.000E+00

     total cpu time spent up to now is       96.7 secs

     total energy              =     -71.11977277 Ry
     Harris-Foulkes estimate   =   -2723.03977847 Ry
     estimated scf accuracy    <      31.49504462 Ry

     iteration # 76     ecut=    30.00 Ry     beta=0.70
     Davidson diagonalization with overlap
     ethr =  1.00E-02,  avg # of iterations =  6.0

     negative rho (up, down):  1.053E-01 0.000E+00

     total cpu time spent up to now is       96.7 secs

     total energy              =     216.87074168 Ry
     Harris-Foulkes estimate   =   -1120.06672556 Ry
     estimated scf accuracy    <      50.53288776 Ry

     iteration # 77     ecut=    30.00 Ry     beta=0.70
     Davidson diagonalization with overlap
     ethr =  1.00E-02,  avg # of iterations = 10.0

     negative rho (up, down):  4.116E-01 0.000E+00

     total cpu time spent up to now is       96.8 secs

     total energy              =    -757.12388277 Ry
     Harris-Foulkes estimate   =     -37.70171190 Ry
     estimated scf accuracy    <       4.76288915 Ry

     iteration # 78     ecut=    30.00 Ry     beta=0.70
     Davidson diagonalization with overlap
     ethr =  1.00E-02,  avg # of iterations =  7.0

     negative rho (up, down):  4.789E-01 0.000E+00

     total cpu time spent up to now is       96.9 secs

     total energy              =      -1.48859181 Ry
     Harris-Foulkes estimate   =   -8101.32352113 Ry
     estimated scf accuracy    <      64.72867268 Ry

     iteration # 79     ecut=    30.00 Ry     beta=0.70
     Davidson diagonalization with overlap
     ethr =  1.00E-02,  avg # of iterations =  7.0

     negative rho (up, down):  4.637E-01 0.000E+00

     total cpu time spent up to now is       96.9 secs

     total energy              =      82.34937094 Ry
     Harris-Foulkes estimate   =   -1216.29695499 Ry
     estimated scf accuracy    <      62.44671085 Ry

     iteration # 80     ecut=    30.00 Ry     beta=0.70
     Davidson diagonalization with overlap
     ethr =  1.00E-02,  avg # of iterations =  8.0

     negative rho (up, down):  5.072E-01 0.000E+00

     total cpu time spent up to now is       97.0 secs

     total energy              =     320.37830044 Ry
     Harris-Foulkes estimate   =    -908.09060404 Ry
     estimated scf accuracy    <      52.54933695 Ry

     iteration # 81     ecut=    30.00 Ry     beta=0.70
     Davidson diagonalization with overlap
     ethr =  1.00E-02,  avg # of iterations =  8.0

     negative rho (up, down):  5.255E-01 0.000E+00

     total cpu time spent up to now is       97.1 secs

     total energy              =    -580.04073452 Ry
     Harris-Foulkes estimate   =    -296.93126964 Ry
     estimated scf accuracy    <      45.22316472 Ry

     iteration # 82     ecut=    30.00 Ry     beta=0.70
     Davidson diagonalization with overlap
     ethr =  1.00E-02,  avg # of iterations =  7.0

     negative rho (up, down):  5.234E-01 0.000E+00

     total cpu time spent up to now is       97.1 secs

     total energy              =   -2492.49202499 Ry
     Harris-Foulkes estimate   =  -16617.33945729 Ry
     estimated scf accuracy    <      50.37006330 Ry

     iteration # 83     ecut=    30.00 Ry     beta=0.70
     Davidson diagonalization with overlap
     ethr =  1.00E-02,  avg # of iterations =  9.0

     negative rho (up, down):  3.736E-01 0.000E+00

     total cpu time spent up to now is       97.2 secs

     total energy              =     -36.85254744 Ry
     Harris-Foulkes estimate   =  -30432.47266437 Ry
     estimated scf accuracy    <      57.74991749 Ry

     iteration # 84     ecut=    30.00 Ry     beta=0.70
     Davidson diagonalization with overlap
     ethr =  1.00E-02,  avg # of iterations =  5.0

     negative rho (up, down):  5.835E-01 0.000E+00

     total cpu time spent up to now is       97.2 secs

     total energy              =    -267.33699073 Ry
     Harris-Foulkes estimate   =   -1725.57743783 Ry
     estimated scf accuracy    <      48.66848922 Ry

     iteration # 85     ecut=    30.00 Ry     beta=0.70
     Davidson diagonalization with overlap
     ethr =  1.00E-02,  avg # of iterations =  6.0

     negative rho (up, down):  4.458E-01 0.000E+00

     total cpu time spent up to now is       97.3 secs

     total energy              =    -140.74995397 Ry
     Harris-Foulkes estimate   =  -10359.14709231 Ry
     estimated scf accuracy    <      52.97603911 Ry

     iteration # 86     ecut=    30.00 Ry     beta=0.70
     Davidson diagonalization with overlap
     ethr =  1.00E-02,  avg # of iterations =  7.0

     negative rho (up, down):  2.729E-01 0.000E+00

     total cpu time spent up to now is       97.3 secs

     total energy              =     132.80653439 Ry
     Harris-Foulkes estimate   =   -2538.69297918 Ry
     estimated scf accuracy    <      51.93803493 Ry

     iteration # 87     ecut=    30.00 Ry     beta=0.70
     Davidson diagonalization with overlap
     ethr =  1.00E-02,  avg # of iterations = 11.0

     negative rho (up, down):  4.168E-01 0.000E+00

     total cpu time spent up to now is       97.4 secs

     total energy              =     118.96829670 Ry
     Harris-Foulkes estimate   =   -5714.89303238 Ry
     estimated scf accuracy    <      35.49060391 Ry

     iteration # 88     ecut=    30.00 Ry     beta=0.70
     Davidson diagonalization with overlap
     ethr =  1.00E-02,  avg # of iterations =  8.0

     negative rho (up, down):  4.763E-01 0.000E+00

     total cpu time spent up to now is       97.5 secs

     total energy              =      90.05345208 Ry
     Harris-Foulkes estimate   =    -414.51438659 Ry
     estimated scf accuracy    <      22.05511781 Ry

     iteration # 89     ecut=    30.00 Ry     beta=0.70
     Davidson diagonalization with overlap
     ethr =  1.00E-02,  avg # of iterations =  8.0

     negative rho (up, down):  4.824E-01 0.000E+00

     total cpu time spent up to now is       97.5 secs

     total energy              =      34.14381380 Ry
     Harris-Foulkes estimate   =    -946.54454756 Ry
     estimated scf accuracy    <      19.77704123 Ry

     iteration # 90     ecut=    30.00 Ry     beta=0.70
     Davidson diagonalization with overlap
     ethr =  1.00E-02,  avg # of iterations =  7.0

     negative rho (up, down):  3.727E-01 0.000E+00

     total cpu time spent up to now is       97.6 secs

     total energy              =      79.41645215 Ry
     Harris-Foulkes estimate   =   -1548.56145793 Ry
     estimated scf accuracy    <      17.65630381 Ry

     iteration # 91     ecut=    30.00 Ry     beta=0.70
     Davidson diagonalization with overlap
     ethr =  1.00E-02,  avg # of iterations =  5.0

     negative rho (up, down):  1.699E-01 0.000E+00

     total cpu time spent up to now is       97.6 secs

     total energy              =      28.71422658 Ry
     Harris-Foulkes estimate   =   -6698.26067483 Ry
     estimated scf accuracy    <      24.90359281 Ry

     iteration # 92     ecut=    30.00 Ry     beta=0.70
     Davidson diagonalization with overlap
     ethr =  1.00E-02,  avg # of iterations =  4.0

     negative rho (up, down):  3.541E-03 0.000E+00

     total cpu time spent up to now is       97.6 secs

     total energy              =     -54.49928713 Ry
     Harris-Foulkes estimate   =     -76.14393377 Ry
     estimated scf accuracy    <      59.51201684 Ry

     iteration # 93     ecut=    30.00 Ry     beta=0.70
     Davidson diagonalization with overlap
     ethr =  1.00E-02,  avg # of iterations =  5.0

     negative rho (up, down):  8.586E-03 0.000E+00

     total cpu time spent up to now is       97.7 secs

     total energy              =      -9.61072880 Ry
     Harris-Foulkes estimate   =    -150.44187320 Ry
     estimated scf accuracy    <      18.47257827 Ry

     iteration # 94     ecut=    30.00 Ry     beta=0.70
     Davidson diagonalization with overlap
     ethr =  1.00E-02,  avg # of iterations =  7.0

     negative rho (up, down):  7.348E-03 0.000E+00

     total cpu time spent up to now is       97.7 secs

     total energy              =      25.89395105 Ry
     Harris-Foulkes estimate   =    -803.97071711 Ry
     estimated scf accuracy    <      17.82761729 Ry

     iteration # 95     ecut=    30.00 Ry     beta=0.70
     Davidson diagonalization with overlap
     ethr =  1.00E-02,  avg # of iterations =  3.0

     negative rho (up, down):  1.722E-03 0.000E+00

     total cpu time spent up to now is       97.8 secs

     total energy              =      -7.75464967 Ry
     Harris-Foulkes estimate   =   -3390.22338581 Ry
     estimated scf accuracy    <      16.73019404 Ry

     iteration # 96     ecut=    30.00 Ry     beta=0.70
     Davidson diagonalization with overlap
     ethr =  1.00E-02,  avg # of iterations =  4.0

     negative rho (up, down):  5.014E-02 0.000E+00

     total cpu time spent up to now is       97.8 secs

     total energy              =     -45.17531763 Ry
     Harris-Foulkes estimate   =     -58.69712788 Ry
     estimated scf accuracy    <      38.04227453 Ry

     iteration # 97     ecut=    30.00 Ry     beta=0.70
     Davidson diagonalization with overlap
     ethr =  1.00E-02,  avg # of iterations =  6.0

     negative rho (up, down):  2.285E-02 0.000E+00

     total cpu time spent up to now is       97.9 secs

     total energy              =      34.94391149 Ry
     Harris-Foulkes estimate   =    -233.77414065 Ry
     estimated scf accuracy    <       9.09064081 Ry

     iteration # 98     ecut=    30.00 Ry     beta=0.70
     Davidson diagonalization with overlap
     ethr =  1.00E-02,  avg # of iterations =  6.0

     negative rho (up, down):  3.245E-03 0.000E+00

     total cpu time spent up to now is       97.9 secs

     total energy              =      64.23921377 Ry
     Harris-Foulkes estimate   =    -166.58027494 Ry
     estimated scf accuracy    <      17.90552920 Ry

     iteration # 99     ecut=    30.00 Ry     beta=0.70
     Davidson diagonalization with overlap
     ethr =  1.00E-02,  avg # of iterations =  7.0

     negative rho (up, down):  8.701E-03 0.000E+00

     total cpu time spent up to now is       98.0 secs

     total energy              =     -40.97258068 Ry
     Harris-Foulkes estimate   =     -43.51044312 Ry
     estimated scf accuracy    <      18.62079858 Ry

     iteration #100     ecut=    30.00 Ry     beta=0.70
     Davidson diagonalization with overlap
     ethr =  1.00E-02,  avg # of iterations =  1.0

     negative rho (up, down):  5.020E-02 0.000E+00

     total cpu time spent up to now is       98.0 secs

     total energy              =     -36.55432875 Ry
     Harris-Foulkes estimate   =     -40.97929575 Ry
     estimated scf accuracy    <      15.50242812 Ry

     End of self-consistent calculation

     convergence NOT achieved after 100 iterations: stopping

     Writing output data file pwscf.save
 
     init_run     :      0.09s CPU      0.11s WALL (       1 calls)
     electrons    :     56.23s CPU     75.37s WALL (      81 calls)
     update_pot   :     10.57s CPU     14.99s WALL (      80 calls)
     forces       :      2.10s CPU      2.17s WALL (      80 calls)

     Called by init_run:
     wfcinit      :      0.01s CPU      0.03s WALL (       1 calls)
     potinit      :      0.03s CPU      0.03s WALL (       1 calls)

     Called by electrons:
     c_bands      :     23.89s CPU     26.16s WALL (    1798 calls)
     sum_band     :      5.37s CPU      5.85s WALL (    1798 calls)
     v_of_rho     :     13.19s CPU     14.18s WALL (    1879 calls)
     mix_rho      :     10.94s CPU     19.77s WALL (    1798 calls)

     Called by c_bands:
     init_us_2    :      0.16s CPU      0.21s WALL (    3597 calls)
     cegterg      :     23.49s CPU     25.17s WALL (    1798 calls)

     Called by sum_band:

     Called by *egterg:
     h_psi        :     19.73s CPU     21.00s WALL (    7416 calls)
     g_psi        :      0.17s CPU      0.17s WALL (    5617 calls)
     cdiaghg      :      1.35s CPU      1.44s WALL (    7335 calls)

     Called by h_psi:
     h_psi:pot    :     19.62s CPU     20.88s WALL (    7416 calls)
     h_psi:calbec :      0.46s CPU      1.13s WALL (    7416 calls)
     vloc_psi     :     19.06s CPU     19.66s WALL (    7416 calls)
     add_vuspsi   :      0.06s CPU      0.06s WALL (    7416 calls)

     General routines
     calbec       :      1.13s CPU      2.08s WALL (    7815 calls)
     fft          :      9.02s CPU      9.65s WALL (   20829 calls)
     fftw         :     20.54s CPU     21.47s WALL (   90164 calls)
     davcio       :      1.82s CPU      7.45s WALL (   28764 calls)
 
     Parallel routines
     fft_scatter  :     11.87s CPU     12.79s WALL (  110993 calls)
 
     PWSCF        :  1m10.99s CPU     1m38.07s WALL

 
   This run was terminated on:   2:40:41  11Feb2018            

=------------------------------------------------------------------------------=
   JOB DONE.
=------------------------------------------------------------------------------=
