
     Program PWSCF v.6.0 (svn rev. 13079) starts on 11Feb2018 at  2:40:50 

     This program is part of the open-source Quantum ESPRESSO suite
     for quantum simulation of materials; please cite
         "P. Giannozzi et al., J. Phys.:Condens. Matter 21 395502 (2009);
          URL http://www.quantum-espresso.org", 
     in publications or presentations arising from this work. More details at
     http://www.quantum-espresso.org/quote

     Parallel version (MPI), running on    28 processors
     R & G space division:  proc/nbgrp/npool/nimage =      28
     Reading input from inputs/water-1-md/533.in

     Current dimensions of program PWSCF are:
     Max number of different atomic species (ntypx) = 10
     Max number of k-points (npk) =  40000
     Max angular momentum in pseudopotentials (lmaxx) =  3

     Subspace diagonalization in iterative solution of the eigenvalue problem:
     a serial algorithm will be used

 
     Parallelization info
     --------------------
     sticks:   dense  smooth     PW     G-vecs:    dense   smooth      PW
     Min         136     136     33                 6338     6338     787
     Max         137     137     34                 6341     6341     792
     Sum        3809    3809    949               177509   177509   22119
 


     bravais-lattice index     =            1
     lattice parameter (alat)  =      20.0000  a.u.
     unit-cell volume          =    8000.0000 (a.u.)^3
     number of atoms/cell      =            3
     number of atomic types    =            2
     number of electrons       =         8.00
     number of Kohn-Sham states=            8
     kinetic-energy cutoff     =      30.0000  Ry
     charge density cutoff     =     120.0000  Ry
     convergence threshold     =      1.0E-08
     mixing beta               =       0.7000
     number of iterations used =            8  plain     mixing
     Exchange-correlation      = BLYP ( 1  3  1  3 0 0)
     nstep                     =         5000


     celldm(1)=  20.000000  celldm(2)=   0.000000  celldm(3)=   0.000000
     celldm(4)=   0.000000  celldm(5)=   0.000000  celldm(6)=   0.000000

     crystal axes: (cart. coord. in units of alat)
               a(1) = (   1.000000   0.000000   0.000000 )  
               a(2) = (   0.000000   1.000000   0.000000 )  
               a(3) = (   0.000000   0.000000   1.000000 )  

     reciprocal axes: (cart. coord. in units 2 pi/alat)
               b(1) = (  1.000000  0.000000  0.000000 )  
               b(2) = (  0.000000  1.000000  0.000000 )  
               b(3) = (  0.000000  0.000000  1.000000 )  


     PseudoPot. # 1 for  H read from file:
     ./H.blyp-hgh.UPF
     MD5 check sum: c576e69559cde411e611be972c763230
     Pseudo is Norm-conserving, Zval =  1.0
     Generated in analytical, separable form
     Using radial grid of  929 points,  0 beta functions with: 

     PseudoPot. # 2 for  O read from file:
     ./O.blyp-hgh.UPF
     MD5 check sum: d0b7156309aa9befef28faac7bc56342
     Pseudo is Norm-conserving, Zval =  6.0
     Generated in analytical, separable form
     Using radial grid of 1095 points,  1 beta functions with: 
                l(1) =   0

     atomic species   valence    mass     pseudopotential
        H              1.00     1.01000      H( 1.00)
        O              6.00    16.00000      O( 1.00)

     No symmetry found



   Cartesian axes

     site n.     atom                  positions (alat units)
         1           H   tau(   1) = (   0.6220564   0.9027013   0.3126326  )
         2           H   tau(   2) = (   0.3104261   0.9878454   0.9798220  )
         3           O   tau(   3) = (   0.3556468   0.2999188   0.9284160  )

     number of k points=     1  Marzari-Vanderbilt smearing, width (Ry)=  0.0250
                       cart. coord. in units 2pi/alat
        k(    1) = (   0.0000000   0.0000000   0.0000000), wk =   2.0000000

     Dense  grid:   177509 G-vectors     FFT dimensions: (  72,  72,  72)

     Estimated max dynamical RAM per process >       6.09Mb

     Estimated total allocated dynamical RAM >     170.64Mb

     Initial potential from superposition of free atoms
     Check: negative starting charge=   -0.344345

     starting charge    7.99998, renormalised to    8.00000

     negative rho (up, down):  3.443E-01 0.000E+00
     Starting wfc are    6 randomized atomic wfcs +    2 random wfc

     total cpu time spent up to now is        0.2 secs

     per-process dynamical memory:    18.8 Mb

     Self-consistent Calculation

     iteration #  1     ecut=    30.00 Ry     beta=0.70
     Davidson diagonalization with overlap
     ethr =  1.00E-02,  avg # of iterations =  7.0

     negative rho (up, down):  8.463E-02 0.000E+00

     total cpu time spent up to now is        0.3 secs

     total energy              =     -28.31880085 Ry
     Harris-Foulkes estimate   =     -32.06860917 Ry
     estimated scf accuracy    <       4.31688106 Ry

     iteration #  2     ecut=    30.00 Ry     beta=0.70
     Davidson diagonalization with overlap
     ethr =  1.00E-02,  avg # of iterations =  4.0

     negative rho (up, down):  6.212E-02 0.000E+00

     total cpu time spent up to now is        0.3 secs

     total energy              =     -32.52108854 Ry
     Harris-Foulkes estimate   =     -37.52854985 Ry
     estimated scf accuracy    <      12.29795871 Ry

     iteration #  3     ecut=    30.00 Ry     beta=0.70
     Davidson diagonalization with overlap
     ethr =  1.00E-02,  avg # of iterations =  3.0

     negative rho (up, down):  6.457E-02 0.000E+00

     total cpu time spent up to now is        0.4 secs

     total energy              =     -33.09945076 Ry
     Harris-Foulkes estimate   =     -32.85589007 Ry
     estimated scf accuracy    <       4.69787041 Ry

     iteration #  4     ecut=    30.00 Ry     beta=0.70
     Davidson diagonalization with overlap
     ethr =  1.00E-02,  avg # of iterations =  1.0

     negative rho (up, down):  2.491E-02 0.000E+00

     total cpu time spent up to now is        0.4 secs

     total energy              =     -30.21833200 Ry
     Harris-Foulkes estimate   =     -33.10037457 Ry
     estimated scf accuracy    <       5.06585317 Ry

     iteration #  5     ecut=    30.00 Ry     beta=0.70
     Davidson diagonalization with overlap
     ethr =  1.00E-02,  avg # of iterations =  5.0

     negative rho (up, down):  1.971E-02 0.000E+00

     total cpu time spent up to now is        0.4 secs

     total energy              =     -33.22270671 Ry
     Harris-Foulkes estimate   =     -33.31931574 Ry
     estimated scf accuracy    <      13.56126964 Ry

     iteration #  6     ecut=    30.00 Ry     beta=0.70
     Davidson diagonalization with overlap
     ethr =  1.00E-02,  avg # of iterations =  1.0

     negative rho (up, down):  5.504E-02 0.000E+00

     total cpu time spent up to now is        0.5 secs

     total energy              =     -32.39498107 Ry
     Harris-Foulkes estimate   =     -33.22674002 Ry
     estimated scf accuracy    <      13.08539453 Ry

     iteration #  7     ecut=    30.00 Ry     beta=0.70
     Davidson diagonalization with overlap
     ethr =  1.00E-02,  avg # of iterations =  2.0

     negative rho (up, down):  3.771E-03 0.000E+00

     total cpu time spent up to now is        0.5 secs

     total energy              =     -32.61466529 Ry
     Harris-Foulkes estimate   =     -32.64184842 Ry
     estimated scf accuracy    <       5.45306049 Ry

     iteration #  8     ecut=    30.00 Ry     beta=0.70
     Davidson diagonalization with overlap
     ethr =  1.00E-02,  avg # of iterations =  1.0

     negative rho (up, down):  5.115E-02 0.000E+00

     total cpu time spent up to now is        0.5 secs

     total energy              =     -31.99459208 Ry
     Harris-Foulkes estimate   =     -32.61617565 Ry
     estimated scf accuracy    <       5.36642693 Ry

     iteration #  9     ecut=    30.00 Ry     beta=0.70
     Davidson diagonalization with overlap
     ethr =  1.00E-02,  avg # of iterations =  1.0

     negative rho (up, down):  9.615E-02 0.000E+00

     total cpu time spent up to now is        0.6 secs

     total energy              =     -31.47742202 Ry
     Harris-Foulkes estimate   =     -32.00697828 Ry
     estimated scf accuracy    <       4.28416798 Ry

     iteration # 10     ecut=    30.00 Ry     beta=0.70
     Davidson diagonalization with overlap
     ethr =  1.00E-02,  avg # of iterations =  1.0

     negative rho (up, down):  8.919E-02 0.000E+00

     total cpu time spent up to now is        0.6 secs

     total energy              =     -31.55516260 Ry
     Harris-Foulkes estimate   =     -31.51131490 Ry
     estimated scf accuracy    <       1.06984170 Ry

     iteration # 11     ecut=    30.00 Ry     beta=0.70
     Davidson diagonalization with overlap
     ethr =  1.00E-02,  avg # of iterations =  1.0

     negative rho (up, down):  1.295E-01 0.000E+00

     total cpu time spent up to now is        0.6 secs

     total energy              =     -31.56733445 Ry
     Harris-Foulkes estimate   =     -31.59563396 Ry
     estimated scf accuracy    <       3.51069604 Ry

     iteration # 12     ecut=    30.00 Ry     beta=0.70
     Davidson diagonalization with overlap
     ethr =  1.00E-02,  avg # of iterations =  1.0

     negative rho (up, down):  1.585E-01 0.000E+00

     total cpu time spent up to now is        0.7 secs

     total energy              =     -31.29309635 Ry
     Harris-Foulkes estimate   =     -31.56850246 Ry
     estimated scf accuracy    <       3.05606419 Ry

     iteration # 13     ecut=    30.00 Ry     beta=0.70
     Davidson diagonalization with overlap
     ethr =  1.00E-02,  avg # of iterations =  1.0

     negative rho (up, down):  6.392E-02 0.000E+00

     total cpu time spent up to now is        0.7 secs

     total energy              =     -31.56087980 Ry
     Harris-Foulkes estimate   =     -31.62317807 Ry
     estimated scf accuracy    <       2.52214554 Ry

     iteration # 14     ecut=    30.00 Ry     beta=0.70
     Davidson diagonalization with overlap
     ethr =  1.00E-02,  avg # of iterations =  1.0

     negative rho (up, down):  6.415E-02 0.000E+00

     total cpu time spent up to now is        0.7 secs

     total energy              =     -31.63426041 Ry
     Harris-Foulkes estimate   =     -31.56340747 Ry
     estimated scf accuracy    <       2.35740390 Ry

     iteration # 15     ecut=    30.00 Ry     beta=0.70
     Davidson diagonalization with overlap
     ethr =  1.00E-02,  avg # of iterations =  1.0

     negative rho (up, down):  9.990E-03 0.000E+00

     total cpu time spent up to now is        0.8 secs

     total energy              =     -31.36742228 Ry
     Harris-Foulkes estimate   =     -31.63585375 Ry
     estimated scf accuracy    <       2.61967936 Ry

     iteration # 16     ecut=    30.00 Ry     beta=0.70
     Davidson diagonalization with overlap
     ethr =  1.00E-02,  avg # of iterations =  1.0

     negative rho (up, down):  3.851E-03 0.000E+00

     total cpu time spent up to now is        0.8 secs

     total energy              =     -31.43202897 Ry
     Harris-Foulkes estimate   =     -31.58906316 Ry
     estimated scf accuracy    <       3.63409367 Ry

     iteration # 17     ecut=    30.00 Ry     beta=0.70
     Davidson diagonalization with overlap
     ethr =  1.00E-02,  avg # of iterations =  1.0

     negative rho (up, down):  1.092E-03 0.000E+00

     total cpu time spent up to now is        0.8 secs

     total energy              =     -31.49089121 Ry
     Harris-Foulkes estimate   =     -31.51130960 Ry
     estimated scf accuracy    <       0.54690791 Ry

     iteration # 18     ecut=    30.00 Ry     beta=0.70
     Davidson diagonalization with overlap
     ethr =  6.84E-03,  avg # of iterations =  1.0

     negative rho (up, down):  1.203E-03 0.000E+00

     total cpu time spent up to now is        0.9 secs

     total energy              =     -31.50564072 Ry
     Harris-Foulkes estimate   =     -31.50880891 Ry
     estimated scf accuracy    <       0.48350335 Ry

     iteration # 19     ecut=    30.00 Ry     beta=0.70
     Davidson diagonalization with overlap
     ethr =  6.04E-03,  avg # of iterations =  1.0

     negative rho (up, down):  1.122E-03 0.000E+00

     total cpu time spent up to now is        0.9 secs

     total energy              =     -31.50639091 Ry
     Harris-Foulkes estimate   =     -31.50631027 Ry
     estimated scf accuracy    <       0.23779503 Ry

     iteration # 20     ecut=    30.00 Ry     beta=0.70
     Davidson diagonalization with overlap
     ethr =  2.97E-03,  avg # of iterations =  1.0

     negative rho (up, down):  1.218E-03 0.000E+00

     total cpu time spent up to now is        0.9 secs

     total energy              =     -31.50247490 Ry
     Harris-Foulkes estimate   =     -31.50639313 Ry
     estimated scf accuracy    <       0.24749474 Ry

     iteration # 21     ecut=    30.00 Ry     beta=0.70
     Davidson diagonalization with overlap
     ethr =  2.97E-03,  avg # of iterations =  1.0

     negative rho (up, down):  8.408E-04 0.000E+00

     total cpu time spent up to now is        1.0 secs

     total energy              =     -31.50924331 Ry
     Harris-Foulkes estimate   =     -31.50584931 Ry
     estimated scf accuracy    <       0.13141107 Ry

     iteration # 22     ecut=    30.00 Ry     beta=0.70
     Davidson diagonalization with overlap
     ethr =  1.64E-03,  avg # of iterations =  1.0

     negative rho (up, down):  1.777E-03 0.000E+00

     total cpu time spent up to now is        1.0 secs

     total energy              =     -31.49463507 Ry
     Harris-Foulkes estimate   =     -31.51408952 Ry
     estimated scf accuracy    <       0.72704886 Ry

     iteration # 23     ecut=    30.00 Ry     beta=0.70
     Davidson diagonalization with overlap
     ethr =  1.64E-03,  avg # of iterations =  1.0

     negative rho (up, down):  1.040E-03 0.000E+00

     total cpu time spent up to now is        1.0 secs

     total energy              =     -31.50601393 Ry
     Harris-Foulkes estimate   =     -31.50476502 Ry
     estimated scf accuracy    <       0.10532348 Ry

     iteration # 24     ecut=    30.00 Ry     beta=0.70
     Davidson diagonalization with overlap
     ethr =  1.32E-03,  avg # of iterations =  1.0

     negative rho (up, down):  8.429E-04 0.000E+00

     total cpu time spent up to now is        1.1 secs

     total energy              =     -31.50753527 Ry
     Harris-Foulkes estimate   =     -31.50970036 Ry
     estimated scf accuracy    <       0.62558765 Ry

     iteration # 25     ecut=    30.00 Ry     beta=0.70
     Davidson diagonalization with overlap
     ethr =  1.32E-03,  avg # of iterations =  1.0

     negative rho (up, down):  4.403E-04 0.000E+00

     total cpu time spent up to now is        1.1 secs

     total energy              =     -31.49733194 Ry
     Harris-Foulkes estimate   =     -31.50769998 Ry
     estimated scf accuracy    <       0.44823560 Ry

     iteration # 26     ecut=    30.00 Ry     beta=0.70
     Davidson diagonalization with overlap
     ethr =  1.32E-03,  avg # of iterations =  1.0

     negative rho (up, down):  3.826E-05 0.000E+00

     total cpu time spent up to now is        1.1 secs

     total energy              =     -31.50194471 Ry
     Harris-Foulkes estimate   =     -31.50309149 Ry
     estimated scf accuracy    <       0.02662251 Ry

     iteration # 27     ecut=    30.00 Ry     beta=0.70
     Davidson diagonalization with overlap
     ethr =  3.33E-04,  avg # of iterations =  1.0

     negative rho (up, down):  4.740E-05 0.000E+00

     total cpu time spent up to now is        1.2 secs

     total energy              =     -31.50251071 Ry
     Harris-Foulkes estimate   =     -31.50268302 Ry
     estimated scf accuracy    <       0.00224391 Ry

     iteration # 28     ecut=    30.00 Ry     beta=0.70
     Davidson diagonalization with overlap
     ethr =  2.80E-05,  avg # of iterations =  7.0

     total cpu time spent up to now is        1.2 secs

     total energy              =     -31.50258107 Ry
     Harris-Foulkes estimate   =     -31.50266365 Ry
     estimated scf accuracy    <       0.00199741 Ry

     iteration # 29     ecut=    30.00 Ry     beta=0.70
     Davidson diagonalization with overlap
     ethr =  2.50E-05,  avg # of iterations =  1.0

     negative rho (up, down):  1.744E-08 0.000E+00

     total cpu time spent up to now is        1.2 secs

     total energy              =     -31.50262686 Ry
     Harris-Foulkes estimate   =     -31.50263182 Ry
     estimated scf accuracy    <       0.00012445 Ry

     iteration # 30     ecut=    30.00 Ry     beta=0.70
     Davidson diagonalization with overlap
     ethr =  1.56E-06,  avg # of iterations = 15.0

     total cpu time spent up to now is        1.3 secs

     total energy              =     -31.50262948 Ry
     Harris-Foulkes estimate   =     -31.50262951 Ry
     estimated scf accuracy    <       0.00000324 Ry

     iteration # 31     ecut=    30.00 Ry     beta=0.70
     Davidson diagonalization with overlap
     ethr =  4.05E-08,  avg # of iterations =  1.0

     total cpu time spent up to now is        1.3 secs

     total energy              =     -31.50262936 Ry
     Harris-Foulkes estimate   =     -31.50262949 Ry
     estimated scf accuracy    <       0.00000300 Ry

     iteration # 32     ecut=    30.00 Ry     beta=0.70
     Davidson diagonalization with overlap
     ethr =  3.75E-08,  avg # of iterations =  1.0

     total cpu time spent up to now is        1.3 secs

     total energy              =     -31.50262939 Ry
     Harris-Foulkes estimate   =     -31.50262940 Ry
     estimated scf accuracy    <       0.00000001 Ry

     iteration # 33     ecut=    30.00 Ry     beta=0.70
     Davidson diagonalization with overlap
     ethr =  1.69E-10,  avg # of iterations =  1.0

     total cpu time spent up to now is        1.4 secs

     End of self-consistent calculation

          k = 0.0000 0.0000 0.0000 ( 22119 PWs)   bands (ev):

   -23.6446  -7.2048  -7.0495  -7.0490  -6.9458  -6.7803  -0.1868   0.6918

     the Fermi energy is    -6.9146 ev

!    total energy              =     -31.50262934 Ry
     Harris-Foulkes estimate   =     -31.50262939 Ry
     estimated scf accuracy    <          5.4E-10 Ry

     convergence has been achieved in  33 iterations

     Forces acting on atoms (Ry/au):

     atom    1 type  1   force =     0.00014571    0.00022159    0.00015560
     atom    2 type  1   force =     0.00228349    0.01476160   -0.00206505
     atom    3 type  2   force =    -0.00242920   -0.01498319    0.00190945

     Total force =     0.021483     Total SCF correction =     0.000027

     Molecular Dynamics Calculation

     Starting temperature  =  1000.00 K

     temperature is controlled by Andersen thermostat
     Collision frequency = 1.0000/timestep
     mass H                =     1.01
     mass O                =    16.00
     Time step             =   100.00 a.u.,  4.8378 femto-seconds

     Entering Dynamics:    iteration =     1
                           time      =   0.0048 pico-seconds


     Andersen thermostat:    3 collisions

ATOMIC_POSITIONS (bohr)
H       12.448433135  17.893745128   6.152849361
H        6.310026656  19.587880066  19.857049953
O        7.106067382   6.019163618  18.558169038


     kinetic energy (Ekin) =     0.00889515 Ry
     temperature           =   468.14369774 K 
     Ekin + Etot (const)   =   -31.49373419 Ry

     Linear momentum :   -0.0000000000    0.0000000000    0.0000000000

     Writing output data file pwscf.save
     Check: negative starting charge=   -0.344345
     NEW-OLD atomic charge density approx. for the potential
     Check: negative starting charge=   -0.344913

     negative rho (up, down):  4.343E-02 0.000E+00

     total cpu time spent up to now is        1.6 secs

     per-process dynamical memory:    20.4 Mb

     Self-consistent Calculation

     iteration #  1     ecut=    30.00 Ry     beta=0.70
     Davidson diagonalization with overlap
     c_bands:  1 eigenvalues not converged
     ethr =  1.00E-06,  avg # of iterations = 20.0

     negative rho (up, down):  9.761E-03 0.000E+00

     total cpu time spent up to now is        1.7 secs

     total energy              =     -31.48635754 Ry
     Harris-Foulkes estimate   =     -31.45872751 Ry
     estimated scf accuracy    <       0.00535868 Ry

     iteration #  2     ecut=    30.00 Ry     beta=0.70
     Davidson diagonalization with overlap
     ethr =  6.70E-05,  avg # of iterations =  3.0

     negative rho (up, down):  9.461E-03 0.000E+00

     total cpu time spent up to now is        1.8 secs

     total energy              =     -31.46253705 Ry
     Harris-Foulkes estimate   =     -31.61467968 Ry
     estimated scf accuracy    <       3.64648461 Ry

     iteration #  3     ecut=    30.00 Ry     beta=0.70
     Davidson diagonalization with overlap
     ethr =  6.70E-05,  avg # of iterations =  2.0

     negative rho (up, down):  6.843E-03 0.000E+00

     total cpu time spent up to now is        1.8 secs

     total energy              =     -31.49293013 Ry
     Harris-Foulkes estimate   =     -31.49082013 Ry
     estimated scf accuracy    <       0.01489201 Ry

     iteration #  4     ecut=    30.00 Ry     beta=0.70
     Davidson diagonalization with overlap
     ethr =  6.70E-05,  avg # of iterations =  1.0

     negative rho (up, down):  1.480E-03 0.000E+00

     total cpu time spent up to now is        1.8 secs

     total energy              =     -31.49678563 Ry
     Harris-Foulkes estimate   =     -31.49540786 Ry
     estimated scf accuracy    <       0.10354158 Ry

     iteration #  5     ecut=    30.00 Ry     beta=0.70
     Davidson diagonalization with overlap
     ethr =  6.70E-05,  avg # of iterations =  9.0

     negative rho (up, down):  5.499E-04 0.000E+00

     total cpu time spent up to now is        1.9 secs

     total energy              =     -31.49939990 Ry
     Harris-Foulkes estimate   =     -31.49935576 Ry
     estimated scf accuracy    <       0.02023859 Ry

     iteration #  6     ecut=    30.00 Ry     beta=0.70
     Davidson diagonalization with overlap
     ethr =  6.70E-05,  avg # of iterations =  3.0

     negative rho (up, down):  3.151E-06 0.000E+00

     total cpu time spent up to now is        1.9 secs

     total energy              =     -31.49969721 Ry
     Harris-Foulkes estimate   =     -31.49967768 Ry
     estimated scf accuracy    <       0.00048137 Ry

     iteration #  7     ecut=    30.00 Ry     beta=0.70
     Davidson diagonalization with overlap
     ethr =  6.02E-06,  avg # of iterations = 15.0

     negative rho (up, down):  4.514E-07 0.000E+00

     total cpu time spent up to now is        2.0 secs

     total energy              =     -31.49966654 Ry
     Harris-Foulkes estimate   =     -31.49970768 Ry
     estimated scf accuracy    <       0.00230686 Ry

     iteration #  8     ecut=    30.00 Ry     beta=0.70
     Davidson diagonalization with overlap
     ethr =  6.02E-06,  avg # of iterations =  1.0

     total cpu time spent up to now is        2.0 secs

     total energy              =     -31.49968217 Ry
     Harris-Foulkes estimate   =     -31.49968476 Ry
     estimated scf accuracy    <       0.00002849 Ry

     iteration #  9     ecut=    30.00 Ry     beta=0.70
     Davidson diagonalization with overlap
     ethr =  3.56E-07,  avg # of iterations =  1.0

     total cpu time spent up to now is        2.0 secs

     total energy              =     -31.49968130 Ry
     Harris-Foulkes estimate   =     -31.49968226 Ry
     estimated scf accuracy    <       0.00002859 Ry

     iteration # 10     ecut=    30.00 Ry     beta=0.70
     Davidson diagonalization with overlap
     ethr =  3.56E-07,  avg # of iterations =  1.0

     total cpu time spent up to now is        2.1 secs

     total energy              =     -31.49968138 Ry
     Harris-Foulkes estimate   =     -31.49968145 Ry
     estimated scf accuracy    <       0.00000281 Ry

     iteration # 11     ecut=    30.00 Ry     beta=0.70
     Davidson diagonalization with overlap
     ethr =  3.51E-08,  avg # of iterations =  1.0

     total cpu time spent up to now is        2.1 secs

     End of self-consistent calculation

          k = 0.0000 0.0000 0.0000 ( 22119 PWs)   bands (ev):

   -23.6445  -7.1796  -7.0510  -7.0506  -6.9488  -6.8088  -0.1902   0.6932

     the Fermi energy is    -6.9163 ev

!    total energy              =     -31.49968123 Ry
     Harris-Foulkes estimate   =     -31.49968141 Ry
     estimated scf accuracy    <          2.3E-09 Ry

     convergence has been achieved in  11 iterations

     Forces acting on atoms (Ry/au):

     atom    1 type  1   force =     0.00000405    0.00035956    0.00007020
     atom    2 type  1   force =     0.00171508    0.01271524   -0.00202062
     atom    3 type  2   force =    -0.00171913   -0.01307480    0.00195042

     Total force =     0.018616     Total SCF correction =     0.000187

     Entering Dynamics:    iteration =     2
                           time      =   0.0097 pico-seconds


     Andersen thermostat:    3 collisions

ATOMIC_POSITIONS (bohr)
H       12.094161768  17.946954479   6.712426349
H        6.397921913  20.194500764  19.848435865
O        7.122882374   5.977511847  18.523389505


     kinetic energy (Ekin) =     0.04058618 Ry
     temperature           =  2136.01463249 K 
     Ekin + Etot (const)   =   -31.45909505 Ry
     Message from routine dynamics:
     Total linear momentum <> 0

     Linear momentum :    0.1256371056    0.5979656113   -0.0393602054

     Writing output data file pwscf.save

     first order wave-functions extrapolation
     Check: negative starting charge=   -0.344913
     first order charge density extrapolation
     Check: negative starting charge=   -0.345097

     negative rho (up, down):  1.396E-01 0.000E+00

     total cpu time spent up to now is        2.4 secs

     per-process dynamical memory:    20.4 Mb

     Self-consistent Calculation

     iteration #  1     ecut=    30.00 Ry     beta=0.70
     Davidson diagonalization with overlap
     ethr =  1.00E-06,  avg # of iterations = 13.0

     negative rho (up, down):  3.190E-02 0.000E+00

     total cpu time spent up to now is        2.5 secs

     total energy              =      -7.47390141 Ry
     Harris-Foulkes estimate   =     -46.59726962 Ry
     estimated scf accuracy    <       7.33678402 Ry

     iteration #  2     ecut=    30.00 Ry     beta=0.70
     Davidson diagonalization with overlap
     ethr =  1.00E-02,  avg # of iterations =  4.0

     negative rho (up, down):  2.207E-02 0.000E+00

     total cpu time spent up to now is        2.5 secs

     total energy              =     -32.51885620 Ry
     Harris-Foulkes estimate   =     -38.39432829 Ry
     estimated scf accuracy    <      12.90790221 Ry

     iteration #  3     ecut=    30.00 Ry     beta=0.70
     Davidson diagonalization with overlap
     ethr =  1.00E-02,  avg # of iterations =  2.0

     negative rho (up, down):  1.476E-02 0.000E+00

     total cpu time spent up to now is        2.6 secs

     total energy              =     -31.45047422 Ry
     Harris-Foulkes estimate   =     -32.94451782 Ry
     estimated scf accuracy    <       4.24862750 Ry

     iteration #  4     ecut=    30.00 Ry     beta=0.70
     Davidson diagonalization with overlap
     ethr =  1.00E-02,  avg # of iterations =  5.0

     negative rho (up, down):  1.225E-02 0.000E+00

     total cpu time spent up to now is        2.6 secs

     total energy              =     -31.01362170 Ry
     Harris-Foulkes estimate   =     -32.13015247 Ry
     estimated scf accuracy    <       4.95407335 Ry

     iteration #  5     ecut=    30.00 Ry     beta=0.70
     Davidson diagonalization with overlap
     ethr =  1.00E-02,  avg # of iterations =  1.0

     negative rho (up, down):  1.808E-03 0.000E+00

     total cpu time spent up to now is        2.6 secs

     total energy              =     -30.98624485 Ry
     Harris-Foulkes estimate   =     -32.34401220 Ry
     estimated scf accuracy    <       3.66601386 Ry

     iteration #  6     ecut=    30.00 Ry     beta=0.70
     Davidson diagonalization with overlap
     ethr =  1.00E-02,  avg # of iterations =  2.0

     negative rho (up, down):  3.598E-03 0.000E+00

     total cpu time spent up to now is        2.7 secs

     total energy              =     -31.71675416 Ry
     Harris-Foulkes estimate   =     -32.06403004 Ry
     estimated scf accuracy    <       4.31931584 Ry

     iteration #  7     ecut=    30.00 Ry     beta=0.70
     Davidson diagonalization with overlap
     ethr =  1.00E-02,  avg # of iterations =  1.0

     negative rho (up, down):  3.821E-03 0.000E+00

     total cpu time spent up to now is        2.7 secs

     total energy              =     -31.67459133 Ry
     Harris-Foulkes estimate   =     -31.72328837 Ry
     estimated scf accuracy    <       3.76189829 Ry

     iteration #  8     ecut=    30.00 Ry     beta=0.70
     Davidson diagonalization with overlap
     ethr =  1.00E-02,  avg # of iterations =  1.0

     negative rho (up, down):  3.851E-03 0.000E+00

     total cpu time spent up to now is        2.7 secs

     total energy              =     -31.68269038 Ry
     Harris-Foulkes estimate   =     -31.67487040 Ry
     estimated scf accuracy    <       3.73966031 Ry

     iteration #  9     ecut=    30.00 Ry     beta=0.70
     Davidson diagonalization with overlap
     ethr =  1.00E-02,  avg # of iterations =  1.0

     negative rho (up, down):  3.396E-03 0.000E+00

     total cpu time spent up to now is        2.8 secs

     total energy              =     -31.77564122 Ry
     Harris-Foulkes estimate   =     -31.68273433 Ry
     estimated scf accuracy    <       3.74218034 Ry

     iteration # 10     ecut=    30.00 Ry     beta=0.70
     Davidson diagonalization with overlap
     ethr =  1.00E-02,  avg # of iterations =  1.0

     negative rho (up, down):  2.646E-06 0.000E+00

     total cpu time spent up to now is        2.8 secs

     total energy              =     -32.86587165 Ry
     Harris-Foulkes estimate   =     -31.77566434 Ry
     estimated scf accuracy    <       3.87397220 Ry

     iteration # 11     ecut=    30.00 Ry     beta=0.70
     Davidson diagonalization with overlap
     ethr =  1.00E-02,  avg # of iterations =  2.0

     negative rho (up, down):  2.949E-02 0.000E+00

     total cpu time spent up to now is        2.8 secs

     total energy              =     -30.91289113 Ry
     Harris-Foulkes estimate   =     -32.91388102 Ry
     estimated scf accuracy    <       5.79070661 Ry

     iteration # 12     ecut=    30.00 Ry     beta=0.70
     Davidson diagonalization with overlap
     ethr =  1.00E-02,  avg # of iterations =  2.0

     negative rho (up, down):  5.008E-02 0.000E+00

     total cpu time spent up to now is        2.9 secs

     total energy              =     -31.99181616 Ry
     Harris-Foulkes estimate   =     -32.03422889 Ry
     estimated scf accuracy    <       2.24323663 Ry

     iteration # 13     ecut=    30.00 Ry     beta=0.70
     Davidson diagonalization with overlap
     ethr =  1.00E-02,  avg # of iterations =  1.0

     negative rho (up, down):  5.349E-02 0.000E+00

     total cpu time spent up to now is        2.9 secs

     total energy              =     -33.05670907 Ry
     Harris-Foulkes estimate   =     -32.17494505 Ry
     estimated scf accuracy    <       2.01603024 Ry

     iteration # 14     ecut=    30.00 Ry     beta=0.70
     Davidson diagonalization with overlap
     ethr =  1.00E-02,  avg # of iterations =  3.0

     negative rho (up, down):  3.524E-02 0.000E+00

     total cpu time spent up to now is        3.0 secs

     total energy              =      22.04791095 Ry
     Harris-Foulkes estimate   =     -38.01640912 Ry
     estimated scf accuracy    <       8.80480981 Ry

     iteration # 15     ecut=    30.00 Ry     beta=0.70
     Davidson diagonalization with overlap
     ethr =  1.00E-02,  avg # of iterations =  4.0

     negative rho (up, down):  6.403E-03 0.000E+00

     total cpu time spent up to now is        3.0 secs

     total energy              =     -33.99652149 Ry
     Harris-Foulkes estimate   =     -33.17731556 Ry
     estimated scf accuracy    <       3.77487329 Ry

     iteration # 16     ecut=    30.00 Ry     beta=0.70
     Davidson diagonalization with overlap
     ethr =  1.00E-02,  avg # of iterations =  4.0

     negative rho (up, down):  2.984E-03 0.000E+00

     total cpu time spent up to now is        3.0 secs

     total energy              =     282.90142311 Ry
     Harris-Foulkes estimate   =     -59.07884223 Ry
     estimated scf accuracy    <      10.49220676 Ry

     iteration # 17     ecut=    30.00 Ry     beta=0.70
     Davidson diagonalization with overlap
     ethr =  1.00E-02,  avg # of iterations =  4.0

     negative rho (up, down):  1.935E-05 0.000E+00

     total cpu time spent up to now is        3.1 secs

     total energy              =     -31.09040140 Ry
     Harris-Foulkes estimate   =     -32.26708421 Ry
     estimated scf accuracy    <       5.53735499 Ry

     iteration # 18     ecut=    30.00 Ry     beta=0.70
     Davidson diagonalization with overlap
     ethr =  1.00E-02,  avg # of iterations =  3.0

     negative rho (up, down):  2.907E-04 0.000E+00

     total cpu time spent up to now is        3.1 secs

     total energy              =     -31.14972318 Ry
     Harris-Foulkes estimate   =     -31.79454654 Ry
     estimated scf accuracy    <       3.91792402 Ry

     iteration # 19     ecut=    30.00 Ry     beta=0.70
     Davidson diagonalization with overlap
     ethr =  1.00E-02,  avg # of iterations =  1.0

     negative rho (up, down):  4.383E-06 0.000E+00

     total cpu time spent up to now is        3.1 secs

     total energy              =     -31.45265728 Ry
     Harris-Foulkes estimate   =     -31.77380484 Ry
     estimated scf accuracy    <       2.28152799 Ry

     iteration # 20     ecut=    30.00 Ry     beta=0.70
     Davidson diagonalization with overlap
     ethr =  1.00E-02,  avg # of iterations =  1.0

     negative rho (up, down):  8.713E-06 0.000E+00

     total cpu time spent up to now is        3.2 secs

     total energy              =     -31.58240236 Ry
     Harris-Foulkes estimate   =     -31.58563840 Ry
     estimated scf accuracy    <       1.02284935 Ry

     iteration # 21     ecut=    30.00 Ry     beta=0.70
     Davidson diagonalization with overlap
     ethr =  1.00E-02,  avg # of iterations =  1.0

     negative rho (up, down):  2.311E-06 0.000E+00

     total cpu time spent up to now is        3.2 secs

     total energy              =     -31.63465253 Ry
     Harris-Foulkes estimate   =     -31.58360363 Ry
     estimated scf accuracy    <       1.02305624 Ry

     iteration # 22     ecut=    30.00 Ry     beta=0.70
     Davidson diagonalization with overlap
     ethr =  1.00E-02,  avg # of iterations =  1.0

     negative rho (up, down):  3.848E-06 0.000E+00

     total cpu time spent up to now is        3.2 secs

     total energy              =     -31.67147801 Ry
     Harris-Foulkes estimate   =     -31.63507265 Ry
     estimated scf accuracy    <       1.10364726 Ry

     iteration # 23     ecut=    30.00 Ry     beta=0.70
     Davidson diagonalization with overlap
     ethr =  1.00E-02,  avg # of iterations =  1.0

     negative rho (up, down):  9.557E-06 0.000E+00

     total cpu time spent up to now is        3.3 secs

     total energy              =     -31.49917842 Ry
     Harris-Foulkes estimate   =     -31.67453253 Ry
     estimated scf accuracy    <       0.97120781 Ry

     iteration # 24     ecut=    30.00 Ry     beta=0.70
     Davidson diagonalization with overlap
     ethr =  1.00E-02,  avg # of iterations =  1.0

     negative rho (up, down):  1.386E-05 0.000E+00

     total cpu time spent up to now is        3.3 secs

     total energy              =     -31.89551964 Ry
     Harris-Foulkes estimate   =     -31.85994803 Ry
     estimated scf accuracy    <       3.99064741 Ry

     iteration # 25     ecut=    30.00 Ry     beta=0.70
     Davidson diagonalization with overlap
     ethr =  1.00E-02,  avg # of iterations =  1.0

     negative rho (up, down):  3.224E-03 0.000E+00

     total cpu time spent up to now is        3.3 secs

     total energy              =     -32.46691394 Ry
     Harris-Foulkes estimate   =     -31.89618615 Ry
     estimated scf accuracy    <       4.06583552 Ry

     iteration # 26     ecut=    30.00 Ry     beta=0.70
     Davidson diagonalization with overlap
     ethr =  1.00E-02,  avg # of iterations =  1.0

     negative rho (up, down):  9.773E-04 0.000E+00

     total cpu time spent up to now is        3.4 secs

     total energy              =     -31.93266589 Ry
     Harris-Foulkes estimate   =     -32.48247475 Ry
     estimated scf accuracy    <       5.14687383 Ry

     iteration # 27     ecut=    30.00 Ry     beta=0.70
     Davidson diagonalization with overlap
     ethr =  1.00E-02,  avg # of iterations =  1.0

     negative rho (up, down):  5.467E-04 0.000E+00

     total cpu time spent up to now is        3.4 secs

     total energy              =     -31.77164184 Ry
     Harris-Foulkes estimate   =     -31.94534188 Ry
     estimated scf accuracy    <       4.14786013 Ry

     iteration # 28     ecut=    30.00 Ry     beta=0.70
     Davidson diagonalization with overlap
     ethr =  1.00E-02,  avg # of iterations =  1.0

     negative rho (up, down):  2.205E-04 0.000E+00

     total cpu time spent up to now is        3.4 secs

     total energy              =     -30.60389161 Ry
     Harris-Foulkes estimate   =     -31.77800552 Ry
     estimated scf accuracy    <       3.55443909 Ry

     iteration # 29     ecut=    30.00 Ry     beta=0.70
     Davidson diagonalization with overlap
     ethr =  1.00E-02,  avg # of iterations =  2.0

     negative rho (up, down):  2.819E-05 0.000E+00

     total cpu time spent up to now is        3.5 secs

     total energy              =     -32.04790801 Ry
     Harris-Foulkes estimate   =     -32.42959552 Ry
     estimated scf accuracy    <       4.10946070 Ry

     iteration # 30     ecut=    30.00 Ry     beta=0.70
     Davidson diagonalization with overlap
     ethr =  1.00E-02,  avg # of iterations =  1.0

     negative rho (up, down):  2.090E-06 0.000E+00

     total cpu time spent up to now is        3.5 secs

     total energy              =     -31.65860723 Ry
     Harris-Foulkes estimate   =     -32.05428331 Ry
     estimated scf accuracy    <       3.43302164 Ry

     iteration # 31     ecut=    30.00 Ry     beta=0.70
     Davidson diagonalization with overlap
     ethr =  1.00E-02,  avg # of iterations =  1.0

     negative rho (up, down):  1.978E-06 0.000E+00

     total cpu time spent up to now is        3.6 secs

     total energy              =     -31.70753960 Ry
     Harris-Foulkes estimate   =     -31.66749125 Ry
     estimated scf accuracy    <       2.66047972 Ry

     iteration # 32     ecut=    30.00 Ry     beta=0.70
     Davidson diagonalization with overlap
     ethr =  1.00E-02,  avg # of iterations =  1.0

     negative rho (up, down):  7.148E-06 0.000E+00

     total cpu time spent up to now is        3.6 secs

     total energy              =     -31.60008989 Ry
     Harris-Foulkes estimate   =     -31.70780574 Ry
     estimated scf accuracy    <       2.74234855 Ry

     iteration # 33     ecut=    30.00 Ry     beta=0.70
     Davidson diagonalization with overlap
     ethr =  1.00E-02,  avg # of iterations =  1.0

     negative rho (up, down):  4.132E-06 0.000E+00

     total cpu time spent up to now is        3.6 secs

     total energy              =     -31.62643361 Ry
     Harris-Foulkes estimate   =     -31.60225061 Ry
     estimated scf accuracy    <       2.40695663 Ry

     iteration # 34     ecut=    30.00 Ry     beta=0.70
     Davidson diagonalization with overlap
     ethr =  1.00E-02,  avg # of iterations =  1.0

     negative rho (up, down):  2.970E-06 0.000E+00

     total cpu time spent up to now is        3.7 secs

     total energy              =     -31.68911575 Ry
     Harris-Foulkes estimate   =     -31.62667802 Ry
     estimated scf accuracy    <       2.49739279 Ry

     iteration # 35     ecut=    30.00 Ry     beta=0.70
     Davidson diagonalization with overlap
     ethr =  1.00E-02,  avg # of iterations =  1.0

     negative rho (up, down):  4.677E-07 0.000E+00

     total cpu time spent up to now is        3.7 secs

     total energy              =     -31.59872075 Ry
     Harris-Foulkes estimate   =     -31.68953774 Ry
     estimated scf accuracy    <       2.64505986 Ry

     iteration # 36     ecut=    30.00 Ry     beta=0.70
     Davidson diagonalization with overlap
     ethr =  1.00E-02,  avg # of iterations =  1.0

     negative rho (up, down):  2.527E-07 0.000E+00

     total cpu time spent up to now is        3.7 secs

     total energy              =     -31.74045373 Ry
     Harris-Foulkes estimate   =     -31.60070997 Ry
     estimated scf accuracy    <       2.32567566 Ry

     iteration # 37     ecut=    30.00 Ry     beta=0.70
     Davidson diagonalization with overlap
     ethr =  1.00E-02,  avg # of iterations =  1.0

     negative rho (up, down):  1.905E-03 0.000E+00

     total cpu time spent up to now is        3.8 secs

     total energy              =     -30.18352940 Ry
     Harris-Foulkes estimate   =     -31.74578437 Ry
     estimated scf accuracy    <       2.75244960 Ry

     iteration # 38     ecut=    30.00 Ry     beta=0.70
     Davidson diagonalization with overlap
     ethr =  1.00E-02,  avg # of iterations =  4.0

     total cpu time spent up to now is        3.8 secs

     total energy              =     -30.22316533 Ry
     Harris-Foulkes estimate   =     -36.41214595 Ry
     estimated scf accuracy    <      18.56539570 Ry

     iteration # 39     ecut=    30.00 Ry     beta=0.70
     Davidson diagonalization with overlap
     ethr =  1.00E-02,  avg # of iterations =  4.0

     total cpu time spent up to now is        3.8 secs

     total energy              =     -31.86036567 Ry
     Harris-Foulkes estimate   =     -32.24826546 Ry
     estimated scf accuracy    <       4.79628622 Ry

     iteration # 40     ecut=    30.00 Ry     beta=0.70
     Davidson diagonalization with overlap
     ethr =  1.00E-02,  avg # of iterations =  1.0

     total cpu time spent up to now is        3.9 secs

     total energy              =     -31.86196086 Ry
     Harris-Foulkes estimate   =     -31.87065670 Ry
     estimated scf accuracy    <       4.02688303 Ry

     iteration # 41     ecut=    30.00 Ry     beta=0.70
     Davidson diagonalization with overlap
     ethr =  1.00E-02,  avg # of iterations =  1.0

     negative rho (up, down):  1.048E-04 0.000E+00

     total cpu time spent up to now is        3.9 secs

     total energy              =     -31.59447803 Ry
     Harris-Foulkes estimate   =     -31.86248588 Ry
     estimated scf accuracy    <       4.00207902 Ry

     iteration # 42     ecut=    30.00 Ry     beta=0.70
     Davidson diagonalization with overlap
     ethr =  1.00E-02,  avg # of iterations =  1.0

     negative rho (up, down):  4.964E-05 0.000E+00

     total cpu time spent up to now is        3.9 secs

     total energy              =     -31.66989939 Ry
     Harris-Foulkes estimate   =     -31.60210751 Ry
     estimated scf accuracy    <       3.05995628 Ry

     iteration # 43     ecut=    30.00 Ry     beta=0.70
     Davidson diagonalization with overlap
     ethr =  1.00E-02,  avg # of iterations =  1.0

     negative rho (up, down):  8.764E-03 0.000E+00

     total cpu time spent up to now is        4.0 secs

     total energy              =     -31.16548489 Ry
     Harris-Foulkes estimate   =     -31.67366431 Ry
     estimated scf accuracy    <       3.53170788 Ry

     iteration # 44     ecut=    30.00 Ry     beta=0.70
     Davidson diagonalization with overlap
     ethr =  1.00E-02,  avg # of iterations =  1.0

     negative rho (up, down):  1.684E-05 0.000E+00

     total cpu time spent up to now is        4.0 secs

     total energy              =     -31.53749389 Ry
     Harris-Foulkes estimate   =     -31.43690516 Ry
     estimated scf accuracy    <       0.37455357 Ry

     iteration # 45     ecut=    30.00 Ry     beta=0.70
     Davidson diagonalization with overlap
     ethr =  4.68E-03,  avg # of iterations =  6.0

     negative rho (up, down):  3.492E-07 0.000E+00

     total cpu time spent up to now is        4.0 secs

     total energy              =     -31.50653797 Ry
     Harris-Foulkes estimate   =     -31.63339371 Ry
     estimated scf accuracy    <       1.31753649 Ry

     iteration # 46     ecut=    30.00 Ry     beta=0.70
     Davidson diagonalization with overlap
     ethr =  4.68E-03,  avg # of iterations =  1.0

     negative rho (up, down):  1.204E-07 0.000E+00

     total cpu time spent up to now is        4.1 secs

     total energy              =     -31.65422613 Ry
     Harris-Foulkes estimate   =     -31.59593527 Ry
     estimated scf accuracy    <       1.07805036 Ry

     iteration # 47     ecut=    30.00 Ry     beta=0.70
     Davidson diagonalization with overlap
     ethr =  4.68E-03,  avg # of iterations =  1.0

     negative rho (up, down):  3.012E-05 0.000E+00

     total cpu time spent up to now is        4.1 secs

     total energy              =     -31.63600662 Ry
     Harris-Foulkes estimate   =     -31.65446569 Ry
     estimated scf accuracy    <       1.14551067 Ry

     iteration # 48     ecut=    30.00 Ry     beta=0.70
     Davidson diagonalization with overlap
     ethr =  4.68E-03,  avg # of iterations =  1.0

     negative rho (up, down):  9.986E-07 0.000E+00

     total cpu time spent up to now is        4.1 secs

     total energy              =     -31.60003167 Ry
     Harris-Foulkes estimate   =     -31.63702039 Ry
     estimated scf accuracy    <       1.21259740 Ry

     iteration # 49     ecut=    30.00 Ry     beta=0.70
     Davidson diagonalization with overlap
     ethr =  4.68E-03,  avg # of iterations =  1.0

     negative rho (up, down):  1.749E-08 0.000E+00

     total cpu time spent up to now is        4.2 secs

     total energy              =     -31.55229137 Ry
     Harris-Foulkes estimate   =     -31.59950085 Ry
     estimated scf accuracy    <       1.32020756 Ry

     iteration # 50     ecut=    30.00 Ry     beta=0.70
     Davidson diagonalization with overlap
     ethr =  4.68E-03,  avg # of iterations =  1.0

     negative rho (up, down):  5.764E-07 0.000E+00

     total cpu time spent up to now is        4.2 secs

     total energy              =     -31.52845013 Ry
     Harris-Foulkes estimate   =     -31.55877441 Ry
     estimated scf accuracy    <       0.55014633 Ry

     iteration # 51     ecut=    30.00 Ry     beta=0.70
     Davidson diagonalization with overlap
     ethr =  4.68E-03,  avg # of iterations =  1.0

     negative rho (up, down):  2.040E-08 0.000E+00

     total cpu time spent up to now is        4.2 secs

     total energy              =     -31.49566731 Ry
     Harris-Foulkes estimate   =     -31.56952294 Ry
     estimated scf accuracy    <       2.09229183 Ry

     iteration # 52     ecut=    30.00 Ry     beta=0.70
     Davidson diagonalization with overlap
     ethr =  4.68E-03,  avg # of iterations =  1.0

     negative rho (up, down):  8.724E-06 0.000E+00

     total cpu time spent up to now is        4.3 secs

     total energy              =     -31.54339631 Ry
     Harris-Foulkes estimate   =     -31.51632828 Ry
     estimated scf accuracy    <       0.21068047 Ry

     iteration # 53     ecut=    30.00 Ry     beta=0.70
     Davidson diagonalization with overlap
     ethr =  2.63E-03,  avg # of iterations =  1.0

     total cpu time spent up to now is        4.3 secs

     total energy              =     -31.42831235 Ry
     Harris-Foulkes estimate   =     -31.58512762 Ry
     estimated scf accuracy    <       2.19539159 Ry

     iteration # 54     ecut=    30.00 Ry     beta=0.70
     Davidson diagonalization with overlap
     ethr =  2.63E-03,  avg # of iterations =  1.0

     negative rho (up, down):  1.416E-07 0.000E+00

     total cpu time spent up to now is        4.4 secs

     total energy              =     -31.64020533 Ry
     Harris-Foulkes estimate   =     -31.56407102 Ry
     estimated scf accuracy    <       1.88376999 Ry

     iteration # 55     ecut=    30.00 Ry     beta=0.70
     Davidson diagonalization with overlap
     ethr =  2.63E-03,  avg # of iterations =  1.0

     total cpu time spent up to now is        4.4 secs

     total energy              =     -31.49706234 Ry
     Harris-Foulkes estimate   =     -31.65210902 Ry
     estimated scf accuracy    <       2.83491643 Ry

     iteration # 56     ecut=    30.00 Ry     beta=0.70
     Davidson diagonalization with overlap
     ethr =  2.63E-03,  avg # of iterations =  1.0

     total cpu time spent up to now is        4.4 secs

     total energy              =     -31.51445752 Ry
     Harris-Foulkes estimate   =     -31.51704920 Ry
     estimated scf accuracy    <       0.37470968 Ry

     iteration # 57     ecut=    30.00 Ry     beta=0.70
     Davidson diagonalization with overlap
     ethr =  2.63E-03,  avg # of iterations =  1.0

     total cpu time spent up to now is        4.5 secs

     total energy              =     -31.51437020 Ry
     Harris-Foulkes estimate   =     -31.51485464 Ry
     estimated scf accuracy    <       0.26624631 Ry

     iteration # 58     ecut=    30.00 Ry     beta=0.70
     Davidson diagonalization with overlap
     ethr =  2.63E-03,  avg # of iterations =  1.0

     total cpu time spent up to now is        4.5 secs

     total energy              =     -31.50993948 Ry
     Harris-Foulkes estimate   =     -31.51455544 Ry
     estimated scf accuracy    <       0.28869246 Ry

     iteration # 59     ecut=    30.00 Ry     beta=0.70
     Davidson diagonalization with overlap
     ethr =  2.63E-03,  avg # of iterations =  1.0

     total cpu time spent up to now is        4.5 secs

     total energy              =     -31.50160077 Ry
     Harris-Foulkes estimate   =     -31.51515744 Ry
     estimated scf accuracy    <       0.23669160 Ry

     iteration # 60     ecut=    30.00 Ry     beta=0.70
     Davidson diagonalization with overlap
     ethr =  2.63E-03,  avg # of iterations =  1.0

     total cpu time spent up to now is        4.6 secs

     total energy              =     -31.51830851 Ry
     Harris-Foulkes estimate   =     -31.52309815 Ry
     estimated scf accuracy    <       0.73091355 Ry

     iteration # 61     ecut=    30.00 Ry     beta=0.70
     Davidson diagonalization with overlap
     ethr =  2.63E-03,  avg # of iterations =  1.0

     total cpu time spent up to now is        4.6 secs

     total energy              =     -31.51264692 Ry
     Harris-Foulkes estimate   =     -31.52294993 Ry
     estimated scf accuracy    <       0.44943453 Ry

     iteration # 62     ecut=    30.00 Ry     beta=0.70
     Davidson diagonalization with overlap
     ethr =  2.63E-03,  avg # of iterations =  1.0

     total cpu time spent up to now is        4.6 secs

     total energy              =     -31.51000961 Ry
     Harris-Foulkes estimate   =     -31.51448754 Ry
     estimated scf accuracy    <       0.16036795 Ry

     iteration # 63     ecut=    30.00 Ry     beta=0.70
     Davidson diagonalization with overlap
     ethr =  2.00E-03,  avg # of iterations =  1.0

     total cpu time spent up to now is        4.7 secs

     total energy              =     -31.51039425 Ry
     Harris-Foulkes estimate   =     -31.51150146 Ry
     estimated scf accuracy    <       0.03525641 Ry

     iteration # 64     ecut=    30.00 Ry     beta=0.70
     Davidson diagonalization with overlap
     ethr =  4.41E-04,  avg # of iterations =  1.0

     total cpu time spent up to now is        4.7 secs

     total energy              =     -31.51100866 Ry
     Harris-Foulkes estimate   =     -31.51105496 Ry
     estimated scf accuracy    <       0.00196816 Ry

     iteration # 65     ecut=    30.00 Ry     beta=0.70
     Davidson diagonalization with overlap
     ethr =  2.46E-05,  avg # of iterations =  1.0

     total cpu time spent up to now is        4.7 secs

     total energy              =     -31.51103388 Ry
     Harris-Foulkes estimate   =     -31.51103313 Ry
     estimated scf accuracy    <       0.00000736 Ry

     iteration # 66     ecut=    30.00 Ry     beta=0.70
     Davidson diagonalization with overlap
     ethr =  9.20E-08,  avg # of iterations = 12.0

     total cpu time spent up to now is        4.8 secs

     total energy              =     -31.51103555 Ry
     Harris-Foulkes estimate   =     -31.51103439 Ry
     estimated scf accuracy    <       0.00006770 Ry

     iteration # 67     ecut=    30.00 Ry     beta=0.70
     Davidson diagonalization with overlap
     ethr =  9.20E-08,  avg # of iterations =  1.0

     total cpu time spent up to now is        4.8 secs

     total energy              =     -31.51103380 Ry
     Harris-Foulkes estimate   =     -31.51103572 Ry
     estimated scf accuracy    <       0.00012426 Ry

     iteration # 68     ecut=    30.00 Ry     beta=0.70
     Davidson diagonalization with overlap
     ethr =  9.20E-08,  avg # of iterations =  1.0

     total cpu time spent up to now is        4.8 secs

     total energy              =     -31.51103460 Ry
     Harris-Foulkes estimate   =     -31.51103470 Ry
     estimated scf accuracy    <       0.00000587 Ry

     iteration # 69     ecut=    30.00 Ry     beta=0.70
     Davidson diagonalization with overlap
     ethr =  7.34E-08,  avg # of iterations =  1.0

     total cpu time spent up to now is        4.9 secs

     total energy              =     -31.51103464 Ry
     Harris-Foulkes estimate   =     -31.51103465 Ry
     estimated scf accuracy    <       0.00000044 Ry

     iteration # 70     ecut=    30.00 Ry     beta=0.70
     Davidson diagonalization with overlap
     ethr =  5.54E-09,  avg # of iterations =  1.0

     total cpu time spent up to now is        4.9 secs

     total energy              =     -31.51103463 Ry
     Harris-Foulkes estimate   =     -31.51103464 Ry
     estimated scf accuracy    <       0.00000011 Ry

     iteration # 71     ecut=    30.00 Ry     beta=0.70
     Davidson diagonalization with overlap
     ethr =  1.37E-09,  avg # of iterations =  1.0

     total cpu time spent up to now is        4.9 secs

     End of self-consistent calculation

          k = 0.0000 0.0000 0.0000 ( 22119 PWs)   bands (ev):

   -23.6573  -7.2798  -7.0564  -7.0562  -6.9515  -6.7164  -0.1785   0.7040

     the Fermi energy is    -6.9206 ev

!    total energy              =     -31.51103463 Ry
     Harris-Foulkes estimate   =     -31.51103463 Ry
     estimated scf accuracy    <          1.7E-10 Ry

     convergence has been achieved in  71 iterations

     Forces acting on atoms (Ry/au):

     atom    1 type  1   force =     0.00016340    0.00006337    0.00018307
     atom    2 type  1   force =     0.00366744    0.02677778   -0.00577075
     atom    3 type  2   force =    -0.00383083   -0.02684115    0.00558768

     Total force =     0.039118     Total SCF correction =     0.000033

     Entering Dynamics:    iteration =     3
                           time      =   0.0145 pico-seconds


     Andersen thermostat:    3 collisions

ATOMIC_POSITIONS (bohr)
H       12.162551045  17.652656717   6.398307512
H        5.891987511  20.410724253  19.917928697
O        7.150502410   5.982440285  18.538831522


     kinetic energy (Ekin) =     0.02376605 Ry
     temperature           =  1250.78620299 K 
     Ekin + Etot (const)   =   -31.48726857 Ry
     Message from routine dynamics:
     Total linear momentum <> 0

     Linear momentum :   -0.1449838587   -0.1568092421    0.0988062850

     Writing output data file pwscf.save

     second order wave-functions extrapolation
     Check: negative starting charge=   -0.345097
     second order charge density extrapolation
     Check: negative starting charge=   -0.344276

     negative rho (up, down):  6.101E-02 0.000E+00

     total cpu time spent up to now is        5.3 secs

     per-process dynamical memory:    20.4 Mb

     Self-consistent Calculation

     iteration #  1     ecut=    30.00 Ry     beta=0.70
     Davidson diagonalization with overlap
     c_bands:  1 eigenvalues not converged
     ethr =  1.00E-06,  avg # of iterations = 20.0

     negative rho (up, down):  1.441E-02 0.000E+00

     total cpu time spent up to now is        5.4 secs

     total energy              =     -31.43736341 Ry
     Harris-Foulkes estimate   =     -31.46173076 Ry
     estimated scf accuracy    <       0.08155822 Ry

     iteration #  2     ecut=    30.00 Ry     beta=0.70
     Davidson diagonalization with overlap
     ethr =  1.02E-03,  avg # of iterations =  2.0

     negative rho (up, down):  1.292E-02 0.000E+00

     total cpu time spent up to now is        5.4 secs

     total energy              =     -31.49242830 Ry
     Harris-Foulkes estimate   =     -32.10598375 Ry
     estimated scf accuracy    <       4.45682448 Ry

     iteration #  3     ecut=    30.00 Ry     beta=0.70
     Davidson diagonalization with overlap
     ethr =  1.02E-03,  avg # of iterations =  2.0

     negative rho (up, down):  1.226E-02 0.000E+00

     total cpu time spent up to now is        5.4 secs

     total energy              =     -31.49871142 Ry
     Harris-Foulkes estimate   =     -31.53592215 Ry
     estimated scf accuracy    <       0.67796132 Ry

     iteration #  4     ecut=    30.00 Ry     beta=0.70
     Davidson diagonalization with overlap
     ethr =  1.02E-03,  avg # of iterations =  1.0

     negative rho (up, down):  1.009E-02 0.000E+00

     total cpu time spent up to now is        5.5 secs

     total energy              =     -31.44707156 Ry
     Harris-Foulkes estimate   =     -31.51833978 Ry
     estimated scf accuracy    <       1.42813208 Ry

     iteration #  5     ecut=    30.00 Ry     beta=0.70
     Davidson diagonalization with overlap
     ethr =  1.02E-03,  avg # of iterations =  1.0

     negative rho (up, down):  2.151E-03 0.000E+00

     total cpu time spent up to now is        5.5 secs

     total energy              =     -31.49989115 Ry
     Harris-Foulkes estimate   =     -31.52941611 Ry
     estimated scf accuracy    <       1.45641385 Ry

     iteration #  6     ecut=    30.00 Ry     beta=0.70
     Davidson diagonalization with overlap
     ethr =  1.02E-03,  avg # of iterations =  1.0

     negative rho (up, down):  4.736E-04 0.000E+00

     total cpu time spent up to now is        5.5 secs

     total energy              =     -31.51253979 Ry
     Harris-Foulkes estimate   =     -31.51331723 Ry
     estimated scf accuracy    <       0.04629882 Ry

     iteration #  7     ecut=    30.00 Ry     beta=0.70
     Davidson diagonalization with overlap
     ethr =  5.79E-04,  avg # of iterations =  1.0

     negative rho (up, down):  1.160E-04 0.000E+00

     total cpu time spent up to now is        5.6 secs

     total energy              =     -31.51330132 Ry
     Harris-Foulkes estimate   =     -31.51430150 Ry
     estimated scf accuracy    <       0.03612928 Ry

     iteration #  8     ecut=    30.00 Ry     beta=0.70
     Davidson diagonalization with overlap
     ethr =  4.52E-04,  avg # of iterations =  1.0

     negative rho (up, down):  7.882E-07 0.000E+00

     total cpu time spent up to now is        5.6 secs

     total energy              =     -31.51399017 Ry
     Harris-Foulkes estimate   =     -31.51395620 Ry
     estimated scf accuracy    <       0.00315449 Ry

     iteration #  9     ecut=    30.00 Ry     beta=0.70
     Davidson diagonalization with overlap
     ethr =  3.94E-05,  avg # of iterations = 16.0

     total cpu time spent up to now is        5.6 secs

     total energy              =     -31.51386381 Ry
     Harris-Foulkes estimate   =     -31.51399780 Ry
     estimated scf accuracy    <       0.00577942 Ry

     iteration # 10     ecut=    30.00 Ry     beta=0.70
     Davidson diagonalization with overlap
     ethr =  3.94E-05,  avg # of iterations =  1.0

     total cpu time spent up to now is        5.7 secs

     total energy              =     -31.51393866 Ry
     Harris-Foulkes estimate   =     -31.51393634 Ry
     estimated scf accuracy    <       0.00003901 Ry

     iteration # 11     ecut=    30.00 Ry     beta=0.70
     Davidson diagonalization with overlap
     ethr =  4.88E-07,  avg # of iterations =  3.0

     total cpu time spent up to now is        5.7 secs

     total energy              =     -31.51392505 Ry
     Harris-Foulkes estimate   =     -31.51394210 Ry
     estimated scf accuracy    <       0.00056667 Ry

     iteration # 12     ecut=    30.00 Ry     beta=0.70
     Davidson diagonalization with overlap
     ethr =  4.88E-07,  avg # of iterations =  1.0

     total cpu time spent up to now is        5.7 secs

     total energy              =     -31.51393489 Ry
     Harris-Foulkes estimate   =     -31.51393559 Ry
     estimated scf accuracy    <       0.00005416 Ry

     iteration # 13     ecut=    30.00 Ry     beta=0.70
     Davidson diagonalization with overlap
     ethr =  4.88E-07,  avg # of iterations =  1.0

     total cpu time spent up to now is        5.8 secs

     total energy              =     -31.51393478 Ry
     Harris-Foulkes estimate   =     -31.51393505 Ry
     estimated scf accuracy    <       0.00001373 Ry

     iteration # 14     ecut=    30.00 Ry     beta=0.70
     Davidson diagonalization with overlap
     ethr =  1.72E-07,  avg # of iterations =  1.0

     total cpu time spent up to now is        5.8 secs

     total energy              =     -31.51393476 Ry
     Harris-Foulkes estimate   =     -31.51393486 Ry
     estimated scf accuracy    <       0.00000121 Ry

     iteration # 15     ecut=    30.00 Ry     beta=0.70
     Davidson diagonalization with overlap
     ethr =  1.51E-08,  avg # of iterations =  1.0

     total cpu time spent up to now is        5.8 secs

     End of self-consistent calculation

          k = 0.0000 0.0000 0.0000 ( 22119 PWs)   bands (ev):

   -23.6555  -7.2986  -7.0525  -7.0523  -6.9469  -6.6910  -0.1774   0.7130

     the Fermi energy is    -6.9162 ev

!    total energy              =     -31.51393478 Ry
     Harris-Foulkes estimate   =     -31.51393477 Ry
     estimated scf accuracy    <          1.4E-09 Ry

     convergence has been achieved in  15 iterations

     Forces acting on atoms (Ry/au):

     atom    1 type  1   force =     0.00023018    0.00008772    0.00025797
     atom    2 type  1   force =     0.00728775    0.03066135   -0.00725043
     atom    3 type  2   force =    -0.00751793   -0.03074907    0.00699247

     Total force =     0.045791     Total SCF correction =     0.000111

     Entering Dynamics:    iteration =     4
                           time      =   0.0194 pico-seconds


     Andersen thermostat:    3 collisions

ATOMIC_POSITIONS (bohr)
H       12.468640229  17.452132207   6.756012091
H        6.096386338  20.504851754  20.318490336
O        7.118277854   5.989156596  18.490965967


     kinetic energy (Ekin) =     0.02556099 Ry
     temperature           =  1345.25232119 K 
     Ekin + Etot (const)   =   -31.48837379 Ry
     Message from routine dynamics:
     Total linear momentum <> 0

     Linear momentum :    0.0931223808    0.1003491366   -0.1438854375

     Writing output data file pwscf.save

     second order wave-functions extrapolation
     Check: negative starting charge=   -0.344276
     second order charge density extrapolation
     Check: negative starting charge=   -0.345621

     negative rho (up, down):  9.966E-02 0.000E+00

     total cpu time spent up to now is        6.1 secs

     per-process dynamical memory:    20.4 Mb

     Self-consistent Calculation

     iteration #  1     ecut=    30.00 Ry     beta=0.70
     Davidson diagonalization with overlap
     c_bands:  1 eigenvalues not converged
     ethr =  1.00E-06,  avg # of iterations = 20.0

     negative rho (up, down):  2.427E-02 0.000E+00

     total cpu time spent up to now is        6.3 secs

     total energy              =     -31.45515757 Ry
     Harris-Foulkes estimate   =     -31.44328977 Ry
     estimated scf accuracy    <       0.04741203 Ry

     iteration #  2     ecut=    30.00 Ry     beta=0.70
     Davidson diagonalization with overlap
     ethr =  5.93E-04,  avg # of iterations =  2.0

     negative rho (up, down):  2.229E-02 0.000E+00

     total cpu time spent up to now is        6.3 secs

     total energy              =     -31.47601988 Ry
     Harris-Foulkes estimate   =     -31.93627733 Ry
     estimated scf accuracy    <       4.11896792 Ry

     iteration #  3     ecut=    30.00 Ry     beta=0.70
     Davidson diagonalization with overlap
     ethr =  5.93E-04,  avg # of iterations =  2.0

     negative rho (up, down):  2.188E-02 0.000E+00

     total cpu time spent up to now is        6.3 secs

     total energy              =     -31.49200746 Ry
     Harris-Foulkes estimate   =     -31.51334598 Ry
     estimated scf accuracy    <       1.32196694 Ry

     iteration #  4     ecut=    30.00 Ry     beta=0.70
     Davidson diagonalization with overlap
     ethr =  5.93E-04,  avg # of iterations =  1.0

     negative rho (up, down):  8.371E-03 0.000E+00

     total cpu time spent up to now is        6.3 secs

     total energy              =     -31.45116272 Ry
     Harris-Foulkes estimate   =     -31.49873898 Ry
     estimated scf accuracy    <       0.50557941 Ry

     iteration #  5     ecut=    30.00 Ry     beta=0.70
     Davidson diagonalization with overlap
     ethr =  5.93E-04,  avg # of iterations =  1.0

     negative rho (up, down):  4.274E-03 0.000E+00

     total cpu time spent up to now is        6.4 secs

     total energy              =     -31.52297359 Ry
     Harris-Foulkes estimate   =     -31.58329784 Ry
     estimated scf accuracy    <       2.15290557 Ry

     iteration #  6     ecut=    30.00 Ry     beta=0.70
     Davidson diagonalization with overlap
     ethr =  5.93E-04,  avg # of iterations =  1.0

     negative rho (up, down):  2.353E-03 0.000E+00

     total cpu time spent up to now is        6.4 secs

     total energy              =     -31.49594102 Ry
     Harris-Foulkes estimate   =     -31.52905533 Ry
     estimated scf accuracy    <       1.10738893 Ry

     iteration #  7     ecut=    30.00 Ry     beta=0.70
     Davidson diagonalization with overlap
     ethr =  5.93E-04,  avg # of iterations =  1.0

     negative rho (up, down):  7.670E-04 0.000E+00

     total cpu time spent up to now is        6.5 secs

     total energy              =     -31.51381556 Ry
     Harris-Foulkes estimate   =     -31.51333052 Ry
     estimated scf accuracy    <       0.02889923 Ry

     iteration #  8     ecut=    30.00 Ry     beta=0.70
     Davidson diagonalization with overlap
     ethr =  3.61E-04,  avg # of iterations =  3.0

     negative rho (up, down):  2.812E-04 0.000E+00

     total cpu time spent up to now is        6.6 secs

     total energy              =     -31.51427124 Ry
     Harris-Foulkes estimate   =     -31.51429474 Ry
     estimated scf accuracy    <       0.00216220 Ry

     iteration #  9     ecut=    30.00 Ry     beta=0.70
     Davidson diagonalization with overlap
     ethr =  2.70E-05,  avg # of iterations =  9.0

     negative rho (up, down):  3.311E-06 0.000E+00

     total cpu time spent up to now is        6.6 secs

     total energy              =     -31.51427682 Ry
     Harris-Foulkes estimate   =     -31.51432796 Ry
     estimated scf accuracy    <       0.00089262 Ry

     iteration # 10     ecut=    30.00 Ry     beta=0.70
     Davidson diagonalization with overlap
     ethr =  1.12E-05,  avg # of iterations =  1.0

     negative rho (up, down):  4.077E-08 0.000E+00

     total cpu time spent up to now is        6.6 secs

     total energy              =     -31.51431103 Ry
     Harris-Foulkes estimate   =     -31.51441031 Ry
     estimated scf accuracy    <       0.00704088 Ry

     iteration # 11     ecut=    30.00 Ry     beta=0.70
     Davidson diagonalization with overlap
     ethr =  1.12E-05,  avg # of iterations =  1.0

     total cpu time spent up to now is        6.7 secs

     total energy              =     -31.51434957 Ry
     Harris-Foulkes estimate   =     -31.51434338 Ry
     estimated scf accuracy    <       0.00087776 Ry

     iteration # 12     ecut=    30.00 Ry     beta=0.70
     Davidson diagonalization with overlap
     ethr =  1.10E-05,  avg # of iterations =  1.0

     total cpu time spent up to now is        6.7 secs

     total energy              =     -31.51429075 Ry
     Harris-Foulkes estimate   =     -31.51435077 Ry
     estimated scf accuracy    <       0.00158398 Ry

     iteration # 13     ecut=    30.00 Ry     beta=0.70
     Davidson diagonalization with overlap
     ethr =  1.10E-05,  avg # of iterations =  1.0

     negative rho (up, down):  1.916E-08 0.000E+00

     total cpu time spent up to now is        6.7 secs

     total energy              =     -31.51433956 Ry
     Harris-Foulkes estimate   =     -31.51434319 Ry
     estimated scf accuracy    <       0.00094899 Ry

     iteration # 14     ecut=    30.00 Ry     beta=0.70
     Davidson diagonalization with overlap
     ethr =  1.10E-05,  avg # of iterations =  1.0

     total cpu time spent up to now is        6.8 secs

     total energy              =     -31.51432582 Ry
     Harris-Foulkes estimate   =     -31.51433979 Ry
     estimated scf accuracy    <       0.00069366 Ry

     iteration # 15     ecut=    30.00 Ry     beta=0.70
     Davidson diagonalization with overlap
     ethr =  8.67E-06,  avg # of iterations =  1.0

     total cpu time spent up to now is        6.8 secs

     total energy              =     -31.51433272 Ry
     Harris-Foulkes estimate   =     -31.51433298 Ry
     estimated scf accuracy    <       0.00000041 Ry

     iteration # 16     ecut=    30.00 Ry     beta=0.70
     Davidson diagonalization with overlap
     ethr =  5.06E-09,  avg # of iterations = 15.0

     total cpu time spent up to now is        6.8 secs

     End of self-consistent calculation

          k = 0.0000 0.0000 0.0000 ( 22119 PWs)   bands (ev):

   -23.6562  -7.3015  -7.0532  -7.0529  -6.9477  -6.6883  -0.1783   0.7146

     the Fermi energy is    -6.9167 ev

!    total energy              =     -31.51433267 Ry
     Harris-Foulkes estimate   =     -31.51433274 Ry
     estimated scf accuracy    <          5.2E-09 Ry

     convergence has been achieved in  16 iterations

     Forces acting on atoms (Ry/au):

     atom    1 type  1   force =     0.00027756    0.00005211    0.00032275
     atom    2 type  1   force =     0.00620243    0.03094302   -0.00969359
     atom    3 type  2   force =    -0.00647999   -0.03099513    0.00937084

     Total force =     0.046697     Total SCF correction =     0.000774

     Entering Dynamics:    iteration =     5
                           time      =   0.0242 pico-seconds


     Andersen thermostat:    3 collisions

ATOMIC_POSITIONS (bohr)
H       12.813092154  17.282506549   7.123356052
H        5.859864630  20.403668536  20.219608111
O        7.111464759   6.006251407  18.474019320


     kinetic energy (Ekin) =     0.02262992 Ry
     temperature           =  1190.99260259 K 
     Ekin + Etot (const)   =   -31.49170275 Ry
     Message from routine dynamics:
     Total linear momentum <> 0

     Linear momentum :    0.4120827489   -0.0016666667    0.0017437939

     Writing output data file pwscf.save

     second order wave-functions extrapolation
     Check: negative starting charge=   -0.345621
     second order charge density extrapolation
     Check: negative starting charge=   -0.346035

     negative rho (up, down):  3.721E-02 0.000E+00

     total cpu time spent up to now is        7.2 secs

     per-process dynamical memory:    20.4 Mb

     Self-consistent Calculation

     iteration #  1     ecut=    30.00 Ry     beta=0.70
     Davidson diagonalization with overlap
     c_bands:  1 eigenvalues not converged
     ethr =  1.00E-06,  avg # of iterations = 20.0

     negative rho (up, down):  8.140E-03 0.000E+00

     total cpu time spent up to now is        7.3 secs

     total energy              =     -31.39022077 Ry
     Harris-Foulkes estimate   =     -31.48358923 Ry
     estimated scf accuracy    <       0.14095523 Ry

     iteration #  2     ecut=    30.00 Ry     beta=0.70
     Davidson diagonalization with overlap
     ethr =  1.76E-03,  avg # of iterations =  2.0

     negative rho (up, down):  7.224E-03 0.000E+00

     total cpu time spent up to now is        7.3 secs

     total energy              =     -31.47012361 Ry
     Harris-Foulkes estimate   =     -32.07501045 Ry
     estimated scf accuracy    <       3.44204334 Ry

     iteration #  3     ecut=    30.00 Ry     beta=0.70
     Davidson diagonalization with overlap
     ethr =  1.76E-03,  avg # of iterations =  2.0

     negative rho (up, down):  6.423E-03 0.000E+00

     total cpu time spent up to now is        7.3 secs

     total energy              =     -31.53807741 Ry
     Harris-Foulkes estimate   =     -31.74000248 Ry
     estimated scf accuracy    <       1.36297903 Ry

     iteration #  4     ecut=    30.00 Ry     beta=0.70
     Davidson diagonalization with overlap
     ethr =  1.76E-03,  avg # of iterations =  1.0

     negative rho (up, down):  6.001E-03 0.000E+00

     total cpu time spent up to now is        7.4 secs

     total energy              =     -31.50866196 Ry
     Harris-Foulkes estimate   =     -31.55788043 Ry
     estimated scf accuracy    <       0.78658134 Ry

     iteration #  5     ecut=    30.00 Ry     beta=0.70
     Davidson diagonalization with overlap
     ethr =  1.76E-03,  avg # of iterations =  1.0

     negative rho (up, down):  4.037E-03 0.000E+00

     total cpu time spent up to now is        7.4 secs

     total energy              =     -31.47480336 Ry
     Harris-Foulkes estimate   =     -31.51149413 Ry
     estimated scf accuracy    <       0.36978105 Ry

     iteration #  6     ecut=    30.00 Ry     beta=0.70
     Davidson diagonalization with overlap
     ethr =  1.76E-03,  avg # of iterations =  1.0

     negative rho (up, down):  8.093E-04 0.000E+00

     total cpu time spent up to now is        7.4 secs

     total energy              =     -31.52785328 Ry
     Harris-Foulkes estimate   =     -31.54240260 Ry
     estimated scf accuracy    <       1.60237324 Ry

     iteration #  7     ecut=    30.00 Ry     beta=0.70
     Davidson diagonalization with overlap
     ethr =  1.76E-03,  avg # of iterations =  1.0

     negative rho (up, down):  3.880E-04 0.000E+00

     total cpu time spent up to now is        7.5 secs

     total energy              =     -31.49390943 Ry
     Harris-Foulkes estimate   =     -31.52958380 Ry
     estimated scf accuracy    <       1.12185877 Ry

     iteration #  8     ecut=    30.00 Ry     beta=0.70
     Davidson diagonalization with overlap
     ethr =  1.76E-03,  avg # of iterations =  1.0

     negative rho (up, down):  2.988E-05 0.000E+00

     total cpu time spent up to now is        7.5 secs

     total energy              =     -31.51115210 Ry
     Harris-Foulkes estimate   =     -31.51040643 Ry
     estimated scf accuracy    <       0.00162370 Ry

     iteration #  9     ecut=    30.00 Ry     beta=0.70
     Davidson diagonalization with overlap
     ethr =  2.03E-05,  avg # of iterations = 13.0

     total cpu time spent up to now is        7.5 secs

     total energy              =     -31.50212918 Ry
     Harris-Foulkes estimate   =     -31.51751546 Ry
     estimated scf accuracy    <       0.41225511 Ry

     iteration # 10     ecut=    30.00 Ry     beta=0.70
     Davidson diagonalization with overlap
     ethr =  2.03E-05,  avg # of iterations =  2.0

     negative rho (up, down):  1.407E-08 0.000E+00

     total cpu time spent up to now is        7.6 secs

     total energy              =     -31.50984901 Ry
     Harris-Foulkes estimate   =     -31.51070111 Ry
     estimated scf accuracy    <       0.03003226 Ry

     iteration # 11     ecut=    30.00 Ry     beta=0.70
     Davidson diagonalization with overlap
     ethr =  2.03E-05,  avg # of iterations =  1.0

     negative rho (up, down):  1.909E-08 0.000E+00

     total cpu time spent up to now is        7.6 secs

     total energy              =     -31.51039876 Ry
     Harris-Foulkes estimate   =     -31.51040945 Ry
     estimated scf accuracy    <       0.00243689 Ry

     iteration # 12     ecut=    30.00 Ry     beta=0.70
     Davidson diagonalization with overlap
     ethr =  2.03E-05,  avg # of iterations =  1.0

     negative rho (up, down):  1.592E-08 0.000E+00

     total cpu time spent up to now is        7.7 secs

     total energy              =     -31.51037974 Ry
     Harris-Foulkes estimate   =     -31.51039974 Ry
     estimated scf accuracy    <       0.00194359 Ry

     iteration # 13     ecut=    30.00 Ry     beta=0.70
     Davidson diagonalization with overlap
     ethr =  2.03E-05,  avg # of iterations =  1.0

     total cpu time spent up to now is        7.7 secs

     total energy              =     -31.51037808 Ry
     Harris-Foulkes estimate   =     -31.51038552 Ry
     estimated scf accuracy    <       0.00124389 Ry

     iteration # 14     ecut=    30.00 Ry     beta=0.70
     Davidson diagonalization with overlap
     ethr =  1.55E-05,  avg # of iterations =  1.0

     total cpu time spent up to now is        7.7 secs

     total energy              =     -31.51036400 Ry
     Harris-Foulkes estimate   =     -31.51037938 Ry
     estimated scf accuracy    <       0.00061249 Ry

     iteration # 15     ecut=    30.00 Ry     beta=0.70
     Davidson diagonalization with overlap
     ethr =  7.66E-06,  avg # of iterations =  1.0

     total cpu time spent up to now is        7.8 secs

     total energy              =     -31.51037350 Ry
     Harris-Foulkes estimate   =     -31.51037364 Ry
     estimated scf accuracy    <       0.00002290 Ry

     iteration # 16     ecut=    30.00 Ry     beta=0.70
     Davidson diagonalization with overlap
     ethr =  2.86E-07,  avg # of iterations =  8.0

     total cpu time spent up to now is        7.8 secs

     total energy              =     -31.51037292 Ry
     Harris-Foulkes estimate   =     -31.51037354 Ry
     estimated scf accuracy    <       0.00001428 Ry

     iteration # 17     ecut=    30.00 Ry     beta=0.70
     Davidson diagonalization with overlap
     ethr =  1.79E-07,  avg # of iterations =  1.0

     total cpu time spent up to now is        7.8 secs

     total energy              =     -31.51037322 Ry
     Harris-Foulkes estimate   =     -31.51037319 Ry
     estimated scf accuracy    <       0.00000017 Ry

     iteration # 18     ecut=    30.00 Ry     beta=0.70
     Davidson diagonalization with overlap
     ethr =  2.08E-09,  avg # of iterations =  1.0

     total cpu time spent up to now is        7.9 secs

     total energy              =     -31.51037312 Ry
     Harris-Foulkes estimate   =     -31.51037322 Ry
     estimated scf accuracy    <       0.00000082 Ry

     iteration # 19     ecut=    30.00 Ry     beta=0.70
     Davidson diagonalization with overlap
     ethr =  2.08E-09,  avg # of iterations =  1.0

     total cpu time spent up to now is        7.9 secs

     End of self-consistent calculation

          k = 0.0000 0.0000 0.0000 ( 22119 PWs)   bands (ev):

   -23.6466  -7.2639  -7.0466  -7.0463  -6.9414  -6.7124  -0.1841   0.6963

     the Fermi energy is    -6.9108 ev

!    total energy              =     -31.51037313 Ry
     Harris-Foulkes estimate   =     -31.51037313 Ry
     estimated scf accuracy    <          2.1E-09 Ry

     convergence has been achieved in  19 iterations

     Forces acting on atoms (Ry/au):

[...]
     Harris-Foulkes estimate   =     -31.57623320 Ry
     estimated scf accuracy    <       0.42558804 Ry

     iteration # 59     ecut=    30.00 Ry     beta=0.70
     Davidson diagonalization with overlap
     ethr =  5.32E-03,  avg # of iterations =  1.0

     negative rho (up, down):  4.124E-03 0.000E+00

     total cpu time spent up to now is       18.8 secs

     total energy              =     -31.55925638 Ry
     Harris-Foulkes estimate   =     -31.55958996 Ry
     estimated scf accuracy    <       0.33781404 Ry

     iteration # 60     ecut=    30.00 Ry     beta=0.70
     Davidson diagonalization with overlap
     ethr =  4.22E-03,  avg # of iterations =  4.0

     negative rho (up, down):  1.265E-02 0.000E+00

     total cpu time spent up to now is       18.8 secs

     total energy              =     -20.89057590 Ry
     Harris-Foulkes estimate   =     -39.35853967 Ry
     estimated scf accuracy    <      10.73340646 Ry

     iteration # 61     ecut=    30.00 Ry     beta=0.70
     Davidson diagonalization with overlap
     ethr =  4.22E-03,  avg # of iterations =  4.0

     negative rho (up, down):  1.915E-02 0.000E+00

     total cpu time spent up to now is       18.9 secs

     total energy              =      -2.21931071 Ry
     Harris-Foulkes estimate   =     -46.50368130 Ry
     estimated scf accuracy    <      17.71044015 Ry

     iteration # 62     ecut=    30.00 Ry     beta=0.70
     Davidson diagonalization with overlap
     ethr =  4.22E-03,  avg # of iterations =  6.0

     negative rho (up, down):  2.697E-02 0.000E+00

     total cpu time spent up to now is       18.9 secs

     total energy              =     -37.99498606 Ry
     Harris-Foulkes estimate   =     -31.84600848 Ry
     estimated scf accuracy    <       0.70100130 Ry

     iteration # 63     ecut=    30.00 Ry     beta=0.70
     Davidson diagonalization with overlap
     ethr =  4.22E-03,  avg # of iterations =  4.0

     negative rho (up, down):  2.730E-02 0.000E+00

     total cpu time spent up to now is       19.0 secs

     total energy              =       3.35317239 Ry
     Harris-Foulkes estimate   =    -154.60977926 Ry
     estimated scf accuracy    <      20.19589110 Ry

     iteration # 64     ecut=    30.00 Ry     beta=0.70
     Davidson diagonalization with overlap
     ethr =  4.22E-03,  avg # of iterations =  5.0

     negative rho (up, down):  1.207E-02 0.000E+00

     total cpu time spent up to now is       19.0 secs

     total energy              =    -400.36625553 Ry
     Harris-Foulkes estimate   =    -593.72874452 Ry
     estimated scf accuracy    <       7.02118599 Ry

     iteration # 65     ecut=    30.00 Ry     beta=0.70
     Davidson diagonalization with overlap
     ethr =  4.22E-03,  avg # of iterations =  4.0

     negative rho (up, down):  1.218E-02 0.000E+00

     total cpu time spent up to now is       19.0 secs

     total energy              =      32.67976166 Ry
     Harris-Foulkes estimate   =   -1003.46832440 Ry
     estimated scf accuracy    <      18.13420774 Ry

     iteration # 66     ecut=    30.00 Ry     beta=0.70
     Davidson diagonalization with overlap
     ethr =  4.22E-03,  avg # of iterations =  6.0

     negative rho (up, down):  4.205E-02 0.000E+00

     total cpu time spent up to now is       19.1 secs

     total energy              =     -46.16300731 Ry
     Harris-Foulkes estimate   =     -31.88610173 Ry
     estimated scf accuracy    <       0.66707329 Ry

     iteration # 67     ecut=    30.00 Ry     beta=0.70
     Davidson diagonalization with overlap
     ethr =  4.22E-03,  avg # of iterations =  5.0

     negative rho (up, down):  4.604E-02 0.000E+00

     total cpu time spent up to now is       19.1 secs

     total energy              =      83.75892452 Ry
     Harris-Foulkes estimate   =    -901.30044461 Ry
     estimated scf accuracy    <      59.80396166 Ry

     iteration # 68     ecut=    30.00 Ry     beta=0.70
     Davidson diagonalization with overlap
     ethr =  4.22E-03,  avg # of iterations = 10.0

     negative rho (up, down):  8.623E-02 0.000E+00

     total cpu time spent up to now is       19.2 secs

     total energy              =      -7.25491074 Ry
     Harris-Foulkes estimate   =     -84.99831503 Ry
     estimated scf accuracy    <       8.29899737 Ry

     iteration # 69     ecut=    30.00 Ry     beta=0.70
     Davidson diagonalization with overlap
     ethr =  4.22E-03,  avg # of iterations =  4.0

     negative rho (up, down):  9.136E-02 0.000E+00

     total cpu time spent up to now is       19.2 secs

     total energy              =    -628.92729551 Ry
     Harris-Foulkes estimate   =     -49.07701556 Ry
     estimated scf accuracy    <      17.63705427 Ry

     iteration # 70     ecut=    30.00 Ry     beta=0.70
     Davidson diagonalization with overlap
     ethr =  4.22E-03,  avg # of iterations =  4.0

     negative rho (up, down):  9.257E-02 0.000E+00

     total cpu time spent up to now is       19.3 secs

     total energy              =    -333.50278176 Ry
     Harris-Foulkes estimate   =   -1558.58286831 Ry
     estimated scf accuracy    <      31.07841842 Ry

     iteration # 71     ecut=    30.00 Ry     beta=0.70
     Davidson diagonalization with overlap
     ethr =  4.22E-03,  avg # of iterations =  7.0

     negative rho (up, down):  1.640E-01 0.000E+00

     total cpu time spent up to now is       19.3 secs

     total energy              =     365.87191419 Ry
     Harris-Foulkes estimate   =   -1179.97276528 Ry
     estimated scf accuracy    <      59.65665984 Ry

     iteration # 72     ecut=    30.00 Ry     beta=0.70
     Davidson diagonalization with overlap
     ethr =  4.22E-03,  avg # of iterations = 11.0

     negative rho (up, down):  1.591E-01 0.000E+00

     total cpu time spent up to now is       19.4 secs

     total energy              =     -64.87685119 Ry
     Harris-Foulkes estimate   =    -883.11757043 Ry
     estimated scf accuracy    <      47.73984398 Ry

     iteration # 73     ecut=    30.00 Ry     beta=0.70
     Davidson diagonalization with overlap
     ethr =  4.22E-03,  avg # of iterations =  7.0

     negative rho (up, down):  2.242E-01 0.000E+00

     total cpu time spent up to now is       19.4 secs

     total energy              =     -55.67452069 Ry
     Harris-Foulkes estimate   =   -4332.40180932 Ry
     estimated scf accuracy    <      56.07944180 Ry

     iteration # 74     ecut=    30.00 Ry     beta=0.70
     Davidson diagonalization with overlap
     ethr =  4.22E-03,  avg # of iterations =  7.0

     negative rho (up, down):  2.340E-01 0.000E+00

     total cpu time spent up to now is       19.5 secs

     total energy              =    -105.03456753 Ry
     Harris-Foulkes estimate   =    -983.85148473 Ry
     estimated scf accuracy    <      43.15810250 Ry

     iteration # 75     ecut=    30.00 Ry     beta=0.70
     Davidson diagonalization with overlap
     ethr =  4.22E-03,  avg # of iterations =  5.0

     negative rho (up, down):  1.104E+00 0.000E+00

     total cpu time spent up to now is       19.5 secs

     total energy              =    7614.03825534 Ry
     Harris-Foulkes estimate   =    -809.71324393 Ry
     estimated scf accuracy    <      54.68642337 Ry

     iteration # 76     ecut=    30.00 Ry     beta=0.70
     Davidson diagonalization with overlap
     ethr =  4.22E-03,  avg # of iterations = 10.0

     negative rho (up, down):  1.256E+00 0.000E+00

     total cpu time spent up to now is       19.6 secs

     total energy              =    -295.49898254 Ry
     Harris-Foulkes estimate   =   -3405.02541378 Ry
     estimated scf accuracy    <      55.38062513 Ry

     iteration # 77     ecut=    30.00 Ry     beta=0.70
     Davidson diagonalization with overlap
     ethr =  4.22E-03,  avg # of iterations =  8.0

     negative rho (up, down):  1.609E+00 0.000E+00

     total cpu time spent up to now is       19.7 secs

     total energy              =    -303.32346034 Ry
     Harris-Foulkes estimate   =   -1132.01752616 Ry
     estimated scf accuracy    <      44.57268307 Ry

     iteration # 78     ecut=    30.00 Ry     beta=0.70
     Davidson diagonalization with overlap
     ethr =  4.22E-03,  avg # of iterations =  9.0

     negative rho (up, down):  2.645E+00 0.000E+00

     total cpu time spent up to now is       19.7 secs

     total energy              =     -92.22794890 Ry
     Harris-Foulkes estimate   =   -1667.34608220 Ry
     estimated scf accuracy    <      32.96272003 Ry

     iteration # 79     ecut=    30.00 Ry     beta=0.70
     Davidson diagonalization with overlap
     ethr =  4.22E-03,  avg # of iterations =  7.0

     negative rho (up, down):  1.614E+00 0.000E+00

     total cpu time spent up to now is       19.8 secs

     total energy              =      91.21923794 Ry
     Harris-Foulkes estimate   =  -10326.65743111 Ry
     estimated scf accuracy    <      30.95997247 Ry

     iteration # 80     ecut=    30.00 Ry     beta=0.70
     Davidson diagonalization with overlap
     ethr =  4.22E-03,  avg # of iterations =  8.0

     negative rho (up, down):  1.135E+00 0.000E+00

     total cpu time spent up to now is       19.8 secs

     total energy              =     126.84997489 Ry
     Harris-Foulkes estimate   =   -2006.36807605 Ry
     estimated scf accuracy    <      30.89198732 Ry

     iteration # 81     ecut=    30.00 Ry     beta=0.70
     Davidson diagonalization with overlap
     ethr =  4.22E-03,  avg # of iterations =  7.0

     negative rho (up, down):  1.415E+00 0.000E+00

     total cpu time spent up to now is       19.9 secs

     total energy              =   -1185.33567049 Ry
     Harris-Foulkes estimate   =   -4821.66173481 Ry
     estimated scf accuracy    <      30.06010758 Ry

     iteration # 82     ecut=    30.00 Ry     beta=0.70
     Davidson diagonalization with overlap
     ethr =  4.22E-03,  avg # of iterations =  7.0

     negative rho (up, down):  7.811E-01 0.000E+00

     total cpu time spent up to now is       20.0 secs

     total energy              =    -212.82498712 Ry
     Harris-Foulkes estimate   =  -15847.72407643 Ry
     estimated scf accuracy    <      23.65957141 Ry

     iteration # 83     ecut=    30.00 Ry     beta=0.70
     Davidson diagonalization with overlap
     ethr =  4.22E-03,  avg # of iterations =  8.0

     negative rho (up, down):  6.576E-01 0.000E+00

     total cpu time spent up to now is       20.0 secs

     total energy              =    -175.77484938 Ry
     Harris-Foulkes estimate   =   -9399.74097910 Ry
     estimated scf accuracy    <      16.19893993 Ry

     iteration # 84     ecut=    30.00 Ry     beta=0.70
     Davidson diagonalization with overlap
     ethr =  4.22E-03,  avg # of iterations = 13.0

     negative rho (up, down):  9.606E-02 0.000E+00

     total cpu time spent up to now is       20.1 secs

     total energy              =      73.19881500 Ry
     Harris-Foulkes estimate   =    -767.95920667 Ry
     estimated scf accuracy    <      23.65576382 Ry

     iteration # 85     ecut=    30.00 Ry     beta=0.70
     Davidson diagonalization with overlap
     ethr =  4.22E-03,  avg # of iterations =  7.0

     negative rho (up, down):  3.428E-02 0.000E+00

     total cpu time spent up to now is       20.1 secs

     total energy              =    1447.98094291 Ry
     Harris-Foulkes estimate   =    -139.85959460 Ry
     estimated scf accuracy    <      19.54240148 Ry

     iteration # 86     ecut=    30.00 Ry     beta=0.70
     Davidson diagonalization with overlap
     ethr =  4.22E-03,  avg # of iterations = 13.0

     negative rho (up, down):  2.287E-02 0.000E+00

     total cpu time spent up to now is       20.2 secs

     total energy              =      21.96130680 Ry
     Harris-Foulkes estimate   =     -67.85668049 Ry
     estimated scf accuracy    <      12.83233793 Ry

     iteration # 87     ecut=    30.00 Ry     beta=0.70
     Davidson diagonalization with overlap
     ethr =  4.22E-03,  avg # of iterations =  9.0

     negative rho (up, down):  6.469E-02 0.000E+00

     total cpu time spent up to now is       20.3 secs

     total energy              =     -12.39364212 Ry
     Harris-Foulkes estimate   =    -154.16197060 Ry
     estimated scf accuracy    <      23.70271629 Ry

     iteration # 88     ecut=    30.00 Ry     beta=0.70
     Davidson diagonalization with overlap
     ethr =  4.22E-03,  avg # of iterations =  4.0

     negative rho (up, down):  7.877E-02 0.000E+00

     total cpu time spent up to now is       20.3 secs

     total energy              =      -7.65028679 Ry
     Harris-Foulkes estimate   =   -1816.57246694 Ry
     estimated scf accuracy    <      19.79061765 Ry

     iteration # 89     ecut=    30.00 Ry     beta=0.70
     Davidson diagonalization with overlap
     ethr =  4.22E-03,  avg # of iterations =  9.0

     negative rho (up, down):  1.602E-01 0.000E+00

     total cpu time spent up to now is       20.4 secs

     total energy              =       0.60707966 Ry
     Harris-Foulkes estimate   =    -207.82178934 Ry
     estimated scf accuracy    <      23.45607084 Ry

     iteration # 90     ecut=    30.00 Ry     beta=0.70
     Davidson diagonalization with overlap
     ethr =  4.22E-03,  avg # of iterations =  9.0

     negative rho (up, down):  1.973E-01 0.000E+00

     total cpu time spent up to now is       20.4 secs

     total energy              =     -35.45254367 Ry
     Harris-Foulkes estimate   =   -5127.30763423 Ry
     estimated scf accuracy    <      26.16178113 Ry

     iteration # 91     ecut=    30.00 Ry     beta=0.70
     Davidson diagonalization with overlap
     ethr =  4.22E-03,  avg # of iterations =  9.0

     negative rho (up, down):  1.455E-01 0.000E+00

     total cpu time spent up to now is       20.5 secs

     total energy              =   -2181.14649905 Ry
     Harris-Foulkes estimate   =    -276.74738358 Ry
     estimated scf accuracy    <      21.14577990 Ry

     iteration # 92     ecut=    30.00 Ry     beta=0.70
     Davidson diagonalization with overlap
     ethr =  4.22E-03,  avg # of iterations =  7.0

     negative rho (up, down):  8.940E-02 0.000E+00

     total cpu time spent up to now is       20.5 secs

     total energy              =      93.19564018 Ry
     Harris-Foulkes estimate   =   -3318.72215043 Ry
     estimated scf accuracy    <      49.15798382 Ry

     iteration # 93     ecut=    30.00 Ry     beta=0.70
     Davidson diagonalization with overlap
     ethr =  4.22E-03,  avg # of iterations = 11.0

     negative rho (up, down):  5.231E-02 0.000E+00

     total cpu time spent up to now is       20.6 secs

     total energy              =      24.00856685 Ry
     Harris-Foulkes estimate   =    -108.65143252 Ry
     estimated scf accuracy    <      21.55357167 Ry

     iteration # 94     ecut=    30.00 Ry     beta=0.70
     Davidson diagonalization with overlap
     ethr =  4.22E-03,  avg # of iterations =  5.0

     negative rho (up, down):  2.296E-01 0.000E+00

     total cpu time spent up to now is       20.6 secs

     total energy              =    -295.78997325 Ry
     Harris-Foulkes estimate   =   -1007.69305896 Ry
     estimated scf accuracy    <      24.71980471 Ry

     iteration # 95     ecut=    30.00 Ry     beta=0.70
     Davidson diagonalization with overlap
     ethr =  4.22E-03,  avg # of iterations =  4.0

     negative rho (up, down):  4.029E-01 0.000E+00

     total cpu time spent up to now is       20.7 secs

     total energy              =   -5207.34047369 Ry
     Harris-Foulkes estimate   =   -1122.73457596 Ry
     estimated scf accuracy    <      41.81253263 Ry

     iteration # 96     ecut=    30.00 Ry     beta=0.70
     Davidson diagonalization with overlap
     ethr =  4.22E-03,  avg # of iterations =  8.0

     negative rho (up, down):  5.516E-01 0.000E+00

     total cpu time spent up to now is       20.8 secs

     total energy              =      59.52166417 Ry
     Harris-Foulkes estimate   =  -11888.55981244 Ry
     estimated scf accuracy    <      34.84655394 Ry

     iteration # 97     ecut=    30.00 Ry     beta=0.70
     Davidson diagonalization with overlap
     ethr =  4.22E-03,  avg # of iterations =  5.0

     negative rho (up, down):  6.794E-01 0.000E+00

     total cpu time spent up to now is       20.8 secs

     total energy              =      86.62106933 Ry
     Harris-Foulkes estimate   =    -588.51527818 Ry
     estimated scf accuracy    <      43.84144078 Ry

     iteration # 98     ecut=    30.00 Ry     beta=0.70
     Davidson diagonalization with overlap
     ethr =  4.22E-03,  avg # of iterations =  7.0

     negative rho (up, down):  5.647E-01 0.000E+00

     total cpu time spent up to now is       20.9 secs

     total energy              =      53.55341768 Ry
     Harris-Foulkes estimate   =    -266.60830924 Ry
     estimated scf accuracy    <      26.95900138 Ry

     iteration # 99     ecut=    30.00 Ry     beta=0.70
     Davidson diagonalization with overlap
     ethr =  4.22E-03,  avg # of iterations =  7.0

     negative rho (up, down):  7.332E-01 0.000E+00

     total cpu time spent up to now is       20.9 secs

     total energy              =      -6.00034147 Ry
     Harris-Foulkes estimate   =    -331.43870171 Ry
     estimated scf accuracy    <      18.22408268 Ry

     iteration #100     ecut=    30.00 Ry     beta=0.70
     Davidson diagonalization with overlap
     ethr =  4.22E-03,  avg # of iterations =  9.0

     negative rho (up, down):  5.760E-01 0.000E+00

     total cpu time spent up to now is       21.0 secs

     total energy              =     -40.86587999 Ry
     Harris-Foulkes estimate   =   -4673.65833542 Ry
     estimated scf accuracy    <      22.76447629 Ry

     End of self-consistent calculation

     convergence NOT achieved after 100 iterations: stopping

     Writing output data file pwscf.save
 
     init_run     :      0.10s CPU      0.11s WALL (       1 calls)
     electrons    :     13.48s CPU     17.59s WALL (      13 calls)
     update_pot   :      1.51s CPU      2.14s WALL (      12 calls)
     forces       :      0.33s CPU      0.34s WALL (      12 calls)

     Called by init_run:
     wfcinit      :      0.01s CPU      0.02s WALL (       1 calls)
     potinit      :      0.03s CPU      0.03s WALL (       1 calls)

     Called by electrons:
     c_bands      :      5.89s CPU      6.51s WALL (     418 calls)
     sum_band     :      1.23s CPU      1.32s WALL (     418 calls)
     v_of_rho     :      3.04s CPU      3.24s WALL (     431 calls)
     mix_rho      :      2.80s CPU      4.96s WALL (     418 calls)

     Called by c_bands:
     init_us_2    :      0.04s CPU      0.05s WALL (     837 calls)
     cegterg      :      5.80s CPU      6.28s WALL (     418 calls)

     Called by sum_band:

     Called by *egterg:
     h_psi        :      4.88s CPU      5.15s WALL (    1791 calls)
     g_psi        :      0.04s CPU      0.05s WALL (    1372 calls)
     cdiaghg      :      0.34s CPU      0.39s WALL (    1778 calls)

     Called by h_psi:
     h_psi:pot    :      4.85s CPU      5.12s WALL (    1791 calls)
     h_psi:calbec :      0.12s CPU      0.16s WALL (    1791 calls)
     vloc_psi     :      4.70s CPU      4.94s WALL (    1791 calls)
     add_vuspsi   :      0.01s CPU      0.02s WALL (    1791 calls)

     General routines
     calbec       :      0.22s CPU      0.29s WALL (    1850 calls)
     fft          :      1.97s CPU      2.09s WALL (    4765 calls)
     fftw         :      5.00s CPU      5.29s WALL (   22466 calls)
     davcio       :      0.46s CPU      1.83s WALL (    7216 calls)
 
     Parallel routines
     fft_scatter  :      2.78s CPU      3.06s WALL (   27231 calls)
 
     PWSCF        :    15.79s CPU        21.07s WALL

 
   This run was terminated on:   2:41:11  11Feb2018            

=------------------------------------------------------------------------------=
   JOB DONE.
=------------------------------------------------------------------------------=
