
     Program PWSCF v.6.0 (svn rev. 13079) starts on 11Feb2018 at  2:49:14 

     This program is part of the open-source Quantum ESPRESSO suite
     for quantum simulation of materials; please cite
         "P. Giannozzi et al., J. Phys.:Condens. Matter 21 395502 (2009);
          URL http://www.quantum-espresso.org", 
     in publications or presentations arising from this work. More details at
     http://www.quantum-espresso.org/quote

     Parallel version (MPI), running on    28 processors
     R & G space division:  proc/nbgrp/npool/nimage =      28
     Reading input from inputs/water-1-md/556.in

     Current dimensions of program PWSCF are:
     Max number of different atomic species (ntypx) = 10
     Max number of k-points (npk) =  40000
     Max angular momentum in pseudopotentials (lmaxx) =  3

     Subspace diagonalization in iterative solution of the eigenvalue problem:
     a serial algorithm will be used

 
     Parallelization info
     --------------------
     sticks:   dense  smooth     PW     G-vecs:    dense   smooth      PW
     Min         136     136     33                 6338     6338     787
     Max         137     137     34                 6341     6341     792
     Sum        3809    3809    949               177509   177509   22119
 


     bravais-lattice index     =            1
     lattice parameter (alat)  =      20.0000  a.u.
     unit-cell volume          =    8000.0000 (a.u.)^3
     number of atoms/cell      =            3
     number of atomic types    =            2
     number of electrons       =         8.00
     number of Kohn-Sham states=            8
     kinetic-energy cutoff     =      30.0000  Ry
     charge density cutoff     =     120.0000  Ry
     convergence threshold     =      1.0E-08
     mixing beta               =       0.7000
     number of iterations used =            8  plain     mixing
     Exchange-correlation      = BLYP ( 1  3  1  3 0 0)
     nstep                     =         5000


     celldm(1)=  20.000000  celldm(2)=   0.000000  celldm(3)=   0.000000
     celldm(4)=   0.000000  celldm(5)=   0.000000  celldm(6)=   0.000000

     crystal axes: (cart. coord. in units of alat)
               a(1) = (   1.000000   0.000000   0.000000 )  
               a(2) = (   0.000000   1.000000   0.000000 )  
               a(3) = (   0.000000   0.000000   1.000000 )  

     reciprocal axes: (cart. coord. in units 2 pi/alat)
               b(1) = (  1.000000  0.000000  0.000000 )  
               b(2) = (  0.000000  1.000000  0.000000 )  
               b(3) = (  0.000000  0.000000  1.000000 )  


     PseudoPot. # 1 for  H read from file:
     ./H.blyp-hgh.UPF
     MD5 check sum: c576e69559cde411e611be972c763230
     Pseudo is Norm-conserving, Zval =  1.0
     Generated in analytical, separable form
     Using radial grid of  929 points,  0 beta functions with: 

     PseudoPot. # 2 for  O read from file:
     ./O.blyp-hgh.UPF
     MD5 check sum: d0b7156309aa9befef28faac7bc56342
     Pseudo is Norm-conserving, Zval =  6.0
     Generated in analytical, separable form
     Using radial grid of 1095 points,  1 beta functions with: 
                l(1) =   0

     atomic species   valence    mass     pseudopotential
        H              1.00     1.01000      H( 1.00)
        O              6.00    16.00000      O( 1.00)

     No symmetry found



   Cartesian axes

     site n.     atom                  positions (alat units)
         1           H   tau(   1) = (   0.3361118   0.0564681   0.9551502  )
         2           H   tau(   2) = (   0.9526971   0.6506154   0.1117843  )
         3           O   tau(   3) = (   0.2535578   0.1244773   0.3171837  )

     number of k points=     1  Marzari-Vanderbilt smearing, width (Ry)=  0.0250
                       cart. coord. in units 2pi/alat
        k(    1) = (   0.0000000   0.0000000   0.0000000), wk =   2.0000000

     Dense  grid:   177509 G-vectors     FFT dimensions: (  72,  72,  72)

     Estimated max dynamical RAM per process >       6.09Mb

     Estimated total allocated dynamical RAM >     170.64Mb

     Initial potential from superposition of free atoms
     Check: negative starting charge=   -0.343846

     starting charge    7.99998, renormalised to    8.00000

     negative rho (up, down):  3.438E-01 0.000E+00
     Starting wfc are    6 randomized atomic wfcs +    2 random wfc

     total cpu time spent up to now is        0.2 secs

     per-process dynamical memory:    18.8 Mb

     Self-consistent Calculation

     iteration #  1     ecut=    30.00 Ry     beta=0.70
     Davidson diagonalization with overlap
     ethr =  1.00E-02,  avg # of iterations =  8.0

     negative rho (up, down):  8.262E-02 0.000E+00

     total cpu time spent up to now is        0.3 secs

     total energy              =     -28.19272915 Ry
     Harris-Foulkes estimate   =     -32.07163399 Ry
     estimated scf accuracy    <       4.46607996 Ry

     iteration #  2     ecut=    30.00 Ry     beta=0.70
     Davidson diagonalization with overlap
     ethr =  1.00E-02,  avg # of iterations =  4.0

     negative rho (up, down):  6.055E-02 0.000E+00

     total cpu time spent up to now is        0.3 secs

     total energy              =     -32.58214242 Ry
     Harris-Foulkes estimate   =     -37.72275490 Ry
     estimated scf accuracy    <      12.56482951 Ry

     iteration #  3     ecut=    30.00 Ry     beta=0.70
     Davidson diagonalization with overlap
     ethr =  1.00E-02,  avg # of iterations =  4.0

     negative rho (up, down):  6.255E-02 0.000E+00

     total cpu time spent up to now is        0.4 secs

     total energy              =     -33.13029159 Ry
     Harris-Foulkes estimate   =     -32.92092549 Ry
     estimated scf accuracy    <       4.81303562 Ry

     iteration #  4     ecut=    30.00 Ry     beta=0.70
     Davidson diagonalization with overlap
     ethr =  1.00E-02,  avg # of iterations =  1.0

     negative rho (up, down):  2.466E-02 0.000E+00

     total cpu time spent up to now is        0.4 secs

     total energy              =     -30.23904733 Ry
     Harris-Foulkes estimate   =     -33.13093581 Ry
     estimated scf accuracy    <       5.12629751 Ry

     iteration #  5     ecut=    30.00 Ry     beta=0.70
     Davidson diagonalization with overlap
     ethr =  1.00E-02,  avg # of iterations =  6.0

     negative rho (up, down):  2.194E-02 0.000E+00

     total cpu time spent up to now is        0.4 secs

     total energy              =     -33.19943700 Ry
     Harris-Foulkes estimate   =     -33.24822336 Ry
     estimated scf accuracy    <      13.47170624 Ry

     iteration #  6     ecut=    30.00 Ry     beta=0.70
     Davidson diagonalization with overlap
     ethr =  1.00E-02,  avg # of iterations =  1.0

     negative rho (up, down):  7.175E-02 0.000E+00

     total cpu time spent up to now is        0.5 secs

     total energy              =     -32.91315386 Ry
     Harris-Foulkes estimate   =     -33.20314136 Ry
     estimated scf accuracy    <      13.21244329 Ry

     iteration #  7     ecut=    30.00 Ry     beta=0.70
     Davidson diagonalization with overlap
     ethr =  1.00E-02,  avg # of iterations =  1.0

     negative rho (up, down):  1.554E-02 0.000E+00

     total cpu time spent up to now is        0.5 secs

     total energy              =     -32.54669251 Ry
     Harris-Foulkes estimate   =     -32.97038862 Ry
     estimated scf accuracy    <       6.65822878 Ry

     iteration #  8     ecut=    30.00 Ry     beta=0.70
     Davidson diagonalization with overlap
     ethr =  1.00E-02,  avg # of iterations =  1.0

     negative rho (up, down):  4.600E-03 0.000E+00

     total cpu time spent up to now is        0.5 secs

     total energy              =     -31.73722333 Ry
     Harris-Foulkes estimate   =     -32.57317136 Ry
     estimated scf accuracy    <       5.37442609 Ry

     iteration #  9     ecut=    30.00 Ry     beta=0.70
     Davidson diagonalization with overlap
     ethr =  1.00E-02,  avg # of iterations =  2.0

     negative rho (up, down):  4.439E-03 0.000E+00

     total cpu time spent up to now is        0.6 secs

     total energy              =     -31.65296727 Ry
     Harris-Foulkes estimate   =     -31.76486265 Ry
     estimated scf accuracy    <       3.92031971 Ry

     iteration # 10     ecut=    30.00 Ry     beta=0.70
     Davidson diagonalization with overlap
     ethr =  1.00E-02,  avg # of iterations =  1.0

     negative rho (up, down):  8.729E-03 0.000E+00

     total cpu time spent up to now is        0.6 secs

     total energy              =     -31.70892061 Ry
     Harris-Foulkes estimate   =     -31.65477284 Ry
     estimated scf accuracy    <       3.75286143 Ry

     iteration # 11     ecut=    30.00 Ry     beta=0.70
     Davidson diagonalization with overlap
     ethr =  1.00E-02,  avg # of iterations =  1.0

     negative rho (up, down):  2.179E-02 0.000E+00

     total cpu time spent up to now is        0.6 secs

     total energy              =     -31.87657360 Ry
     Harris-Foulkes estimate   =     -31.70901117 Ry
     estimated scf accuracy    <       3.80544287 Ry

     iteration # 12     ecut=    30.00 Ry     beta=0.70
     Davidson diagonalization with overlap
     ethr =  1.00E-02,  avg # of iterations =  1.0

     negative rho (up, down):  3.028E-03 0.000E+00

     total cpu time spent up to now is        0.7 secs

     total energy              =     -30.83432738 Ry
     Harris-Foulkes estimate   =     -31.87753399 Ry
     estimated scf accuracy    <       4.08587949 Ry

     iteration # 13     ecut=    30.00 Ry     beta=0.70
     Davidson diagonalization with overlap
     ethr =  1.00E-02,  avg # of iterations =  1.0

     negative rho (up, down):  5.231E-03 0.000E+00

     total cpu time spent up to now is        0.7 secs

     total energy              =     -31.48499478 Ry
     Harris-Foulkes estimate   =     -32.06785249 Ry
     estimated scf accuracy    <       3.44622969 Ry

     iteration # 14     ecut=    30.00 Ry     beta=0.70
     Davidson diagonalization with overlap
     ethr =  1.00E-02,  avg # of iterations =  1.0

     total cpu time spent up to now is        0.7 secs

     total energy              =     -31.49128453 Ry
     Harris-Foulkes estimate   =     -31.49793370 Ry
     estimated scf accuracy    <       0.55581208 Ry

     iteration # 15     ecut=    30.00 Ry     beta=0.70
     Davidson diagonalization with overlap
     ethr =  6.95E-03,  avg # of iterations =  1.0

     total cpu time spent up to now is        0.8 secs

     total energy              =     -31.51236314 Ry
     Harris-Foulkes estimate   =     -31.49432447 Ry
     estimated scf accuracy    <       0.12433359 Ry

     iteration # 16     ecut=    30.00 Ry     beta=0.70
     Davidson diagonalization with overlap
     ethr =  1.55E-03,  avg # of iterations =  1.0

     negative rho (up, down):  2.878E-04 0.000E+00

     total cpu time spent up to now is        0.8 secs

     total energy              =     -31.38292156 Ry
     Harris-Foulkes estimate   =     -31.57658138 Ry
     estimated scf accuracy    <       2.61251468 Ry

     iteration # 17     ecut=    30.00 Ry     beta=0.70
     Davidson diagonalization with overlap
     ethr =  1.55E-03,  avg # of iterations =  1.0

     negative rho (up, down):  4.728E-04 0.000E+00

     total cpu time spent up to now is        0.8 secs

     total energy              =     -31.56765250 Ry
     Harris-Foulkes estimate   =     -31.55351512 Ry
     estimated scf accuracy    <       4.20552741 Ry

     iteration # 18     ecut=    30.00 Ry     beta=0.70
     Davidson diagonalization with overlap
     ethr =  1.55E-03,  avg # of iterations =  1.0

     negative rho (up, down):  1.282E-03 0.000E+00

     total cpu time spent up to now is        0.8 secs

     total energy              =     -31.61266031 Ry
     Harris-Foulkes estimate   =     -31.56795524 Ry
     estimated scf accuracy    <       4.43618287 Ry

     iteration # 19     ecut=    30.00 Ry     beta=0.70
     Davidson diagonalization with overlap
     ethr =  1.55E-03,  avg # of iterations =  1.0

     negative rho (up, down):  2.227E-04 0.000E+00

     total cpu time spent up to now is        0.9 secs

     total energy              =     -31.52903213 Ry
     Harris-Foulkes estimate   =     -31.61156083 Ry
     estimated scf accuracy    <       3.93665739 Ry

     iteration # 20     ecut=    30.00 Ry     beta=0.70
     Davidson diagonalization with overlap
     ethr =  1.55E-03,  avg # of iterations =  1.0

     negative rho (up, down):  1.253E-04 0.000E+00

     total cpu time spent up to now is        0.9 secs

     total energy              =     -31.48801096 Ry
     Harris-Foulkes estimate   =     -31.52708489 Ry
     estimated scf accuracy    <       3.00501992 Ry

     iteration # 21     ecut=    30.00 Ry     beta=0.70
     Davidson diagonalization with overlap
     ethr =  1.55E-03,  avg # of iterations =  1.0

     negative rho (up, down):  8.578E-04 0.000E+00

     total cpu time spent up to now is        0.9 secs

     total energy              =     -31.49862912 Ry
     Harris-Foulkes estimate   =     -31.49866330 Ry
     estimated scf accuracy    <       0.56739216 Ry

     iteration # 22     ecut=    30.00 Ry     beta=0.70
     Davidson diagonalization with overlap
     ethr =  1.55E-03,  avg # of iterations =  1.0

     negative rho (up, down):  1.553E-03 0.000E+00

     total cpu time spent up to now is        1.0 secs

     total energy              =     -31.48017911 Ry
     Harris-Foulkes estimate   =     -31.49864428 Ry
     estimated scf accuracy    <       0.57060678 Ry

     iteration # 23     ecut=    30.00 Ry     beta=0.70
     Davidson diagonalization with overlap
     ethr =  1.55E-03,  avg # of iterations =  1.0

     negative rho (up, down):  1.195E-04 0.000E+00

     total cpu time spent up to now is        1.0 secs

     total energy              =     -31.48801532 Ry
     Harris-Foulkes estimate   =     -31.49721336 Ry
     estimated scf accuracy    <       0.35025171 Ry

     iteration # 24     ecut=    30.00 Ry     beta=0.70
     Davidson diagonalization with overlap
     ethr =  1.55E-03,  avg # of iterations =  1.0

     negative rho (up, down):  2.392E-05 0.000E+00

     total cpu time spent up to now is        1.0 secs

     total energy              =     -31.49712748 Ry
     Harris-Foulkes estimate   =     -31.49407015 Ry
     estimated scf accuracy    <       0.08843811 Ry

     iteration # 25     ecut=    30.00 Ry     beta=0.70
     Davidson diagonalization with overlap
     ethr =  1.11E-03,  avg # of iterations =  1.0

     negative rho (up, down):  7.882E-04 0.000E+00

     total cpu time spent up to now is        1.1 secs

     total energy              =     -31.51211703 Ry
     Harris-Foulkes estimate   =     -31.50251121 Ry
     estimated scf accuracy    <       0.96238495 Ry

     iteration # 26     ecut=    30.00 Ry     beta=0.70
     Davidson diagonalization with overlap
     ethr =  1.11E-03,  avg # of iterations =  1.0

     negative rho (up, down):  7.726E-04 0.000E+00

     total cpu time spent up to now is        1.1 secs

     total energy              =     -31.52645010 Ry
     Harris-Foulkes estimate   =     -31.51459449 Ry
     estimated scf accuracy    <       2.08519234 Ry

     iteration # 27     ecut=    30.00 Ry     beta=0.70
     Davidson diagonalization with overlap
     ethr =  1.11E-03,  avg # of iterations =  1.0

     negative rho (up, down):  3.179E-04 0.000E+00

     total cpu time spent up to now is        1.1 secs

     total energy              =     -31.50545062 Ry
     Harris-Foulkes estimate   =     -31.52777469 Ry
     estimated scf accuracy    <       3.07370164 Ry

     iteration # 28     ecut=    30.00 Ry     beta=0.70
     Davidson diagonalization with overlap
     ethr =  1.11E-03,  avg # of iterations =  1.0

     negative rho (up, down):  3.424E-04 0.000E+00

     total cpu time spent up to now is        1.2 secs

     total energy              =     -31.48994284 Ry
     Harris-Foulkes estimate   =     -31.50870013 Ry
     estimated scf accuracy    <       1.53942299 Ry

     iteration # 29     ecut=    30.00 Ry     beta=0.70
     Davidson diagonalization with overlap
     ethr =  1.11E-03,  avg # of iterations =  1.0

     negative rho (up, down):  1.118E-04 0.000E+00

     total cpu time spent up to now is        1.2 secs

     total energy              =     -31.49530232 Ry
     Harris-Foulkes estimate   =     -31.49587272 Ry
     estimated scf accuracy    <       0.26381109 Ry

     iteration # 30     ecut=    30.00 Ry     beta=0.70
     Davidson diagonalization with overlap
     ethr =  1.11E-03,  avg # of iterations =  1.0

     negative rho (up, down):  6.362E-05 0.000E+00

     total cpu time spent up to now is        1.2 secs

     total energy              =     -31.49563488 Ry
     Harris-Foulkes estimate   =     -31.49533122 Ry
     estimated scf accuracy    <       0.21542867 Ry

     iteration # 31     ecut=    30.00 Ry     beta=0.70
     Davidson diagonalization with overlap
     ethr =  1.11E-03,  avg # of iterations =  1.0

     negative rho (up, down):  1.522E-04 0.000E+00

     total cpu time spent up to now is        1.3 secs

     total energy              =     -31.49607609 Ry
     Harris-Foulkes estimate   =     -31.49565411 Ry
     estimated scf accuracy    <       0.24841717 Ry

     iteration # 32     ecut=    30.00 Ry     beta=0.70
     Davidson diagonalization with overlap
     ethr =  1.11E-03,  avg # of iterations =  1.0

     negative rho (up, down):  1.454E-05 0.000E+00

     total cpu time spent up to now is        1.3 secs

     total energy              =     -31.49650023 Ry
     Harris-Foulkes estimate   =     -31.49609903 Ry
     estimated scf accuracy    <       0.29205380 Ry

     iteration # 33     ecut=    30.00 Ry     beta=0.70
     Davidson diagonalization with overlap
     ethr =  1.11E-03,  avg # of iterations =  1.0

     negative rho (up, down):  1.554E-05 0.000E+00

     total cpu time spent up to now is        1.3 secs

     total energy              =     -31.49677137 Ry
     Harris-Foulkes estimate   =     -31.49655194 Ry
     estimated scf accuracy    <       0.34859229 Ry

     iteration # 34     ecut=    30.00 Ry     beta=0.70
     Davidson diagonalization with overlap
     ethr =  1.11E-03,  avg # of iterations =  1.0

     negative rho (up, down):  5.057E-05 0.000E+00

     total cpu time spent up to now is        1.4 secs

     total energy              =     -31.49793465 Ry
     Harris-Foulkes estimate   =     -31.49677486 Ry
     estimated scf accuracy    <       0.37001143 Ry

     iteration # 35     ecut=    30.00 Ry     beta=0.70
     Davidson diagonalization with overlap
     ethr =  1.11E-03,  avg # of iterations =  1.0

     negative rho (up, down):  2.962E-06 0.000E+00

     total cpu time spent up to now is        1.4 secs

     total energy              =     -31.48797226 Ry
     Harris-Foulkes estimate   =     -31.49801765 Ry
     estimated scf accuracy    <       0.48324126 Ry

     iteration # 36     ecut=    30.00 Ry     beta=0.70
     Davidson diagonalization with overlap
     ethr =  1.11E-03,  avg # of iterations =  1.0

     negative rho (up, down):  1.535E-07 0.000E+00

     total cpu time spent up to now is        1.4 secs

     total energy              =     -31.49288807 Ry
     Harris-Foulkes estimate   =     -31.49289133 Ry
     estimated scf accuracy    <       0.00011636 Ry

     iteration # 37     ecut=    30.00 Ry     beta=0.70
     Davidson diagonalization with overlap
     c_bands:  1 eigenvalues not converged
     ethr =  1.45E-06,  avg # of iterations = 20.0

     total cpu time spent up to now is        1.5 secs

     total energy              =     -31.49289072 Ry
     Harris-Foulkes estimate   =     -31.49289166 Ry
     estimated scf accuracy    <       0.00000497 Ry

     iteration # 38     ecut=    30.00 Ry     beta=0.70
     Davidson diagonalization with overlap
     ethr =  6.21E-08,  avg # of iterations =  3.0

     total cpu time spent up to now is        1.5 secs

     total energy              =     -31.49289003 Ry
     Harris-Foulkes estimate   =     -31.49289101 Ry
     estimated scf accuracy    <       0.00000341 Ry

     iteration # 39     ecut=    30.00 Ry     beta=0.70
     Davidson diagonalization with overlap
     ethr =  4.27E-08,  avg # of iterations =  1.0

     total cpu time spent up to now is        1.6 secs

     total energy              =     -31.49288948 Ry
     Harris-Foulkes estimate   =     -31.49289012 Ry
     estimated scf accuracy    <       0.00000151 Ry

     iteration # 40     ecut=    30.00 Ry     beta=0.70
     Davidson diagonalization with overlap
     ethr =  1.89E-08,  avg # of iterations =  1.0

     total cpu time spent up to now is        1.6 secs

     total energy              =     -31.49288908 Ry
     Harris-Foulkes estimate   =     -31.49288951 Ry
     estimated scf accuracy    <       0.00000020 Ry

     iteration # 41     ecut=    30.00 Ry     beta=0.70
     Davidson diagonalization with overlap
     ethr =  2.47E-09,  avg # of iterations =  1.0

     total cpu time spent up to now is        1.6 secs

     total energy              =     -31.49288905 Ry
     Harris-Foulkes estimate   =     -31.49288909 Ry
     estimated scf accuracy    <       0.00000028 Ry

     iteration # 42     ecut=    30.00 Ry     beta=0.70
     Davidson diagonalization with overlap
     ethr =  2.47E-09,  avg # of iterations =  1.0

     total cpu time spent up to now is        1.7 secs

     total energy              =     -31.49288905 Ry
     Harris-Foulkes estimate   =     -31.49288905 Ry
     estimated scf accuracy    <       0.00000005 Ry

     iteration # 43     ecut=    30.00 Ry     beta=0.70
     Davidson diagonalization with overlap
     ethr =  6.53E-10,  avg # of iterations =  1.0

     total cpu time spent up to now is        1.7 secs

     End of self-consistent calculation

          k = 0.0000 0.0000 0.0000 ( 22119 PWs)   bands (ev):

   -23.5955  -7.0554  -7.0088  -7.0084  -6.9042  -6.8545  -0.2124   0.6543

     the Fermi energy is    -6.8739 ev

!    total energy              =     -31.49288907 Ry
     Harris-Foulkes estimate   =     -31.49288905 Ry
     estimated scf accuracy    <          4.1E-09 Ry

     convergence has been achieved in  43 iterations

     Forces acting on atoms (Ry/au):

     atom    1 type  1   force =    -0.00128379    0.00071018    0.00318365
     atom    2 type  1   force =    -0.00067304    0.00012817    0.00058744
     atom    3 type  2   force =     0.00195683   -0.00083835   -0.00377109

     Total force =     0.005644     Total SCF correction =     0.000047

     Molecular Dynamics Calculation

     Starting temperature  =  1000.00 K

     temperature is controlled by Andersen thermostat
     Collision frequency = 1.0000/timestep
     mass H                =     1.01
     mass O                =    16.00
     Time step             =   100.00 a.u.,  4.8378 femto-seconds

     Entering Dynamics:    iteration =     1
                           time      =   0.0048 pico-seconds


     Andersen thermostat:    3 collisions

ATOMIC_POSITIONS (bohr)
H        6.816873981   1.052052378  19.217461920
H       19.316535984  12.794408509   1.554658248
O        5.048605732   2.508181075   6.379438721


     kinetic energy (Ekin) =     0.02987908 Ry
     temperature           =  1572.50941259 K 
     Ekin + Etot (const)   =   -31.46300999 Ry

     Linear momentum :    0.0000000000   -0.0000000000    0.0000000000

     Writing output data file pwscf.save
     Check: negative starting charge=   -0.343846
     NEW-OLD atomic charge density approx. for the potential
     Check: negative starting charge=   -0.343836

     negative rho (up, down):  8.137E-02 0.000E+00

     total cpu time spent up to now is        1.9 secs

     per-process dynamical memory:    20.4 Mb

     Self-consistent Calculation

     iteration #  1     ecut=    30.00 Ry     beta=0.70
     Davidson diagonalization with overlap
     c_bands:  1 eigenvalues not converged
     ethr =  1.00E-06,  avg # of iterations = 20.0

     negative rho (up, down):  1.908E-02 0.000E+00

     total cpu time spent up to now is        2.0 secs

     total energy              =     -30.46252944 Ry
     Harris-Foulkes estimate   =     -31.52261334 Ry
     estimated scf accuracy    <       1.22690028 Ry

     iteration #  2     ecut=    30.00 Ry     beta=0.70
     Davidson diagonalization with overlap
     ethr =  1.00E-02,  avg # of iterations =  3.0

     negative rho (up, down):  1.499E-02 0.000E+00

     total cpu time spent up to now is        2.1 secs

     total energy              =     -31.68432276 Ry
     Harris-Foulkes estimate   =     -33.80031573 Ry
     estimated scf accuracy    <       6.35246075 Ry

     iteration #  3     ecut=    30.00 Ry     beta=0.70
     Davidson diagonalization with overlap
     ethr =  1.00E-02,  avg # of iterations =  2.0

     negative rho (up, down):  1.263E-02 0.000E+00

     total cpu time spent up to now is        2.1 secs

     total energy              =     -31.79205364 Ry
     Harris-Foulkes estimate   =     -32.26423724 Ry
     estimated scf accuracy    <       2.13387989 Ry

     iteration #  4     ecut=    30.00 Ry     beta=0.70
     Davidson diagonalization with overlap
     ethr =  1.00E-02,  avg # of iterations =  1.0

     negative rho (up, down):  1.140E-02 0.000E+00

     total cpu time spent up to now is        2.1 secs

     total energy              =     -31.65038037 Ry
     Harris-Foulkes estimate   =     -31.87644275 Ry
     estimated scf accuracy    <       2.96842934 Ry

     iteration #  5     ecut=    30.00 Ry     beta=0.70
     Davidson diagonalization with overlap
     ethr =  1.00E-02,  avg # of iterations =  1.0

     negative rho (up, down):  1.024E-02 0.000E+00

     total cpu time spent up to now is        2.2 secs

     total energy              =     -31.58868960 Ry
     Harris-Foulkes estimate   =     -31.71700833 Ry
     estimated scf accuracy    <       1.45058715 Ry

     iteration #  6     ecut=    30.00 Ry     beta=0.70
     Davidson diagonalization with overlap
     ethr =  1.00E-02,  avg # of iterations =  3.0

     negative rho (up, down):  8.001E-03 0.000E+00

     total cpu time spent up to now is        2.2 secs

     total energy              =     -31.42523227 Ry
     Harris-Foulkes estimate   =     -31.60553006 Ry
     estimated scf accuracy    <       1.00110975 Ry

     iteration #  7     ecut=    30.00 Ry     beta=0.70
     Davidson diagonalization with overlap
     ethr =  1.00E-02,  avg # of iterations =  1.0

     negative rho (up, down):  4.827E-03 0.000E+00

     total cpu time spent up to now is        2.3 secs

     total energy              =     -31.41593719 Ry
     Harris-Foulkes estimate   =     -31.53982244 Ry
     estimated scf accuracy    <       1.08626381 Ry

     iteration #  8     ecut=    30.00 Ry     beta=0.70
     Davidson diagonalization with overlap
     ethr =  1.00E-02,  avg # of iterations =  1.0

     negative rho (up, down):  4.428E-04 0.000E+00

     total cpu time spent up to now is        2.3 secs

     total energy              =     -31.35633784 Ry
     Harris-Foulkes estimate   =     -31.52531858 Ry
     estimated scf accuracy    <       0.93407163 Ry

     iteration #  9     ecut=    30.00 Ry     beta=0.70
     Davidson diagonalization with overlap
     ethr =  1.00E-02,  avg # of iterations =  1.0

     negative rho (up, down):  4.240E-04 0.000E+00

     total cpu time spent up to now is        2.3 secs

     total energy              =     -31.60300247 Ry
     Harris-Foulkes estimate   =     -31.64662893 Ry
     estimated scf accuracy    <       1.62219226 Ry

     iteration # 10     ecut=    30.00 Ry     beta=0.70
     Davidson diagonalization with overlap
     ethr =  1.00E-02,  avg # of iterations =  1.0

     negative rho (up, down):  2.772E-05 0.000E+00

     total cpu time spent up to now is        2.4 secs

     total energy              =     -31.55441960 Ry
     Harris-Foulkes estimate   =     -31.60325316 Ry
     estimated scf accuracy    <       1.52490923 Ry

     iteration # 11     ecut=    30.00 Ry     beta=0.70
     Davidson diagonalization with overlap
     ethr =  1.00E-02,  avg # of iterations =  1.0

     negative rho (up, down):  8.829E-07 0.000E+00

     total cpu time spent up to now is        2.4 secs

     total energy              =     -31.57643760 Ry
     Harris-Foulkes estimate   =     -31.55457434 Ry
     estimated scf accuracy    <       1.41212982 Ry

     iteration # 12     ecut=    30.00 Ry     beta=0.70
     Davidson diagonalization with overlap
     ethr =  1.00E-02,  avg # of iterations =  1.0

     negative rho (up, down):  8.068E-08 0.000E+00

     total cpu time spent up to now is        2.4 secs

     total energy              =     -31.50987720 Ry
     Harris-Foulkes estimate   =     -31.57616548 Ry
     estimated scf accuracy    <       1.43595040 Ry

     iteration # 13     ecut=    30.00 Ry     beta=0.70
     Davidson diagonalization with overlap
     ethr =  1.00E-02,  avg # of iterations =  1.0

     negative rho (up, down):  1.036E-07 0.000E+00

     total cpu time spent up to now is        2.5 secs

     total energy              =     -31.45685772 Ry
     Harris-Foulkes estimate   =     -31.50756261 Ry
     estimated scf accuracy    <       0.99470161 Ry

     iteration # 14     ecut=    30.00 Ry     beta=0.70
     Davidson diagonalization with overlap
     ethr =  1.00E-02,  avg # of iterations =  1.0

     total cpu time spent up to now is        2.5 secs

     total energy              =     -31.49193392 Ry
     Harris-Foulkes estimate   =     -31.50254283 Ry
     estimated scf accuracy    <       0.46423572 Ry

     iteration # 15     ecut=    30.00 Ry     beta=0.70
     Davidson diagonalization with overlap
     ethr =  5.80E-03,  avg # of iterations =  1.0

     total cpu time spent up to now is        2.6 secs

     total energy              =     -31.49074142 Ry
     Harris-Foulkes estimate   =     -31.49438062 Ry
     estimated scf accuracy    <       0.10625297 Ry

     iteration # 16     ecut=    30.00 Ry     beta=0.70
     Davidson diagonalization with overlap
     ethr =  1.33E-03,  avg # of iterations =  1.0

     total cpu time spent up to now is        2.6 secs

     total energy              =     -31.49302796 Ry
     Harris-Foulkes estimate   =     -31.49291082 Ry
     estimated scf accuracy    <       0.00600869 Ry

     iteration # 17     ecut=    30.00 Ry     beta=0.70
     Davidson diagonalization with overlap
     ethr =  7.51E-05,  avg # of iterations =  7.0

     total cpu time spent up to now is        2.7 secs

     total energy              =     -31.49238729 Ry
     Harris-Foulkes estimate   =     -31.49307164 Ry
     estimated scf accuracy    <       0.01867147 Ry

     iteration # 18     ecut=    30.00 Ry     beta=0.70
     Davidson diagonalization with overlap
     ethr =  7.51E-05,  avg # of iterations =  1.0

     total cpu time spent up to now is        2.7 secs

     total energy              =     -31.49283444 Ry
     Harris-Foulkes estimate   =     -31.49287632 Ry
     estimated scf accuracy    <       0.00358823 Ry

     iteration # 19     ecut=    30.00 Ry     beta=0.70
     Davidson diagonalization with overlap
     ethr =  4.49E-05,  avg # of iterations =  1.0

     total cpu time spent up to now is        2.8 secs

     total energy              =     -31.49278552 Ry
     Harris-Foulkes estimate   =     -31.49284405 Ry
     estimated scf accuracy    <       0.00104067 Ry

     iteration # 20     ecut=    30.00 Ry     beta=0.70
     Davidson diagonalization with overlap
     ethr =  1.30E-05,  avg # of iterations =  1.0

     total cpu time spent up to now is        2.8 secs

     total energy              =     -31.49274142 Ry
     Harris-Foulkes estimate   =     -31.49285440 Ry
     estimated scf accuracy    <       0.00178061 Ry

     iteration # 21     ecut=    30.00 Ry     beta=0.70
     Davidson diagonalization with overlap
     ethr =  1.30E-05,  avg # of iterations =  1.0

     total cpu time spent up to now is        2.9 secs

     total energy              =     -31.49278690 Ry
     Harris-Foulkes estimate   =     -31.49288338 Ry
     estimated scf accuracy    <       0.00391103 Ry

     iteration # 22     ecut=    30.00 Ry     beta=0.70
     Davidson diagonalization with overlap
     ethr =  1.30E-05,  avg # of iterations =  1.0

     total cpu time spent up to now is        2.9 secs

     total energy              =     -31.49283179 Ry
     Harris-Foulkes estimate   =     -31.49283192 Ry
     estimated scf accuracy    <       0.00001121 Ry

     iteration # 23     ecut=    30.00 Ry     beta=0.70
     Davidson diagonalization with overlap
     ethr =  1.40E-07,  avg # of iterations = 11.0

     total cpu time spent up to now is        3.0 secs

     total energy              =     -31.49283170 Ry
     Harris-Foulkes estimate   =     -31.49283183 Ry
     estimated scf accuracy    <       0.00000452 Ry

     iteration # 24     ecut=    30.00 Ry     beta=0.70
     Davidson diagonalization with overlap
     ethr =  5.65E-08,  avg # of iterations =  1.0

     total cpu time spent up to now is        3.0 secs

     End of self-consistent calculation

          k = 0.0000 0.0000 0.0000 ( 22119 PWs)   bands (ev):

   -23.6006  -7.0602  -7.0123  -7.0121  -6.9078  -6.8567  -0.2122   0.6446

     the Fermi energy is    -6.8775 ev

!    total energy              =     -31.49283177 Ry
     Harris-Foulkes estimate   =     -31.49283176 Ry
     estimated scf accuracy    <          7.2E-09 Ry

     convergence has been achieved in  24 iterations

     Forces acting on atoms (Ry/au):

     atom    1 type  1   force =    -0.00154871    0.00042581    0.00286254
     atom    2 type  1   force =    -0.00086597   -0.00018052    0.00027449
     atom    3 type  2   force =     0.00241468   -0.00024529   -0.00313703

     Total force =     0.005231     Total SCF correction =     0.000027

     Entering Dynamics:    iteration =     2
                           time      =   0.0097 pico-seconds


     Andersen thermostat:    3 collisions

ATOMIC_POSITIONS (bohr)
H        6.277429650   1.358119146  19.016512957
H       19.277147852  12.656061852   1.604831063
O        5.085144531   2.497593743   6.388956465


     kinetic energy (Ekin) =     0.02216762 Ry
     temperature           =  1166.66225734 K 
     Ekin + Etot (const)   =   -31.47066414 Ry
     Message from routine dynamics:
     Total linear momentum <> 0

     Linear momentum :   -0.1926309226   -0.0428965300   -0.1230492597

     Writing output data file pwscf.save

     first order wave-functions extrapolation
     Check: negative starting charge=   -0.343836
     first order charge density extrapolation
     Check: negative starting charge=   -0.344178

     negative rho (up, down):  1.373E-01 0.000E+00

     total cpu time spent up to now is        3.4 secs

     per-process dynamical memory:    20.4 Mb

     Self-consistent Calculation

     iteration #  1     ecut=    30.00 Ry     beta=0.70
     Davidson diagonalization with overlap
     c_bands:  1 eigenvalues not converged
     ethr =  1.00E-06,  avg # of iterations = 20.0

     negative rho (up, down):  3.565E-02 0.000E+00

     total cpu time spent up to now is        3.5 secs

     total energy              =     -28.68669762 Ry
     Harris-Foulkes estimate   =     -32.51364626 Ry
     estimated scf accuracy    <       1.77839935 Ry

     iteration #  2     ecut=    30.00 Ry     beta=0.70
     Davidson diagonalization with overlap
     ethr =  1.00E-02,  avg # of iterations =  3.0

     negative rho (up, down):  2.709E-02 0.000E+00

     total cpu time spent up to now is        3.5 secs

     total energy              =     -31.48336394 Ry
     Harris-Foulkes estimate   =     -33.80482640 Ry
     estimated scf accuracy    <       6.31232954 Ry

     iteration #  3     ecut=    30.00 Ry     beta=0.70
     Davidson diagonalization with overlap
     ethr =  1.00E-02,  avg # of iterations =  2.0

     negative rho (up, down):  2.183E-02 0.000E+00

     total cpu time spent up to now is        3.5 secs

     total energy              =     -31.81552774 Ry
     Harris-Foulkes estimate   =     -32.45177385 Ry
     estimated scf accuracy    <       2.42184224 Ry

     iteration #  4     ecut=    30.00 Ry     beta=0.70
     Davidson diagonalization with overlap
     ethr =  1.00E-02,  avg # of iterations =  1.0

     negative rho (up, down):  1.806E-02 0.000E+00

     total cpu time spent up to now is        3.6 secs

     total energy              =     -31.52008168 Ry
     Harris-Foulkes estimate   =     -31.83125468 Ry
     estimated scf accuracy    <       1.44527718 Ry

     iteration #  5     ecut=    30.00 Ry     beta=0.70
     Davidson diagonalization with overlap
     ethr =  1.00E-02,  avg # of iterations =  1.0

     negative rho (up, down):  1.087E-02 0.000E+00

     total cpu time spent up to now is        3.6 secs

     total energy              =     -31.55477832 Ry
     Harris-Foulkes estimate   =     -31.86901857 Ry
     estimated scf accuracy    <       3.10977696 Ry

     iteration #  6     ecut=    30.00 Ry     beta=0.70
     Davidson diagonalization with overlap
     ethr =  1.00E-02,  avg # of iterations =  4.0

     negative rho (up, down):  1.122E-02 0.000E+00

     total cpu time spent up to now is        3.7 secs

     total energy              =     -31.40363413 Ry
     Harris-Foulkes estimate   =     -31.77146119 Ry
     estimated scf accuracy    <       1.45948316 Ry

     iteration #  7     ecut=    30.00 Ry     beta=0.70
     Davidson diagonalization with overlap
     ethr =  1.00E-02,  avg # of iterations =  1.0

     negative rho (up, down):  1.008E-02 0.000E+00

     total cpu time spent up to now is        3.7 secs

     total energy              =     -31.59650951 Ry
     Harris-Foulkes estimate   =     -31.67395923 Ry
     estimated scf accuracy    <       2.81294322 Ry

     iteration #  8     ecut=    30.00 Ry     beta=0.70
     Davidson diagonalization with overlap
     ethr =  1.00E-02,  avg # of iterations =  1.0

     negative rho (up, down):  3.715E-03 0.000E+00

     total cpu time spent up to now is        3.7 secs

     total energy              =     -31.20998594 Ry
     Harris-Foulkes estimate   =     -31.59737464 Ry
     estimated scf accuracy    <       2.42829279 Ry

     iteration #  9     ecut=    30.00 Ry     beta=0.70
     Davidson diagonalization with overlap
     ethr =  1.00E-02,  avg # of iterations =  1.0

     negative rho (up, down):  3.462E-03 0.000E+00

     total cpu time spent up to now is        3.8 secs

     total energy              =     -31.82939627 Ry
     Harris-Foulkes estimate   =     -31.83041032 Ry
     estimated scf accuracy    <       4.04490549 Ry

     iteration # 10     ecut=    30.00 Ry     beta=0.70
     Davidson diagonalization with overlap
     ethr =  1.00E-02,  avg # of iterations =  1.0

     negative rho (up, down):  1.440E-06 0.000E+00

     total cpu time spent up to now is        3.8 secs

     total energy              =     -32.04693082 Ry
     Harris-Foulkes estimate   =     -31.82976805 Ry
     estimated scf accuracy    <       4.03686224 Ry

     iteration # 11     ecut=    30.00 Ry     beta=0.70
     Davidson diagonalization with overlap
     ethr =  1.00E-02,  avg # of iterations =  1.0

     negative rho (up, down):  1.005E-06 0.000E+00

     total cpu time spent up to now is        3.8 secs

     total energy              =     -32.10538398 Ry
     Harris-Foulkes estimate   =     -32.04732822 Ry
     estimated scf accuracy    <       4.32357650 Ry

     iteration # 12     ecut=    30.00 Ry     beta=0.70
     Davidson diagonalization with overlap
     ethr =  1.00E-02,  avg # of iterations =  1.0

     negative rho (up, down):  1.792E-05 0.000E+00

     total cpu time spent up to now is        3.9 secs

     total energy              =     -32.06093510 Ry
     Harris-Foulkes estimate   =     -32.10571801 Ry
     estimated scf accuracy    <       4.41949634 Ry

     iteration # 13     ecut=    30.00 Ry     beta=0.70
     Davidson diagonalization with overlap
     ethr =  1.00E-02,  avg # of iterations =  1.0

     negative rho (up, down):  1.084E-04 0.000E+00

     total cpu time spent up to now is        3.9 secs

     total energy              =     -32.05584369 Ry
     Harris-Foulkes estimate   =     -32.06111339 Ry
     estimated scf accuracy    <       4.35602444 Ry

     iteration # 14     ecut=    30.00 Ry     beta=0.70
     Davidson diagonalization with overlap
     ethr =  1.00E-02,  avg # of iterations =  1.0

     negative rho (up, down):  6.252E-04 0.000E+00

     total cpu time spent up to now is        3.9 secs

     total energy              =     -32.06565763 Ry
     Harris-Foulkes estimate   =     -32.05599332 Ry
     estimated scf accuracy    <       4.35343203 Ry

     iteration # 15     ecut=    30.00 Ry     beta=0.70
     Davidson diagonalization with overlap
     ethr =  1.00E-02,  avg # of iterations =  1.0

     negative rho (up, down):  1.745E-03 0.000E+00

     total cpu time spent up to now is        4.0 secs

     total energy              =     -31.88995584 Ry
     Harris-Foulkes estimate   =     -32.06575114 Ry
     estimated scf accuracy    <       4.37383421 Ry

     iteration # 16     ecut=    30.00 Ry     beta=0.70
     Davidson diagonalization with overlap
     ethr =  1.00E-02,  avg # of iterations =  1.0

     negative rho (up, down):  2.810E-04 0.000E+00

     total cpu time spent up to now is        4.0 secs

     total energy              =     -31.55834364 Ry
     Harris-Foulkes estimate   =     -31.89132482 Ry
     estimated scf accuracy    <       4.09714589 Ry

     iteration # 17     ecut=    30.00 Ry     beta=0.70
     Davidson diagonalization with overlap
     ethr =  1.00E-02,  avg # of iterations =  1.0

     negative rho (up, down):  9.173E-02 0.000E+00

     total cpu time spent up to now is        4.0 secs

     total energy              =     -29.07921645 Ry
     Harris-Foulkes estimate   =     -31.55688037 Ry
     estimated scf accuracy    <       4.51027881 Ry

     iteration # 18     ecut=    30.00 Ry     beta=0.70
     Davidson diagonalization with overlap
     ethr =  1.00E-02,  avg # of iterations =  3.0

     negative rho (up, down):  1.801E-04 0.000E+00

     total cpu time spent up to now is        4.1 secs

     total energy              =     -32.69832282 Ry
     Harris-Foulkes estimate   =     -34.45116477 Ry
     estimated scf accuracy    <       7.28263124 Ry

     iteration # 19     ecut=    30.00 Ry     beta=0.70
     Davidson diagonalization with overlap
     ethr =  1.00E-02,  avg # of iterations =  1.0

     negative rho (up, down):  1.078E-07 0.000E+00

     total cpu time spent up to now is        4.1 secs

     total energy              =     -31.82902111 Ry
     Harris-Foulkes estimate   =     -32.76780638 Ry
     estimated scf accuracy    <       4.57930284 Ry

     iteration # 20     ecut=    30.00 Ry     beta=0.70
     Davidson diagonalization with overlap
     ethr =  1.00E-02,  avg # of iterations =  1.0

     negative rho (up, down):  3.308E-08 0.000E+00

     total cpu time spent up to now is        4.1 secs

     total energy              =     -31.63164847 Ry
     Harris-Foulkes estimate   =     -31.83997295 Ry
     estimated scf accuracy    <       3.07824750 Ry

     iteration # 21     ecut=    30.00 Ry     beta=0.70
     Davidson diagonalization with overlap
     ethr =  1.00E-02,  avg # of iterations =  1.0

     negative rho (up, down):  3.462E-06 0.000E+00

     total cpu time spent up to now is        4.2 secs

     total energy              =     -31.36277401 Ry
     Harris-Foulkes estimate   =     -31.63301126 Ry
     estimated scf accuracy    <       2.74845038 Ry

     iteration # 22     ecut=    30.00 Ry     beta=0.70
     Davidson diagonalization with overlap
     ethr =  1.00E-02,  avg # of iterations =  1.0

     negative rho (up, down):  3.239E-08 0.000E+00

     total cpu time spent up to now is        4.2 secs

     total energy              =     -31.49790187 Ry
     Harris-Foulkes estimate   =     -31.57818324 Ry
     estimated scf accuracy    <       4.36854786 Ry

     iteration # 23     ecut=    30.00 Ry     beta=0.70
     Davidson diagonalization with overlap
     ethr =  1.00E-02,  avg # of iterations =  1.0

     negative rho (up, down):  1.350E-08 0.000E+00

     total cpu time spent up to now is        4.3 secs

     total energy              =     -31.48015417 Ry
     Harris-Foulkes estimate   =     -31.51134919 Ry
     estimated scf accuracy    <       1.53065382 Ry

     iteration # 24     ecut=    30.00 Ry     beta=0.70
     Davidson diagonalization with overlap
     ethr =  1.00E-02,  avg # of iterations =  1.0

     negative rho (up, down):  1.123E-08 0.000E+00

     total cpu time spent up to now is        4.3 secs

     total energy              =     -31.49359931 Ry
     Harris-Foulkes estimate   =     -31.49509068 Ry
     estimated scf accuracy    <       0.11131779 Ry

     iteration # 25     ecut=    30.00 Ry     beta=0.70
     Davidson diagonalization with overlap
     ethr =  1.39E-03,  avg # of iterations =  1.0

     total cpu time spent up to now is        4.3 secs

     total energy              =     -31.48065111 Ry
     Harris-Foulkes estimate   =     -31.51579926 Ry
     estimated scf accuracy    <       1.60824964 Ry

     iteration # 26     ecut=    30.00 Ry     beta=0.70
     Davidson diagonalization with overlap
     ethr =  1.39E-03,  avg # of iterations =  1.0

     total cpu time spent up to now is        4.4 secs

     total energy              =     -31.48999688 Ry
     Harris-Foulkes estimate   =     -31.49340567 Ry
     estimated scf accuracy    <       0.05185002 Ry

     iteration # 27     ecut=    30.00 Ry     beta=0.70
     Davidson diagonalization with overlap
     ethr =  6.48E-04,  avg # of iterations =  1.0

     total cpu time spent up to now is        4.4 secs

     total energy              =     -31.48648088 Ry
     Harris-Foulkes estimate   =     -31.49625199 Ry
     estimated scf accuracy    <       0.36527657 Ry

     iteration # 28     ecut=    30.00 Ry     beta=0.70
     Davidson diagonalization with overlap
     ethr =  6.48E-04,  avg # of iterations =  1.0

     total cpu time spent up to now is        4.4 secs

     total energy              =     -31.49279843 Ry
     Harris-Foulkes estimate   =     -31.49358150 Ry
     estimated scf accuracy    <       0.06992510 Ry

     iteration # 29     ecut=    30.00 Ry     beta=0.70
     Davidson diagonalization with overlap
     ethr =  6.48E-04,  avg # of iterations =  1.0

     total cpu time spent up to now is        4.5 secs

     total energy              =     -31.49306680 Ry
     Harris-Foulkes estimate   =     -31.49299655 Ry
     estimated scf accuracy    <       0.01769612 Ry

     iteration # 30     ecut=    30.00 Ry     beta=0.70
     Davidson diagonalization with overlap
     ethr =  2.21E-04,  avg # of iterations =  1.0

     total cpu time spent up to now is        4.5 secs

     total energy              =     -31.49279858 Ry
     Harris-Foulkes estimate   =     -31.49310982 Ry
     estimated scf accuracy    <       0.02972691 Ry

     iteration # 31     ecut=    30.00 Ry     beta=0.70
     Davidson diagonalization with overlap
     ethr =  2.21E-04,  avg # of iterations =  1.0

     total cpu time spent up to now is        4.6 secs

     total energy              =     -31.49280077 Ry
     Harris-Foulkes estimate   =     -31.49287989 Ry
     estimated scf accuracy    <       0.00662162 Ry

     iteration # 32     ecut=    30.00 Ry     beta=0.70
     Davidson diagonalization with overlap
     ethr =  8.28E-05,  avg # of iterations =  5.0

     total cpu time spent up to now is        4.6 secs

     total energy              =     -31.49279516 Ry
     Harris-Foulkes estimate   =     -31.49282712 Ry
     estimated scf accuracy    <       0.00117755 Ry

     iteration # 33     ecut=    30.00 Ry     beta=0.70
     Davidson diagonalization with overlap
     ethr =  1.47E-05,  avg # of iterations =  3.0

     total cpu time spent up to now is        4.6 secs

     total energy              =     -31.49281360 Ry
     Harris-Foulkes estimate   =     -31.49281696 Ry
     estimated scf accuracy    <       0.00015102 Ry

     iteration # 34     ecut=    30.00 Ry     beta=0.70
     Davidson diagonalization with overlap
     ethr =  1.89E-06,  avg # of iterations = 11.0

     total cpu time spent up to now is        4.7 secs

     total energy              =     -31.49281547 Ry
     Harris-Foulkes estimate   =     -31.49281550 Ry
     estimated scf accuracy    <       0.00000294 Ry

     iteration # 35     ecut=    30.00 Ry     beta=0.70
     Davidson diagonalization with overlap
     ethr =  3.68E-08,  avg # of iterations =  1.0

     total cpu time spent up to now is        4.7 secs

     total energy              =     -31.49281546 Ry
     Harris-Foulkes estimate   =     -31.49281547 Ry
     estimated scf accuracy    <       0.00000155 Ry

     iteration # 36     ecut=    30.00 Ry     beta=0.70
     Davidson diagonalization with overlap
     ethr =  1.94E-08,  avg # of iterations =  1.0

     total cpu time spent up to now is        4.7 secs

     total energy              =     -31.49281548 Ry
     Harris-Foulkes estimate   =     -31.49281547 Ry
     estimated scf accuracy    <       0.00000008 Ry

     iteration # 37     ecut=    30.00 Ry     beta=0.70
     Davidson diagonalization with overlap
     ethr =  1.05E-09,  avg # of iterations =  1.0

     total cpu time spent up to now is        4.8 secs

     End of self-consistent calculation

          k = 0.0000 0.0000 0.0000 ( 22119 PWs)   bands (ev):

   -23.5989  -7.0577  -7.0121  -7.0114  -6.9073  -6.8582  -0.2124   0.6529

     the Fermi energy is    -6.8770 ev

!    total energy              =     -31.49281549 Ry
     Harris-Foulkes estimate   =     -31.49281548 Ry
     estimated scf accuracy    <          3.3E-10 Ry

     convergence has been achieved in  37 iterations

     Forces acting on atoms (Ry/au):

     atom    1 type  1   force =    -0.00116259    0.00047544    0.00291240
     atom    2 type  1   force =    -0.00072764    0.00001261    0.00007716
     atom    3 type  2   force =     0.00189023   -0.00048805   -0.00298956

     Total force =     0.004832     Total SCF correction =     0.000011

     Entering Dynamics:    iteration =     3
                           time      =   0.0145 pico-seconds


     Andersen thermostat:    3 collisions

ATOMIC_POSITIONS (bohr)
H        6.016437746   1.291840789  18.749022666
H       19.132597757  12.553665730   1.374182400
O        5.110744370   2.508241320   6.420401486


     kinetic energy (Ekin) =     0.01895483 Ry
     temperature           =   997.57557249 K 
     Ekin + Etot (const)   =   -31.47386067 Ry
     Message from routine dynamics:
     Total linear momentum <> 0

     Linear momentum :    0.3392545244   -0.2874031613   -0.6072795964

     Writing output data file pwscf.save

     second order wave-functions extrapolation
     Check: negative starting charge=   -0.344178
     second order charge density extrapolation
     Check: negative starting charge=   -0.344978

     negative rho (up, down):  6.769E-02 0.000E+00

     total cpu time spent up to now is        5.1 secs

     per-process dynamical memory:    20.4 Mb

     Self-consistent Calculation

     iteration #  1     ecut=    30.00 Ry     beta=0.70
     Davidson diagonalization with overlap
     c_bands:  1 eigenvalues not converged
     ethr =  1.00E-06,  avg # of iterations = 20.0

     negative rho (up, down):  1.524E-02 0.000E+00

     total cpu time spent up to now is        5.2 secs

     total energy              =     -31.46192578 Ry
     Harris-Foulkes estimate   =     -31.43506589 Ry
     estimated scf accuracy    <       0.01965029 Ry

     iteration #  2     ecut=    30.00 Ry     beta=0.70
     Davidson diagonalization with overlap
     ethr =  2.46E-04,  avg # of iterations =  2.0

     negative rho (up, down):  1.437E-02 0.000E+00

     total cpu time spent up to now is        5.2 secs

     total energy              =     -31.46521884 Ry
     Harris-Foulkes estimate   =     -31.77017492 Ry
     estimated scf accuracy    <       3.96512575 Ry

     iteration #  3     ecut=    30.00 Ry     beta=0.70
     Davidson diagonalization with overlap
     ethr =  2.46E-04,  avg # of iterations =  2.0

     negative rho (up, down):  1.400E-02 0.000E+00

     total cpu time spent up to now is        5.3 secs

     total energy              =     -31.47742901 Ry
     Harris-Foulkes estimate   =     -31.48223448 Ry
     estimated scf accuracy    <       0.33042112 Ry

     iteration #  4     ecut=    30.00 Ry     beta=0.70
     Davidson diagonalization with overlap
     ethr =  2.46E-04,  avg # of iterations =  1.0

     negative rho (up, down):  3.554E-03 0.000E+00

     total cpu time spent up to now is        5.3 secs

     total energy              =     -31.47428794 Ry
     Harris-Foulkes estimate   =     -31.48011753 Ry
     estimated scf accuracy    <       0.18501168 Ry

     iteration #  5     ecut=    30.00 Ry     beta=0.70
     Davidson diagonalization with overlap
     ethr =  2.46E-04,  avg # of iterations =  2.0

     negative rho (up, down):  1.969E-03 0.000E+00

     total cpu time spent up to now is        5.3 secs

     total energy              =     -31.46671681 Ry
     Harris-Foulkes estimate   =     -31.51242943 Ry
     estimated scf accuracy    <       1.63750142 Ry

     iteration #  6     ecut=    30.00 Ry     beta=0.70
     Davidson diagonalization with overlap
     ethr =  2.46E-04,  avg # of iterations =  1.0

     negative rho (up, down):  5.467E-04 0.000E+00

     total cpu time spent up to now is        5.4 secs

     total energy              =     -31.48990477 Ry
     Harris-Foulkes estimate   =     -31.49170219 Ry
     estimated scf accuracy    <       0.07275819 Ry

     iteration #  7     ecut=    30.00 Ry     beta=0.70
     Davidson diagonalization with overlap
     ethr =  2.46E-04,  avg # of iterations =  4.0

     negative rho (up, down):  1.188E-04 0.000E+00

     total cpu time spent up to now is        5.4 secs

     total energy              =     -31.49170689 Ry
     Harris-Foulkes estimate   =     -31.49289673 Ry
     estimated scf accuracy    <       0.07958067 Ry

     iteration #  8     ecut=    30.00 Ry     beta=0.70
     Davidson diagonalization with overlap
     ethr =  2.46E-04,  avg # of iterations =  1.0

     negative rho (up, down):  9.496E-08 0.000E+00

     total cpu time spent up to now is        5.4 secs

     total energy              =     -31.49200147 Ry
     Harris-Foulkes estimate   =     -31.49215094 Ry
     estimated scf accuracy    <       0.00490691 Ry

     iteration #  9     ecut=    30.00 Ry     beta=0.70
     Davidson diagonalization with overlap
     ethr =  6.13E-05,  avg # of iterations =  1.0

     total cpu time spent up to now is        5.5 secs

     total energy              =     -31.49211644 Ry
     Harris-Foulkes estimate   =     -31.49214192 Ry
     estimated scf accuracy    <       0.00258873 Ry

     iteration # 10     ecut=    30.00 Ry     beta=0.70
     Davidson diagonalization with overlap
     ethr =  3.24E-05,  avg # of iterations =  1.0

     total cpu time spent up to now is        5.5 secs

     total energy              =     -31.49209374 Ry
     Harris-Foulkes estimate   =     -31.49212297 Ry
     estimated scf accuracy    <       0.00062585 Ry

     iteration # 11     ecut=    30.00 Ry     beta=0.70
     Davidson diagonalization with overlap
     ethr =  7.82E-06,  avg # of iterations = 11.0

     total cpu time spent up to now is        5.5 secs

     total energy              =     -31.49210217 Ry
     Harris-Foulkes estimate   =     -31.49212878 Ry
     estimated scf accuracy    <       0.00126118 Ry

     iteration # 12     ecut=    30.00 Ry     beta=0.70
     Davidson diagonalization with overlap
     ethr =  7.82E-06,  avg # of iterations =  1.0

     total cpu time spent up to now is        5.6 secs

     total energy              =     -31.49211633 Ry
     Harris-Foulkes estimate   =     -31.49211656 Ry
     estimated scf accuracy    <       0.00001063 Ry

     iteration # 13     ecut=    30.00 Ry     beta=0.70
     Davidson diagonalization with overlap
     ethr =  1.33E-07,  avg # of iterations =  1.0

     total cpu time spent up to now is        5.6 secs

     total energy              =     -31.49211639 Ry
     Harris-Foulkes estimate   =     -31.49211637 Ry
     estimated scf accuracy    <       0.00000185 Ry

     iteration # 14     ecut=    30.00 Ry     beta=0.70
     Davidson diagonalization with overlap
     ethr =  2.31E-08,  avg # of iterations =  1.0

     total cpu time spent up to now is        5.6 secs

     total energy              =     -31.49211643 Ry
     Harris-Foulkes estimate   =     -31.49211639 Ry
     estimated scf accuracy    <       0.00000059 Ry

     iteration # 15     ecut=    30.00 Ry     beta=0.70
     Davidson diagonalization with overlap
     ethr =  7.33E-09,  avg # of iterations =  1.0

     total cpu time spent up to now is        5.7 secs

     End of self-consistent calculation

          k = 0.0000 0.0000 0.0000 ( 22119 PWs)   bands (ev):

   -23.5976  -7.0448  -7.0115  -7.0107  -6.9072  -6.8702  -0.2163   0.6474

     the Fermi energy is    -6.8764 ev

!    total energy              =     -31.49211644 Ry
     Harris-Foulkes estimate   =     -31.49211643 Ry
     estimated scf accuracy    <          4.2E-09 Ry

     convergence has been achieved in  15 iterations

     Forces acting on atoms (Ry/au):

     atom    1 type  1   force =    -0.00061532    0.00023398    0.00215961
     atom    2 type  1   force =    -0.00037251   -0.00008376   -0.00018924
     atom    3 type  2   force =     0.00098783   -0.00015022   -0.00197037

     Total force =     0.003187     Total SCF correction =     0.000004

     Entering Dynamics:    iteration =     4
                           time      =   0.0194 pico-seconds


     Andersen thermostat:    3 collisions

ATOMIC_POSITIONS (bohr)
H        5.879557543   1.117734025  18.635093800
H       19.064617397  12.528568006   1.140138478
O        5.123676193   2.520816103   6.442367269


     kinetic energy (Ekin) =     0.00645434 Ry
     temperature           =   339.68610527 K 
     Ekin + Etot (const)   =   -31.48566210 Ry
     Message from routine dynamics:
     Total linear momentum <> 0

     Linear momentum :    0.1119917081   -0.0178004030   -0.0109951591

     Writing output data file pwscf.save

     second order wave-functions extrapolation
     Check: negative starting charge=   -0.344978
     second order charge density extrapolation
     Check: negative starting charge=   -0.345915

     negative rho (up, down):  3.852E-02 0.000E+00

     total cpu time spent up to now is        6.0 secs

     per-process dynamical memory:    20.4 Mb

     Self-consistent Calculation

     iteration #  1     ecut=    30.00 Ry     beta=0.70
     Davidson diagonalization with overlap
     c_bands:  1 eigenvalues not converged
     ethr =  1.00E-06,  avg # of iterations = 20.0

     negative rho (up, down):  8.344E-03 0.000E+00

     total cpu time spent up to now is        6.1 secs

     total energy              =     -31.45390364 Ry
     Harris-Foulkes estimate   =     -31.45246655 Ry
     estimated scf accuracy    <       0.03666548 Ry

     iteration #  2     ecut=    30.00 Ry     beta=0.70
     Davidson diagonalization with overlap
     ethr =  4.58E-04,  avg # of iterations =  2.0

     negative rho (up, down):  7.685E-03 0.000E+00

     total cpu time spent up to now is        6.1 secs

     total energy              =     -31.47956468 Ry
     Harris-Foulkes estimate   =     -31.89816673 Ry
     estimated scf accuracy    <       4.18332409 Ry

     iteration #  3     ecut=    30.00 Ry     beta=0.70
     Davidson diagonalization with overlap
     ethr =  4.58E-04,  avg # of iterations =  2.0

     negative rho (up, down):  7.432E-03 0.000E+00

     total cpu time spent up to now is        6.1 secs

     total energy              =     -31.47524408 Ry
     Harris-Foulkes estimate   =     -31.52741925 Ry
     estimated scf accuracy    <       1.16355877 Ry

     iteration #  4     ecut=    30.00 Ry     beta=0.70
     Davidson diagonalization with overlap
     ethr =  4.58E-04,  avg # of iterations =  1.0

     negative rho (up, down):  6.325E-03 0.000E+00

     total cpu time spent up to now is        6.2 secs

     total energy              =     -31.47020296 Ry
     Harris-Foulkes estimate   =     -31.49153840 Ry
     estimated scf accuracy    <       0.70318683 Ry

     iteration #  5     ecut=    30.00 Ry     beta=0.70
     Davidson diagonalization with overlap
     ethr =  4.58E-04,  avg # of iterations =  1.0

     negative rho (up, down):  3.076E-03 0.000E+00

     total cpu time spent up to now is        6.2 secs

     total energy              =     -31.48814930 Ry
     Harris-Foulkes estimate   =     -31.48875257 Ry
     estimated scf accuracy    <       0.26248610 Ry

     iteration #  6     ecut=    30.00 Ry     beta=0.70
     Davidson diagonalization with overlap
     ethr =  4.58E-04,  avg # of iterations =  1.0

     negative rho (up, down):  3.314E-05 0.000E+00

     total cpu time spent up to now is        6.2 secs

     total energy              =     -31.49203094 Ry
     Harris-Foulkes estimate   =     -31.48961644 Ry
     estimated scf accuracy    <       0.01915656 Ry

     iteration #  7     ecut=    30.00 Ry     beta=0.70
     Davidson diagonalization with overlap
     ethr =  2.39E-04,  avg # of iterations =  4.0

     negative rho (up, down):  2.529E-08 0.000E+00

     total cpu time spent up to now is        6.3 secs

     total energy              =     -31.49187257 Ry
     Harris-Foulkes estimate   =     -31.49207209 Ry
     estimated scf accuracy    <       0.02698675 Ry

     iteration #  8     ecut=    30.00 Ry     beta=0.70
     Davidson diagonalization with overlap
     ethr =  2.39E-04,  avg # of iterations =  1.0

     negative rho (up, down):  1.263E-08 0.000E+00

     total cpu time spent up to now is        6.3 secs

     total energy              =     -31.49177413 Ry
     Harris-Foulkes estimate   =     -31.49191021 Ry
     estimated scf accuracy    <       0.01181267 Ry

     iteration #  9     ecut=    30.00 Ry     beta=0.70
     Davidson diagonalization with overlap
     ethr =  1.48E-04,  avg # of iterations =  1.0

     total cpu time spent up to now is        6.3 secs

     total energy              =     -31.49170248 Ry
     Harris-Foulkes estimate   =     -31.49181278 Ry
     estimated scf accuracy    <       0.00211415 Ry

     iteration # 10     ecut=    30.00 Ry     beta=0.70
     Davidson diagonalization with overlap
     ethr =  2.64E-05,  avg # of iterations =  6.0

     total cpu time spent up to now is        6.4 secs

     total energy              =     -31.49177642 Ry
     Harris-Foulkes estimate   =     -31.49184192 Ry
     estimated scf accuracy    <       0.00548825 Ry

     iteration # 11     ecut=    30.00 Ry     beta=0.70
     Davidson diagonalization with overlap
     ethr =  2.64E-05,  avg # of iterations =  1.0

     total cpu time spent up to now is        6.4 secs

     total energy              =     -31.49178046 Ry
     Harris-Foulkes estimate   =     -31.49179674 Ry
     estimated scf accuracy    <       0.00078150 Ry

     iteration # 12     ecut=    30.00 Ry     beta=0.70
     Davidson diagonalization with overlap
     ethr =  9.77E-06,  avg # of iterations =  1.0

     total cpu time spent up to now is        6.4 secs

     total energy              =     -31.49178880 Ry
     Harris-Foulkes estimate   =     -31.49178891 Ry
     estimated scf accuracy    <       0.00000381 Ry

     iteration # 13     ecut=    30.00 Ry     beta=0.70
     Davidson diagonalization with overlap
     ethr =  4.76E-08,  avg # of iterations = 10.0

     total cpu time spent up to now is        6.5 secs

     total energy              =     -31.49178899 Ry
     Harris-Foulkes estimate   =     -31.49178888 Ry
     estimated scf accuracy    <       0.00000005 Ry

     iteration # 14     ecut=    30.00 Ry     beta=0.70
     Davidson diagonalization with overlap
     ethr =  6.21E-10,  avg # of iterations =  1.0

     total cpu time spent up to now is        6.5 secs

     End of self-consistent calculation

          k = 0.0000 0.0000 0.0000 ( 22119 PWs)   bands (ev):

   -23.5985  -7.0395  -7.0124  -7.0116  -6.9087  -6.8775  -0.2180   0.6438

     the Fermi energy is    -6.8775 ev

!    total energy              =     -31.49178873 Ry
     Harris-Foulkes estimate   =     -31.49178900 Ry
     estimated scf accuracy    <          1.2E-09 Ry

     convergence has been achieved in  14 iterations

     Forces acting on atoms (Ry/au):

     atom    1 type  1   force =    -0.00034667    0.00020371    0.00174184
     atom    2 type  1   force =    -0.00015418   -0.00020329   -0.00029615
     atom    3 type  2   force =     0.00050086   -0.00000042   -0.00144570

     Total force =     0.002385     Total SCF correction =     0.000143

     Entering Dynamics:    iteration =     5
                           time      =   0.0242 pico-seconds


     Andersen thermostat:    3 collisions

ATOMIC_POSITIONS (bohr)
H        5.587157518   0.648805033  18.404594990
H       18.428715141  12.406154060   0.913011751
O        5.182275275   2.558144626   6.471254881


     kinetic energy (Ekin) =     0.04833951 Ry
     temperature           =  2544.06504874 K 
     Ekin + Etot (const)   =   -31.44344922 Ry
     Message from routine dynamics:
     Total linear momentum <> 0

     Linear momentum :   -0.3895920141   -0.3881565963   -0.4285115955

     Writing output data file pwscf.save

     second order wave-functions extrapolation
     Check: negative starting charge=   -0.345915
     second order charge density extrapolation
     Check: negative starting charge=   -0.347319

     negative rho (up, down):  1.032E-01 0.000E+00

     total cpu time spent up to now is        6.8 secs

     per-process dynamical memory:    20.4 Mb

     Self-consistent Calculation

     iteration #  1     ecut=    30.00 Ry     beta=0.70
     Davidson diagonalization with overlap
     ethr =  1.00E-06,  avg # of iterations = 18.0

     negative rho (up, down):  2.251E-02 0.000E+00

     total cpu time spent up to now is        6.9 secs

     total energy              =      -8.84493185 Ry
     Harris-Foulkes estimate   =     -59.67421055 Ry
     estimated scf accuracy    <       5.43931757 Ry

     iteration #  2     ecut=    30.00 Ry     beta=0.70
     Davidson diagonalization with overlap
     ethr =  1.00E-02,  avg # of iterations =  3.0

     negative rho (up, down):  1.405E-02 0.000E+00

     total cpu time spent up to now is        6.9 secs

     total energy              =     -32.07873936 Ry
     Harris-Foulkes estimate   =     -35.53379651 Ry
     estimated scf accuracy    <       6.10878595 Ry

     iteration #  3     ecut=    30.00 Ry     beta=0.70
     Davidson diagonalization with overlap
     ethr =  1.00E-02,  avg # of iterations =  2.0

     negative rho (up, down):  1.279E-02 0.000E+00

     total cpu time spent up to now is        7.0 secs

     total energy              =     -31.95570134 Ry
     Harris-Foulkes estimate   =     -32.72092343 Ry
     estimated scf accuracy    <       4.35109562 Ry

     iteration #  4     ecut=    30.00 Ry     beta=0.70
     Davidson diagonalization with overlap
     ethr =  1.00E-02,  avg # of iterations =  1.0

     negative rho (up, down):  8.321E-03 0.000E+00

     total cpu time spent up to now is        7.0 secs

     total energy              =     -31.71287106 Ry
     Harris-Foulkes estimate   =     -32.37608941 Ry
     estimated scf accuracy    <       2.25246747 Ry

     iteration #  5     ecut=    30.00 Ry     beta=0.70
     Davidson diagonalization with overlap
     ethr =  1.00E-02,  avg # of iterations =  3.0

     negative rho (up, down):  5.189E-03 0.000E+00

     total cpu time spent up to now is        7.0 secs

     total energy              =     -31.53898570 Ry
     Harris-Foulkes estimate   =     -31.72201662 Ry
     estimated scf accuracy    <       1.31712679 Ry

     iteration #  6     ecut=    30.00 Ry     beta=0.70
     Davidson diagonalization with overlap
     ethr =  1.00E-02,  avg # of iterations =  1.0

     negative rho (up, down):  2.657E-03 0.000E+00

     total cpu time spent up to now is        7.1 secs

     total energy              =     -31.29758474 Ry
     Harris-Foulkes estimate   =     -31.63010704 Ry
     estimated scf accuracy    <       2.60545684 Ry

     iteration #  7     ecut=    30.00 Ry     beta=0.70
     Davidson diagonalization with overlap
     ethr =  1.00E-02,  avg # of iterations =  2.0

     negative rho (up, down):  5.670E-03 0.000E+00

     total cpu time spent up to now is        7.1 secs

     total energy              =     -31.38991373 Ry
     Harris-Foulkes estimate   =     -31.74170618 Ry
     estimated scf accuracy    <       1.39765689 Ry

     iteration #  8     ecut=    30.00 Ry     beta=0.70
     Davidson diagonalization with overlap
     ethr =  1.00E-02,  avg # of iterations =  2.0

     negative rho (up, down):  2.046E-03 0.000E+00

     total cpu time spent up to now is        7.1 secs

     total energy              =     -31.27892758 Ry
     Harris-Foulkes estimate   =     -31.72097379 Ry
     estimated scf accuracy    <       1.42862545 Ry

     iteration #  9     ecut=    30.00 Ry     beta=0.70
     Davidson diagonalization with overlap
     ethr =  1.00E-02,  avg # of iterations =  2.0

     negative rho (up, down):  1.953E-03 0.000E+00

     total cpu time spent up to now is        7.2 secs

     total energy              =     -31.65824195 Ry
     Harris-Foulkes estimate   =     -31.71820584 Ry
     estimated scf accuracy    <       1.35991645 Ry

     iteration # 10     ecut=    30.00 Ry     beta=0.70
     Davidson diagonalization with overlap
     ethr =  1.00E-02,  avg # of iterations =  1.0

     negative rho (up, down):  9.588E-07 0.000E+00

     total cpu time spent up to now is        7.2 secs

     total energy              =     -31.72388820 Ry
     Harris-Foulkes estimate   =     -31.65850987 Ry
     estimated scf accuracy    <       1.25570358 Ry

     iteration # 11     ecut=    30.00 Ry     beta=0.70
     Davidson diagonalization with overlap
     ethr =  1.00E-02,  avg # of iterations =  1.0

     negative rho (up, down):  2.554E-04 0.000E+00

     total cpu time spent up to now is        7.2 secs

     total energy              =     -31.34620674 Ry
     Harris-Foulkes estimate   =     -31.72915394 Ry
     estimated scf accuracy    <       1.34050549 Ry

     iteration # 12     ecut=    30.00 Ry     beta=0.70
     Davidson diagonalization with overlap
     ethr =  1.00E-02,  avg # of iterations =  1.0

     negative rho (up, down):  9.553E-05 0.000E+00

     total cpu time spent up to now is        7.4 secs

     total energy              =     -31.62545132 Ry
     Harris-Foulkes estimate   =     -31.66385497 Ry
     estimated scf accuracy    <       2.82896690 Ry

     iteration # 13     ecut=    30.00 Ry     beta=0.70
     Davidson diagonalization with overlap
     ethr =  1.00E-02,  avg # of iterations =  1.0

     negative rho (up, down):  1.353E-05 0.000E+00

     total cpu time spent up to now is        7.4 secs

     total energy              =     -31.54884460 Ry
     Harris-Foulkes estimate   =     -31.62626057 Ry
     estimated scf accuracy    <       2.46767821 Ry

     iteration # 14     ecut=    30.00 Ry     beta=0.70
     Davidson diagonalization with overlap
     ethr =  1.00E-02,  avg # of iterations =  1.0

     negative rho (up, down):  5.171E-07 0.000E+00

     total cpu time spent up to now is        7.4 secs

     total energy              =     -31.50139463 Ry
     Harris-Foulkes estimate   =     -31.55107020 Ry
     estimated scf accuracy    <       1.65502657 Ry

     iteration # 15     ecut=    30.00 Ry     beta=0.70
     Davidson diagonalization with overlap
     ethr =  1.00E-02,  avg # of iterations =  1.0

     negative rho (up, down):  1.258E-06 0.000E+00

     total cpu time spent up to now is        7.5 secs

     total energy              =     -31.50959136 Ry
     Harris-Foulkes estimate   =     -31.50407188 Ry
     estimated scf accuracy    <       0.83178521 Ry

     iteration # 16     ecut=    30.00 Ry     beta=0.70
     Davidson diagonalization with overlap
     ethr =  1.00E-02,  avg # of iterations =  1.0

     negative rho (up, down):  1.544E-07 0.000E+00

     total cpu time spent up to now is        7.5 secs

     total energy              =     -31.47454558 Ry
     Harris-Foulkes estimate   =     -31.51499942 Ry
     estimated scf accuracy    <       1.70066022 Ry

     iteration # 17     ecut=    30.00 Ry     beta=0.70
     Davidson diagonalization with overlap
     ethr =  1.00E-02,  avg # of iterations =  1.0

     total cpu time spent up to now is        7.5 secs

     total energy              =     -31.62474866 Ry
     Harris-Foulkes estimate   =     -31.51808771 Ry
     estimated scf accuracy    <       0.97744964 Ry

     iteration # 18     ecut=    30.00 Ry     beta=0.70
     Davidson diagonalization with overlap
     ethr =  1.00E-02,  avg # of iterations =  1.0

     total cpu time spent up to now is        7.6 secs

     total energy              =     -31.54925845 Ry
     Harris-Foulkes estimate   =     -31.64045477 Ry
     estimated scf accuracy    <       1.44402985 Ry

     iteration # 19     ecut=    30.00 Ry     beta=0.70
     Davidson diagonalization with overlap
     ethr =  1.00E-02,  avg # of iterations =  1.0

     total cpu time spent up to now is        7.6 secs

     total energy              =     -31.52426538 Ry
     Harris-Foulkes estimate   =     -31.54980491 Ry
     estimated scf accuracy    <       1.33138427 Ry

     iteration # 20     ecut=    30.00 Ry     beta=0.70
     Davidson diagonalization with overlap
     ethr =  1.00E-02,  avg # of iterations =  1.0

     total cpu time spent up to now is        7.6 secs

     total energy              =     -31.50534536 Ry
     Harris-Foulkes estimate   =     -31.52288857 Ry
     estimated scf accuracy    <       1.54525814 Ry

     iteration # 21     ecut=    30.00 Ry     beta=0.70
     Davidson diagonalization with overlap
     ethr =  1.00E-02,  avg # of iterations =  1.0

     total cpu time spent up to now is        7.7 secs

     total energy              =     -31.50487861 Ry
     Harris-Foulkes estimate   =     -31.50616379 Ry
     estimated scf accuracy    <       1.12202845 Ry

     iteration # 22     ecut=    30.00 Ry     beta=0.70
     Davidson diagonalization with overlap
     ethr =  1.00E-02,  avg # of iterations =  1.0

     total cpu time spent up to now is        7.7 secs

     total energy              =     -31.50684324 Ry
     Harris-Foulkes estimate   =     -31.50507678 Ry
     estimated scf accuracy    <       0.97855630 Ry

     iteration # 23     ecut=    30.00 Ry     beta=0.70
     Davidson diagonalization with overlap
     ethr =  1.00E-02,  avg # of iterations =  1.0

     total cpu time spent up to now is        7.7 secs

     total energy              =     -31.51080877 Ry
     Harris-Foulkes estimate   =     -31.50689129 Ry
     estimated scf accuracy    <       1.08571619 Ry

     iteration # 24     ecut=    30.00 Ry     beta=0.70
     Davidson diagonalization with overlap
     ethr =  1.00E-02,  avg # of iterations =  1.0

     total cpu time spent up to now is        7.8 secs

     total energy              =     -31.49064609 Ry
     Harris-Foulkes estimate   =     -31.51095336 Ry
     estimated scf accuracy    <       1.24470400 Ry

     iteration # 25     ecut=    30.00 Ry     beta=0.70
     Davidson diagonalization with overlap
     ethr =  1.00E-02,  avg # of iterations =  1.0

     total cpu time spent up to now is        7.8 secs

     total energy              =     -31.50251559 Ry
     Harris-Foulkes estimate   =     -31.49517193 Ry
     estimated scf accuracy    <       0.37892715 Ry

     iteration # 26     ecut=    30.00 Ry     beta=0.70
     Davidson diagonalization with overlap
     ethr =  4.74E-03,  avg # of iterations =  1.0

     total cpu time spent up to now is        7.8 secs

     total energy              =     -31.48761736 Ry
     Harris-Foulkes estimate   =     -31.50830804 Ry
     estimated scf accuracy    <       0.99896569 Ry

     iteration # 27     ecut=    30.00 Ry     beta=0.70
     Davidson diagonalization with overlap
     ethr =  4.74E-03,  avg # of iterations =  1.0

     total cpu time spent up to now is        7.9 secs

     total energy              =     -31.48829872 Ry
     Harris-Foulkes estimate   =     -31.49322531 Ry
     estimated scf accuracy    <       0.15125188 Ry

     iteration # 28     ecut=    30.00 Ry     beta=0.70
     Davidson diagonalization with overlap
     ethr =  1.89E-03,  avg # of iterations =  1.0

     total cpu time spent up to now is        7.9 secs

     total energy              =     -31.49123559 Ry
     Harris-Foulkes estimate   =     -31.49135387 Ry
     estimated scf accuracy    <       0.01154615 Ry

     iteration # 29     ecut=    30.00 Ry     beta=0.70
     Davidson diagonalization with overlap
     ethr =  1.44E-04,  avg # of iterations =  1.0

     total cpu time spent up to now is        7.9 secs

     total energy              =     -31.49117447 Ry
     Harris-Foulkes estimate   =     -31.49126366 Ry
     estimated scf accuracy    <       0.00323447 Ry

     iteration # 30     ecut=    30.00 Ry     beta=0.70
     Davidson diagonalization with overlap
     ethr =  4.04E-05,  avg # of iterations =  6.0

     total cpu time spent up to now is        8.0 secs

     total energy              =     -31.49122751 Ry
     Harris-Foulkes estimate   =     -31.49122317 Ry
     estimated scf accuracy    <       0.00003769 Ry

     iteration # 31     ecut=    30.00 Ry     beta=0.70
     Davidson diagonalization with overlap
     c_bands:  1 eigenvalues not converged
     ethr =  4.71E-07,  avg # of iterations = 20.0

     total cpu time spent up to now is        8.0 secs

     total energy              =     -31.49122124 Ry
     Harris-Foulkes estimate   =     -31.49123626 Ry
     estimated scf accuracy    <       0.00108122 Ry

     iteration # 32     ecut=    30.00 Ry     beta=0.70
     Davidson diagonalization with overlap
     ethr =  4.71E-07,  avg # of iterations = 13.0

     total cpu time spent up to now is        8.1 secs

     total energy              =     -31.49122199 Ry
     Harris-Foulkes estimate   =     -31.49122544 Ry
     estimated scf accuracy    <       0.00021185 Ry

     iteration # 33     ecut=    30.00 Ry     beta=0.70
     Davidson diagonalization with overlap
     ethr =  4.71E-07,  avg # of iterations =  1.0

     total cpu time spent up to now is        8.1 secs

     total energy              =     -31.49122273 Ry
     Harris-Foulkes estimate   =     -31.49122321 Ry
     estimated scf accuracy    <       0.00002323 Ry

     iteration # 34     ecut=    30.00 Ry     beta=0.70
     Davidson diagonalization with overlap
     ethr =  2.90E-07,  avg # of iterations =  1.0

     total cpu time spent up to now is        8.1 secs

     total energy              =     -31.49122299 Ry
     Harris-Foulkes estimate   =     -31.49122299 Ry
     estimated scf accuracy    <       0.00000003 Ry

     iteration # 35     ecut=    30.00 Ry     beta=0.70
     Davidson diagonalization with overlap
[...]
     Harris-Foulkes estimate   =    -117.72245071 Ry
     estimated scf accuracy    <       9.86447851 Ry

     iteration # 59     ecut=    30.00 Ry     beta=0.70
     Davidson diagonalization with overlap
     ethr =  3.99E-03,  avg # of iterations =  7.0

     negative rho (up, down):  1.679E-02 0.000E+00

     total cpu time spent up to now is       43.5 secs

     total energy              =      16.26371246 Ry
     Harris-Foulkes estimate   =    -235.48546398 Ry
     estimated scf accuracy    <       8.93369174 Ry

     iteration # 60     ecut=    30.00 Ry     beta=0.70
     Davidson diagonalization with overlap
     ethr =  3.99E-03,  avg # of iterations =  5.0

     negative rho (up, down):  7.946E-06 0.000E+00

     total cpu time spent up to now is       43.6 secs

     total energy              =     -13.45788933 Ry
     Harris-Foulkes estimate   =     -39.01451122 Ry
     estimated scf accuracy    <       8.68396640 Ry

     iteration # 61     ecut=    30.00 Ry     beta=0.70
     Davidson diagonalization with overlap
     ethr =  3.99E-03,  avg # of iterations =  6.0

     negative rho (up, down):  2.661E-02 0.000E+00

     total cpu time spent up to now is       43.6 secs

     total energy              =     -32.34640681 Ry
     Harris-Foulkes estimate   =     -32.92434859 Ry
     estimated scf accuracy    <       3.84138939 Ry

     iteration # 62     ecut=    30.00 Ry     beta=0.70
     Davidson diagonalization with overlap
     ethr =  3.99E-03,  avg # of iterations =  5.0

     negative rho (up, down):  3.972E-02 0.000E+00

     total cpu time spent up to now is       43.7 secs

     total energy              =       5.36008153 Ry
     Harris-Foulkes estimate   =    -140.45501493 Ry
     estimated scf accuracy    <      16.40777875 Ry

     iteration # 63     ecut=    30.00 Ry     beta=0.70
     Davidson diagonalization with overlap
     ethr =  3.99E-03,  avg # of iterations =  5.0

     negative rho (up, down):  2.483E-02 0.000E+00

     total cpu time spent up to now is       43.8 secs

     total energy              =    -397.61485584 Ry
     Harris-Foulkes estimate   =     -64.95044291 Ry
     estimated scf accuracy    <      16.37920775 Ry

     iteration # 64     ecut=    30.00 Ry     beta=0.70
     Davidson diagonalization with overlap
     ethr =  3.99E-03,  avg # of iterations =  3.0

     negative rho (up, down):  3.523E-02 0.000E+00

     total cpu time spent up to now is       43.8 secs

     total energy              =      10.27638605 Ry
     Harris-Foulkes estimate   =    -729.83375264 Ry
     estimated scf accuracy    <      14.25525783 Ry

     iteration # 65     ecut=    30.00 Ry     beta=0.70
     Davidson diagonalization with overlap
     ethr =  3.99E-03,  avg # of iterations =  6.0

     negative rho (up, down):  4.088E-02 0.000E+00

     total cpu time spent up to now is       43.9 secs

     total energy              =      -1.97234875 Ry
     Harris-Foulkes estimate   =     -66.90302271 Ry
     estimated scf accuracy    <      36.87792660 Ry

     iteration # 66     ecut=    30.00 Ry     beta=0.70
     Davidson diagonalization with overlap
     ethr =  3.99E-03,  avg # of iterations =  6.0

     negative rho (up, down):  5.372E-02 0.000E+00

     total cpu time spent up to now is       44.0 secs

     total energy              =      -7.65094155 Ry
     Harris-Foulkes estimate   =    -211.03853670 Ry
     estimated scf accuracy    <      11.52719396 Ry

     iteration # 67     ecut=    30.00 Ry     beta=0.70
     Davidson diagonalization with overlap
     ethr =  3.99E-03,  avg # of iterations =  4.0

     negative rho (up, down):  5.225E-02 0.000E+00

     total cpu time spent up to now is       44.1 secs

     total energy              =    -138.68531211 Ry
     Harris-Foulkes estimate   =    -231.89572295 Ry
     estimated scf accuracy    <      16.55058324 Ry

     iteration # 68     ecut=    30.00 Ry     beta=0.70
     Davidson diagonalization with overlap
     ethr =  3.99E-03,  avg # of iterations =  4.0

     negative rho (up, down):  6.689E-02 0.000E+00

     total cpu time spent up to now is       44.1 secs

     total energy              =     -40.50660934 Ry
     Harris-Foulkes estimate   =   -1418.95911416 Ry
     estimated scf accuracy    <      16.11233392 Ry

     iteration # 69     ecut=    30.00 Ry     beta=0.70
     Davidson diagonalization with overlap
     ethr =  3.99E-03,  avg # of iterations =  5.0

     negative rho (up, down):  1.830E-01 0.000E+00

     total cpu time spent up to now is       44.2 secs

     total energy              =     -63.50012867 Ry
     Harris-Foulkes estimate   =    -588.40062695 Ry
     estimated scf accuracy    <      27.46482902 Ry

     iteration # 70     ecut=    30.00 Ry     beta=0.70
     Davidson diagonalization with overlap
     ethr =  3.99E-03,  avg # of iterations =  5.0

     negative rho (up, down):  6.680E-01 0.000E+00

     total cpu time spent up to now is       44.3 secs

     total energy              =     -14.06888564 Ry
     Harris-Foulkes estimate   =    -698.95327752 Ry
     estimated scf accuracy    <      58.46186579 Ry

     iteration # 71     ecut=    30.00 Ry     beta=0.70
     Davidson diagonalization with overlap
     ethr =  3.99E-03,  avg # of iterations =  7.0

     negative rho (up, down):  1.048E+00 0.000E+00

     total cpu time spent up to now is       44.4 secs

     total energy              =      45.65525384 Ry
     Harris-Foulkes estimate   =    -307.87360481 Ry
     estimated scf accuracy    <      50.75101352 Ry

     iteration # 72     ecut=    30.00 Ry     beta=0.70
     Davidson diagonalization with overlap
     ethr =  3.99E-03,  avg # of iterations =  7.0

     negative rho (up, down):  1.335E+00 0.000E+00

     total cpu time spent up to now is       44.5 secs

     total energy              =    -861.80756068 Ry
     Harris-Foulkes estimate   =    -529.99669792 Ry
     estimated scf accuracy    <      53.83994180 Ry

     iteration # 73     ecut=    30.00 Ry     beta=0.70
     Davidson diagonalization with overlap
     ethr =  3.99E-03,  avg # of iterations =  8.0

     negative rho (up, down):  1.272E+00 0.000E+00

     total cpu time spent up to now is       44.6 secs

     total energy              =    -882.95821762 Ry
     Harris-Foulkes estimate   =   -6562.46721923 Ry
     estimated scf accuracy    <      46.27014648 Ry

     iteration # 74     ecut=    30.00 Ry     beta=0.70
     Davidson diagonalization with overlap
     ethr =  3.99E-03,  avg # of iterations =  9.0

     negative rho (up, down):  1.897E+00 0.000E+00

     total cpu time spent up to now is       44.6 secs

     total energy              =      32.28933676 Ry
     Harris-Foulkes estimate   =   -9711.87342231 Ry
     estimated scf accuracy    <      40.69586221 Ry

     iteration # 75     ecut=    30.00 Ry     beta=0.70
     Davidson diagonalization with overlap
     ethr =  3.99E-03,  avg # of iterations =  8.0

     negative rho (up, down):  1.820E+00 0.000E+00

     total cpu time spent up to now is       44.7 secs

     total energy              =    -256.75268239 Ry
     Harris-Foulkes estimate   =   -1695.83246779 Ry
     estimated scf accuracy    <      43.00890084 Ry

     iteration # 76     ecut=    30.00 Ry     beta=0.70
     Davidson diagonalization with overlap
     ethr =  3.99E-03,  avg # of iterations =  5.0

     negative rho (up, down):  2.696E+00 0.000E+00

     total cpu time spent up to now is       44.7 secs

     total energy              =       0.96262946 Ry
     Harris-Foulkes estimate   =  -10962.31009724 Ry
     estimated scf accuracy    <      34.21813781 Ry

     iteration # 77     ecut=    30.00 Ry     beta=0.70
     Davidson diagonalization with overlap
     ethr =  3.99E-03,  avg # of iterations =  8.0

     negative rho (up, down):  1.631E+00 0.000E+00

     total cpu time spent up to now is       44.8 secs

     total energy              =      37.33464458 Ry
     Harris-Foulkes estimate   =   -1468.90394185 Ry
     estimated scf accuracy    <      43.89081148 Ry

     iteration # 78     ecut=    30.00 Ry     beta=0.70
     Davidson diagonalization with overlap
     ethr =  3.99E-03,  avg # of iterations =  8.0

     negative rho (up, down):  2.417E+00 0.000E+00

     total cpu time spent up to now is       44.9 secs

     total energy              =   -2089.89553081 Ry
     Harris-Foulkes estimate   =   -1673.21962357 Ry
     estimated scf accuracy    <      29.54364531 Ry

     iteration # 79     ecut=    30.00 Ry     beta=0.70
     Davidson diagonalization with overlap
     ethr =  3.99E-03,  avg # of iterations =  8.0

     negative rho (up, down):  6.692E-01 0.000E+00

     total cpu time spent up to now is       44.9 secs

     total energy              =      39.39596817 Ry
     Harris-Foulkes estimate   =  -16005.81435275 Ry
     estimated scf accuracy    <      32.59528236 Ry

     iteration # 80     ecut=    30.00 Ry     beta=0.70
     Davidson diagonalization with overlap
     ethr =  3.99E-03,  avg # of iterations =  8.0

     negative rho (up, down):  5.565E-01 0.000E+00

     total cpu time spent up to now is       45.0 secs

     total energy              =     127.77402901 Ry
     Harris-Foulkes estimate   =    -824.49987262 Ry
     estimated scf accuracy    <      18.63509893 Ry

     iteration # 81     ecut=    30.00 Ry     beta=0.70
     Davidson diagonalization with overlap
     ethr =  3.99E-03,  avg # of iterations = 14.0

     negative rho (up, down):  2.276E-01 0.000E+00

     total cpu time spent up to now is       45.0 secs

     total energy              =      99.47695099 Ry
     Harris-Foulkes estimate   =   -2383.39975118 Ry
     estimated scf accuracy    <      33.82746675 Ry

     iteration # 82     ecut=    30.00 Ry     beta=0.70
     Davidson diagonalization with overlap
     ethr =  3.99E-03,  avg # of iterations =  6.0

     negative rho (up, down):  3.344E-01 0.000E+00

     total cpu time spent up to now is       45.1 secs

     total energy              =      38.22169668 Ry
     Harris-Foulkes estimate   =   -3678.00686821 Ry
     estimated scf accuracy    <      34.33129363 Ry

     iteration # 83     ecut=    30.00 Ry     beta=0.70
     Davidson diagonalization with overlap
     ethr =  3.99E-03,  avg # of iterations = 12.0

     negative rho (up, down):  2.800E-01 0.000E+00

     total cpu time spent up to now is       45.2 secs

     total energy              =     102.79643652 Ry
     Harris-Foulkes estimate   =    -694.11043054 Ry
     estimated scf accuracy    <      18.48651004 Ry

     iteration # 84     ecut=    30.00 Ry     beta=0.70
     Davidson diagonalization with overlap
     ethr =  3.99E-03,  avg # of iterations = 13.0

     negative rho (up, down):  2.798E-01 0.000E+00

     total cpu time spent up to now is       45.2 secs

     total energy              =     126.88213210 Ry
     Harris-Foulkes estimate   =    -998.75792985 Ry
     estimated scf accuracy    <      21.40916168 Ry

     iteration # 85     ecut=    30.00 Ry     beta=0.70
     Davidson diagonalization with overlap
     ethr =  3.99E-03,  avg # of iterations =  9.0

     negative rho (up, down):  7.502E-02 0.000E+00

     total cpu time spent up to now is       45.3 secs

     total energy              =    -113.09174035 Ry
     Harris-Foulkes estimate   =    -336.57385866 Ry
     estimated scf accuracy    <      29.26208007 Ry

     iteration # 86     ecut=    30.00 Ry     beta=0.70
     Davidson diagonalization with overlap
     ethr =  3.99E-03,  avg # of iterations =  8.0

     negative rho (up, down):  8.293E-03 0.000E+00

     total cpu time spent up to now is       45.4 secs

     total energy              =      33.36190522 Ry
     Harris-Foulkes estimate   =    -292.99633782 Ry
     estimated scf accuracy    <      23.94492177 Ry

     iteration # 87     ecut=    30.00 Ry     beta=0.70
     Davidson diagonalization with overlap
     ethr =  3.99E-03,  avg # of iterations = 13.0

     negative rho (up, down):  4.664E-02 0.000E+00

     total cpu time spent up to now is       45.4 secs

     total energy              =      33.07014485 Ry
     Harris-Foulkes estimate   =    -348.75352519 Ry
     estimated scf accuracy    <      28.68064663 Ry

     iteration # 88     ecut=    30.00 Ry     beta=0.70
     Davidson diagonalization with overlap
     ethr =  3.99E-03,  avg # of iterations = 11.0

     negative rho (up, down):  7.034E-02 0.000E+00

     total cpu time spent up to now is       45.5 secs

     total energy              =     -70.02065798 Ry
     Harris-Foulkes estimate   =     -69.54218872 Ry
     estimated scf accuracy    <      52.38496179 Ry

     iteration # 89     ecut=    30.00 Ry     beta=0.70
     Davidson diagonalization with overlap
     ethr =  3.99E-03,  avg # of iterations =  5.0

     negative rho (up, down):  1.665E-02 0.000E+00

     total cpu time spent up to now is       45.5 secs

     total energy              =      20.27946714 Ry
     Harris-Foulkes estimate   =   -1582.46218187 Ry
     estimated scf accuracy    <      28.99433097 Ry

     iteration # 90     ecut=    30.00 Ry     beta=0.70
     Davidson diagonalization with overlap
     ethr =  3.99E-03,  avg # of iterations = 10.0

     negative rho (up, down):  2.431E-01 0.000E+00

     total cpu time spent up to now is       45.6 secs

     total energy              =     -68.28081976 Ry
     Harris-Foulkes estimate   =     -67.32353502 Ry
     estimated scf accuracy    <      49.25981008 Ry

     iteration # 91     ecut=    30.00 Ry     beta=0.70
     Davidson diagonalization with overlap
     ethr =  3.99E-03,  avg # of iterations =  6.0

     negative rho (up, down):  1.350E-01 0.000E+00

     total cpu time spent up to now is       45.6 secs

     total energy              =     111.37256273 Ry
     Harris-Foulkes estimate   =   -2649.12799954 Ry
     estimated scf accuracy    <      19.43535445 Ry

     iteration # 92     ecut=    30.00 Ry     beta=0.70
     Davidson diagonalization with overlap
     ethr =  3.99E-03,  avg # of iterations = 13.0

     negative rho (up, down):  1.441E-01 0.000E+00

     total cpu time spent up to now is       45.7 secs

     total energy              =     109.46227135 Ry
     Harris-Foulkes estimate   =    -154.35623131 Ry
     estimated scf accuracy    <      22.34675255 Ry

     iteration # 93     ecut=    30.00 Ry     beta=0.70
     Davidson diagonalization with overlap
     ethr =  3.99E-03,  avg # of iterations =  7.0

     negative rho (up, down):  1.795E-01 0.000E+00

     total cpu time spent up to now is       45.7 secs

     total energy              =      16.83472163 Ry
     Harris-Foulkes estimate   =    -243.15781404 Ry
     estimated scf accuracy    <      34.16898974 Ry

     iteration # 94     ecut=    30.00 Ry     beta=0.70
     Davidson diagonalization with overlap
     ethr =  3.99E-03,  avg # of iterations =  8.0

     negative rho (up, down):  1.141E-01 0.000E+00

     total cpu time spent up to now is       45.8 secs

     total energy              =     -39.88696137 Ry
     Harris-Foulkes estimate   =   -1653.66002832 Ry
     estimated scf accuracy    <      26.15472609 Ry

     iteration # 95     ecut=    30.00 Ry     beta=0.70
     Davidson diagonalization with overlap
     ethr =  3.99E-03,  avg # of iterations =  9.0

     negative rho (up, down):  2.458E-01 0.000E+00

     total cpu time spent up to now is       45.8 secs

     total energy              =      92.10668819 Ry
     Harris-Foulkes estimate   =   -1956.05867285 Ry
     estimated scf accuracy    <      24.31730105 Ry

     iteration # 96     ecut=    30.00 Ry     beta=0.70
     Davidson diagonalization with overlap
     ethr =  3.99E-03,  avg # of iterations =  9.0

     negative rho (up, down):  3.328E-01 0.000E+00

     total cpu time spent up to now is       45.9 secs

     total energy              =   -1438.96008075 Ry
     Harris-Foulkes estimate   =    -193.29668403 Ry
     estimated scf accuracy    <      30.77424664 Ry

     iteration # 97     ecut=    30.00 Ry     beta=0.70
     Davidson diagonalization with overlap
     ethr =  3.99E-03,  avg # of iterations =  7.0

     negative rho (up, down):  2.051E-01 0.000E+00

     total cpu time spent up to now is       46.0 secs

     total energy              =      39.53559637 Ry
     Harris-Foulkes estimate   =   -2795.97250063 Ry
     estimated scf accuracy    <      26.07463078 Ry

     iteration # 98     ecut=    30.00 Ry     beta=0.70
     Davidson diagonalization with overlap
     ethr =  3.99E-03,  avg # of iterations =  7.0

     negative rho (up, down):  8.456E-02 0.000E+00

     total cpu time spent up to now is       46.0 secs

     total energy              =      72.80943875 Ry
     Harris-Foulkes estimate   =   -4002.41875592 Ry
     estimated scf accuracy    <      17.43817146 Ry

     iteration # 99     ecut=    30.00 Ry     beta=0.70
     Davidson diagonalization with overlap
     ethr =  3.99E-03,  avg # of iterations =  7.0

     negative rho (up, down):  3.694E-04 0.000E+00

     total cpu time spent up to now is       46.1 secs

     total energy              =     123.93476640 Ry
     Harris-Foulkes estimate   =    -434.80706091 Ry
     estimated scf accuracy    <      28.09031764 Ry

     iteration #100     ecut=    30.00 Ry     beta=0.70
     Davidson diagonalization with overlap
     ethr =  3.99E-03,  avg # of iterations =  9.0

     negative rho (up, down):  1.185E-01 0.000E+00

     total cpu time spent up to now is       46.1 secs

     total energy              =     -19.57376776 Ry
     Harris-Foulkes estimate   =    -109.96949506 Ry
     estimated scf accuracy    <      32.56944494 Ry

     End of self-consistent calculation

     convergence NOT achieved after 100 iterations: stopping

     Writing output data file pwscf.save
 
     init_run     :      0.09s CPU      0.11s WALL (       1 calls)
     electrons    :     29.15s CPU     37.69s WALL (      31 calls)
     update_pot   :      3.91s CPU      5.57s WALL (      30 calls)
     forces       :      0.78s CPU      0.80s WALL (      30 calls)

     Called by init_run:
     wfcinit      :      0.01s CPU      0.02s WALL (       1 calls)
     potinit      :      0.02s CPU      0.03s WALL (       1 calls)

     Called by electrons:
     c_bands      :     13.01s CPU     13.96s WALL (     865 calls)
     sum_band     :      2.53s CPU      2.77s WALL (     865 calls)
     v_of_rho     :      6.77s CPU      7.43s WALL (     896 calls)
     mix_rho      :      5.54s CPU      9.76s WALL (     865 calls)

     Called by c_bands:
     init_us_2    :      0.08s CPU      0.10s WALL (    1731 calls)
     cegterg      :     12.81s CPU     13.46s WALL (     865 calls)

     Called by sum_band:

     Called by *egterg:
     h_psi        :     10.78s CPU     11.32s WALL (    3848 calls)
     g_psi        :      0.10s CPU      0.10s WALL (    2982 calls)
     cdiaghg      :      0.75s CPU      0.78s WALL (    3817 calls)

     Called by h_psi:
     h_psi:pot    :     10.72s CPU     11.26s WALL (    3848 calls)
     h_psi:calbec :      0.46s CPU      0.51s WALL (    3848 calls)
     vloc_psi     :     10.21s CPU     10.70s WALL (    3848 calls)
     add_vuspsi   :      0.03s CPU      0.03s WALL (    3848 calls)

     General routines
     calbec       :      0.69s CPU      0.85s WALL (    3997 calls)
     fft          :      4.34s CPU      4.74s WALL (    9916 calls)
     fftw         :     10.79s CPU     11.43s WALL (   47778 calls)
     davcio       :      0.89s CPU      3.67s WALL (   14554 calls)
 
     Parallel routines
     fft_scatter  :      6.32s CPU      7.07s WALL (   57694 calls)
 
     PWSCF        :    34.75s CPU        46.22s WALL

 
   This run was terminated on:   2:50: 0  11Feb2018            

=------------------------------------------------------------------------------=
   JOB DONE.
=------------------------------------------------------------------------------=
