
     Program PWSCF v.6.0 (svn rev. 13079) starts on 11Feb2018 at  2:50:15 

     This program is part of the open-source Quantum ESPRESSO suite
     for quantum simulation of materials; please cite
         "P. Giannozzi et al., J. Phys.:Condens. Matter 21 395502 (2009);
          URL http://www.quantum-espresso.org", 
     in publications or presentations arising from this work. More details at
     http://www.quantum-espresso.org/quote

     Parallel version (MPI), running on    28 processors
     R & G space division:  proc/nbgrp/npool/nimage =      28
     Reading input from inputs/water-1-md/558.in

     Current dimensions of program PWSCF are:
     Max number of different atomic species (ntypx) = 10
     Max number of k-points (npk) =  40000
     Max angular momentum in pseudopotentials (lmaxx) =  3

     Subspace diagonalization in iterative solution of the eigenvalue problem:
     a serial algorithm will be used

 
     Parallelization info
     --------------------
     sticks:   dense  smooth     PW     G-vecs:    dense   smooth      PW
     Min         136     136     33                 6338     6338     787
     Max         137     137     34                 6341     6341     792
     Sum        3809    3809    949               177509   177509   22119
 


     bravais-lattice index     =            1
     lattice parameter (alat)  =      20.0000  a.u.
     unit-cell volume          =    8000.0000 (a.u.)^3
     number of atoms/cell      =            3
     number of atomic types    =            2
     number of electrons       =         8.00
     number of Kohn-Sham states=            8
     kinetic-energy cutoff     =      30.0000  Ry
     charge density cutoff     =     120.0000  Ry
     convergence threshold     =      1.0E-08
     mixing beta               =       0.7000
     number of iterations used =            8  plain     mixing
     Exchange-correlation      = BLYP ( 1  3  1  3 0 0)
     nstep                     =         5000


     celldm(1)=  20.000000  celldm(2)=   0.000000  celldm(3)=   0.000000
     celldm(4)=   0.000000  celldm(5)=   0.000000  celldm(6)=   0.000000

     crystal axes: (cart. coord. in units of alat)
               a(1) = (   1.000000   0.000000   0.000000 )  
               a(2) = (   0.000000   1.000000   0.000000 )  
               a(3) = (   0.000000   0.000000   1.000000 )  

     reciprocal axes: (cart. coord. in units 2 pi/alat)
               b(1) = (  1.000000  0.000000  0.000000 )  
               b(2) = (  0.000000  1.000000  0.000000 )  
               b(3) = (  0.000000  0.000000  1.000000 )  


     PseudoPot. # 1 for  H read from file:
     ./H.blyp-hgh.UPF
     MD5 check sum: c576e69559cde411e611be972c763230
     Pseudo is Norm-conserving, Zval =  1.0
     Generated in analytical, separable form
     Using radial grid of  929 points,  0 beta functions with: 

     PseudoPot. # 2 for  O read from file:
     ./O.blyp-hgh.UPF
     MD5 check sum: d0b7156309aa9befef28faac7bc56342
     Pseudo is Norm-conserving, Zval =  6.0
     Generated in analytical, separable form
     Using radial grid of 1095 points,  1 beta functions with: 
                l(1) =   0

     atomic species   valence    mass     pseudopotential
        H              1.00     1.01000      H( 1.00)
        O              6.00    16.00000      O( 1.00)

     No symmetry found



   Cartesian axes

     site n.     atom                  positions (alat units)
         1           H   tau(   1) = (   0.1357746   0.7314534   0.3461984  )
         2           H   tau(   2) = (   0.3883479   0.1958773   0.4258896  )
         3           O   tau(   3) = (   0.5237764   0.4502378   0.8621538  )

     number of k points=     1  Marzari-Vanderbilt smearing, width (Ry)=  0.0250
                       cart. coord. in units 2pi/alat
        k(    1) = (   0.0000000   0.0000000   0.0000000), wk =   2.0000000

     Dense  grid:   177509 G-vectors     FFT dimensions: (  72,  72,  72)

     Estimated max dynamical RAM per process >       6.09Mb

     Estimated total allocated dynamical RAM >     170.64Mb

     Initial potential from superposition of free atoms
     Check: negative starting charge=   -0.351499

     starting charge    7.99998, renormalised to    8.00000

     negative rho (up, down):  3.515E-01 0.000E+00
     Starting wfc are    6 randomized atomic wfcs +    2 random wfc

     total cpu time spent up to now is        0.2 secs

     per-process dynamical memory:    18.8 Mb

     Self-consistent Calculation

     iteration #  1     ecut=    30.00 Ry     beta=0.70
     Davidson diagonalization with overlap
     ethr =  1.00E-02,  avg # of iterations =  7.0

     negative rho (up, down):  8.497E-02 0.000E+00

     total cpu time spent up to now is        0.3 secs

     total energy              =     -28.04644588 Ry
     Harris-Foulkes estimate   =     -32.08232449 Ry
     estimated scf accuracy    <       4.62715179 Ry

     iteration #  2     ecut=    30.00 Ry     beta=0.70
     Davidson diagonalization with overlap
     ethr =  1.00E-02,  avg # of iterations =  4.0

     negative rho (up, down):  6.223E-02 0.000E+00

     total cpu time spent up to now is        0.3 secs

     total energy              =     -32.67434159 Ry
     Harris-Foulkes estimate   =     -38.01998183 Ry
     estimated scf accuracy    <      13.01599364 Ry

     iteration #  3     ecut=    30.00 Ry     beta=0.70
     Davidson diagonalization with overlap
     ethr =  1.00E-02,  avg # of iterations =  2.0

     negative rho (up, down):  6.419E-02 0.000E+00

     total cpu time spent up to now is        0.3 secs

     total energy              =     -33.22175317 Ry
     Harris-Foulkes estimate   =     -33.01305064 Ry
     estimated scf accuracy    <       5.05979501 Ry

     iteration #  4     ecut=    30.00 Ry     beta=0.70
     Davidson diagonalization with overlap
     ethr =  1.00E-02,  avg # of iterations =  1.0

     negative rho (up, down):  2.548E-02 0.000E+00

     total cpu time spent up to now is        0.4 secs

     total energy              =     -30.18222205 Ry
     Harris-Foulkes estimate   =     -33.22230229 Ry
     estimated scf accuracy    <       5.36550351 Ry

     iteration #  5     ecut=    30.00 Ry     beta=0.70
     Davidson diagonalization with overlap
     ethr =  1.00E-02,  avg # of iterations =  6.0

     negative rho (up, down):  2.357E-02 0.000E+00

     total cpu time spent up to now is        0.4 secs

     total energy              =     -33.29353132 Ry
     Harris-Foulkes estimate   =     -33.33220697 Ry
     estimated scf accuracy    <      13.92276266 Ry

     iteration #  6     ecut=    30.00 Ry     beta=0.70
     Davidson diagonalization with overlap
     ethr =  1.00E-02,  avg # of iterations =  1.0

     negative rho (up, down):  4.680E-02 0.000E+00

     total cpu time spent up to now is        0.4 secs

     total energy              =     -33.13184664 Ry
     Harris-Foulkes estimate   =     -33.29731980 Ry
     estimated scf accuracy    <      13.83536259 Ry

     iteration #  7     ecut=    30.00 Ry     beta=0.70
     Davidson diagonalization with overlap
     ethr =  1.00E-02,  avg # of iterations =  1.0

     negative rho (up, down):  2.236E-02 0.000E+00

     total cpu time spent up to now is        0.5 secs

     total energy              =     -32.34344382 Ry
     Harris-Foulkes estimate   =     -33.14315873 Ry
     estimated scf accuracy    <      11.05247950 Ry

     iteration #  8     ecut=    30.00 Ry     beta=0.70
     Davidson diagonalization with overlap
     ethr =  1.00E-02,  avg # of iterations =  2.0

     negative rho (up, down):  4.122E-04 0.000E+00

     total cpu time spent up to now is        0.5 secs

     total energy              =     -32.31228376 Ry
     Harris-Foulkes estimate   =     -32.54934420 Ry
     estimated scf accuracy    <       5.33159135 Ry

     iteration #  9     ecut=    30.00 Ry     beta=0.70
     Davidson diagonalization with overlap
     ethr =  1.00E-02,  avg # of iterations =  1.0

     negative rho (up, down):  2.338E-02 0.000E+00

     total cpu time spent up to now is        0.5 secs

     total energy              =     -31.84457919 Ry
     Harris-Foulkes estimate   =     -32.31544699 Ry
     estimated scf accuracy    <       4.94904908 Ry

     iteration # 10     ecut=    30.00 Ry     beta=0.70
     Davidson diagonalization with overlap
     ethr =  1.00E-02,  avg # of iterations =  1.0

     negative rho (up, down):  3.389E-02 0.000E+00

     total cpu time spent up to now is        0.6 secs

     total energy              =     -31.65535456 Ry
     Harris-Foulkes estimate   =     -31.85123019 Ry
     estimated scf accuracy    <       4.19455198 Ry

     iteration # 11     ecut=    30.00 Ry     beta=0.70
     Davidson diagonalization with overlap
     ethr =  1.00E-02,  avg # of iterations =  1.0

     negative rho (up, down):  2.432E-02 0.000E+00

     total cpu time spent up to now is        0.6 secs

     total energy              =     -31.91448248 Ry
     Harris-Foulkes estimate   =     -31.65692120 Ry
     estimated scf accuracy    <       3.91092704 Ry

     iteration # 12     ecut=    30.00 Ry     beta=0.70
     Davidson diagonalization with overlap
     ethr =  1.00E-02,  avg # of iterations =  1.0

     negative rho (up, down):  1.114E-01 0.000E+00

     total cpu time spent up to now is        0.6 secs

     total energy              =     -32.94341835 Ry
     Harris-Foulkes estimate   =     -31.91586872 Ry
     estimated scf accuracy    <       4.27953257 Ry

     iteration # 13     ecut=    30.00 Ry     beta=0.70
     Davidson diagonalization with overlap
     ethr =  1.00E-02,  avg # of iterations =  1.0

     negative rho (up, down):  7.310E-01 0.000E+00

     total cpu time spent up to now is        0.7 secs

     total energy              =     -28.15526221 Ry
     Harris-Foulkes estimate   =     -32.98231776 Ry
     estimated scf accuracy    <       6.95095258 Ry

     iteration # 14     ecut=    30.00 Ry     beta=0.70
     Davidson diagonalization with overlap
     ethr =  1.00E-02,  avg # of iterations =  4.0

     negative rho (up, down):  1.734E-01 0.000E+00

     total cpu time spent up to now is        0.7 secs

     total energy              =     -33.37698345 Ry
     Harris-Foulkes estimate   =     -35.88060124 Ry
     estimated scf accuracy    <       9.18639788 Ry

     iteration # 15     ecut=    30.00 Ry     beta=0.70
     Davidson diagonalization with overlap
     ethr =  1.00E-02,  avg # of iterations =  1.0

     total cpu time spent up to now is        0.7 secs

     total energy              =     -31.51272931 Ry
     Harris-Foulkes estimate   =     -33.43609614 Ry
     estimated scf accuracy    <       5.66581816 Ry

     iteration # 16     ecut=    30.00 Ry     beta=0.70
     Davidson diagonalization with overlap
     ethr =  1.00E-02,  avg # of iterations =  4.0

     negative rho (up, down):  1.330E-06 0.000E+00

     total cpu time spent up to now is        0.8 secs

     total energy              =     -31.62695893 Ry
     Harris-Foulkes estimate   =     -31.56741888 Ry
     estimated scf accuracy    <       2.75323493 Ry

     iteration # 17     ecut=    30.00 Ry     beta=0.70
     Davidson diagonalization with overlap
     ethr =  1.00E-02,  avg # of iterations =  1.0

     negative rho (up, down):  3.396E-02 0.000E+00

     total cpu time spent up to now is        0.8 secs

     total energy              =     -31.88203329 Ry
     Harris-Foulkes estimate   =     -31.62774650 Ry
     estimated scf accuracy    <       2.86301709 Ry

     iteration # 18     ecut=    30.00 Ry     beta=0.70
     Davidson diagonalization with overlap
     ethr =  1.00E-02,  avg # of iterations =  1.0

     negative rho (up, down):  8.002E-03 0.000E+00

     total cpu time spent up to now is        0.8 secs

     total energy              =     -31.43660713 Ry
     Harris-Foulkes estimate   =     -31.88566876 Ry
     estimated scf accuracy    <       3.31990826 Ry

     iteration # 19     ecut=    30.00 Ry     beta=0.70
     Davidson diagonalization with overlap
     ethr =  1.00E-02,  avg # of iterations =  3.0

     negative rho (up, down):  9.386E-03 0.000E+00

     total cpu time spent up to now is        0.9 secs

     total energy              =     -31.48900266 Ry
     Harris-Foulkes estimate   =     -31.49109951 Ry
     estimated scf accuracy    <       0.26191499 Ry

     iteration # 20     ecut=    30.00 Ry     beta=0.70
     Davidson diagonalization with overlap
     ethr =  3.27E-03,  avg # of iterations =  1.0

     negative rho (up, down):  3.444E-03 0.000E+00

     total cpu time spent up to now is        0.9 secs

     total energy              =     -31.51793773 Ry
     Harris-Foulkes estimate   =     -31.49138636 Ry
     estimated scf accuracy    <       0.13204195 Ry

     iteration # 21     ecut=    30.00 Ry     beta=0.70
     Davidson diagonalization with overlap
     ethr =  1.65E-03,  avg # of iterations =  1.0

     negative rho (up, down):  1.752E-05 0.000E+00

     total cpu time spent up to now is        0.9 secs

     total energy              =     -31.49201397 Ry
     Harris-Foulkes estimate   =     -31.62528951 Ry
     estimated scf accuracy    <       3.95234643 Ry

     iteration # 22     ecut=    30.00 Ry     beta=0.70
     Davidson diagonalization with overlap
     ethr =  1.65E-03,  avg # of iterations =  1.0

     negative rho (up, down):  1.600E-03 0.000E+00

     total cpu time spent up to now is        1.0 secs

     total energy              =     -31.36673657 Ry
     Harris-Foulkes estimate   =     -31.49774691 Ry
     estimated scf accuracy    <       0.79723345 Ry

     iteration # 23     ecut=    30.00 Ry     beta=0.70
     Davidson diagonalization with overlap
     ethr =  1.65E-03,  avg # of iterations =  1.0

     negative rho (up, down):  1.742E-03 0.000E+00

     total cpu time spent up to now is        1.0 secs

     total energy              =     -31.70293415 Ry
     Harris-Foulkes estimate   =     -31.69750668 Ry
     estimated scf accuracy    <       2.99674828 Ry

     iteration # 24     ecut=    30.00 Ry     beta=0.70
     Davidson diagonalization with overlap
     ethr =  1.65E-03,  avg # of iterations =  1.0

     negative rho (up, down):  1.971E-03 0.000E+00

     total cpu time spent up to now is        1.0 secs

     total energy              =     -31.66803225 Ry
     Harris-Foulkes estimate   =     -31.70302331 Ry
     estimated scf accuracy    <       3.01212079 Ry

     iteration # 25     ecut=    30.00 Ry     beta=0.70
     Davidson diagonalization with overlap
     ethr =  1.65E-03,  avg # of iterations =  1.0

     negative rho (up, down):  1.029E-03 0.000E+00

     total cpu time spent up to now is        1.1 secs

     total energy              =     -31.53907032 Ry
     Harris-Foulkes estimate   =     -31.66804350 Ry
     estimated scf accuracy    <       2.96787373 Ry

     iteration # 26     ecut=    30.00 Ry     beta=0.70
     Davidson diagonalization with overlap
     ethr =  1.65E-03,  avg # of iterations =  1.0

     negative rho (up, down):  1.334E-03 0.000E+00

     total cpu time spent up to now is        1.1 secs

     total energy              =     -31.60098603 Ry
     Harris-Foulkes estimate   =     -31.53997426 Ry
     estimated scf accuracy    <       2.56411017 Ry

     iteration # 27     ecut=    30.00 Ry     beta=0.70
     Davidson diagonalization with overlap
     ethr =  1.65E-03,  avg # of iterations =  1.0

     negative rho (up, down):  1.459E-04 0.000E+00

     total cpu time spent up to now is        1.1 secs

     total energy              =     -31.55208668 Ry
     Harris-Foulkes estimate   =     -31.60296353 Ry
     estimated scf accuracy    <       2.85854956 Ry

     iteration # 28     ecut=    30.00 Ry     beta=0.70
     Davidson diagonalization with overlap
     ethr =  1.65E-03,  avg # of iterations =  1.0

     negative rho (up, down):  1.361E-04 0.000E+00

     total cpu time spent up to now is        1.2 secs

     total energy              =     -31.48034024 Ry
     Harris-Foulkes estimate   =     -31.55233202 Ry
     estimated scf accuracy    <       2.70053265 Ry

     iteration # 29     ecut=    30.00 Ry     beta=0.70
     Davidson diagonalization with overlap
     ethr =  1.65E-03,  avg # of iterations =  1.0

     negative rho (up, down):  1.382E-03 0.000E+00

     total cpu time spent up to now is        1.2 secs

     total energy              =     -31.43629697 Ry
     Harris-Foulkes estimate   =     -31.49482989 Ry
     estimated scf accuracy    <       0.40894983 Ry

     iteration # 30     ecut=    30.00 Ry     beta=0.70
     Davidson diagonalization with overlap
     ethr =  1.65E-03,  avg # of iterations =  1.0

     negative rho (up, down):  1.075E-03 0.000E+00

     total cpu time spent up to now is        1.2 secs

     total energy              =     -31.52779786 Ry
     Harris-Foulkes estimate   =     -31.62321791 Ry
     estimated scf accuracy    <       3.97422184 Ry

     iteration # 31     ecut=    30.00 Ry     beta=0.70
     Davidson diagonalization with overlap
     ethr =  1.65E-03,  avg # of iterations =  1.0

     negative rho (up, down):  5.413E-05 0.000E+00

     total cpu time spent up to now is        1.3 secs

     total energy              =     -31.25961549 Ry
     Harris-Foulkes estimate   =     -31.52243187 Ry
     estimated scf accuracy    <       3.19624097 Ry

     iteration # 32     ecut=    30.00 Ry     beta=0.70
     Davidson diagonalization with overlap
     ethr =  1.65E-03,  avg # of iterations =  1.0

     negative rho (up, down):  1.203E-06 0.000E+00

     total cpu time spent up to now is        1.3 secs

     total energy              =     -31.45276521 Ry
     Harris-Foulkes estimate   =     -31.65331500 Ry
     estimated scf accuracy    <       2.95346647 Ry

     iteration # 33     ecut=    30.00 Ry     beta=0.70
     Davidson diagonalization with overlap
     ethr =  1.65E-03,  avg # of iterations =  1.0

     negative rho (up, down):  1.497E-06 0.000E+00

     total cpu time spent up to now is        1.3 secs

     total energy              =     -31.49046090 Ry
     Harris-Foulkes estimate   =     -31.49040462 Ry
     estimated scf accuracy    <       0.02143025 Ry

     iteration # 34     ecut=    30.00 Ry     beta=0.70
     Davidson diagonalization with overlap
     ethr =  2.68E-04,  avg # of iterations =  1.0

     negative rho (up, down):  5.600E-05 0.000E+00

     total cpu time spent up to now is        1.3 secs

     total energy              =     -31.49394829 Ry
     Harris-Foulkes estimate   =     -31.49053845 Ry
     estimated scf accuracy    <       0.03249171 Ry

     iteration # 35     ecut=    30.00 Ry     beta=0.70
     Davidson diagonalization with overlap
     ethr =  2.68E-04,  avg # of iterations =  1.0

     negative rho (up, down):  3.567E-05 0.000E+00

     total cpu time spent up to now is        1.4 secs

     total energy              =     -31.48207777 Ry
     Harris-Foulkes estimate   =     -31.50337942 Ry
     estimated scf accuracy    <       1.44373638 Ry

     iteration # 36     ecut=    30.00 Ry     beta=0.70
     Davidson diagonalization with overlap
     ethr =  2.68E-04,  avg # of iterations =  1.0

     negative rho (up, down):  9.770E-06 0.000E+00

     total cpu time spent up to now is        1.4 secs

     total energy              =     -31.49263716 Ry
     Harris-Foulkes estimate   =     -31.49066412 Ry
     estimated scf accuracy    <       0.04676433 Ry

     iteration # 37     ecut=    30.00 Ry     beta=0.70
     Davidson diagonalization with overlap
     ethr =  2.68E-04,  avg # of iterations =  1.0

     negative rho (up, down):  5.776E-05 0.000E+00

     total cpu time spent up to now is        1.4 secs

     total energy              =     -31.52247340 Ry
     Harris-Foulkes estimate   =     -31.49492690 Ry
     estimated scf accuracy    <       0.52698872 Ry

     iteration # 38     ecut=    30.00 Ry     beta=0.70
     Davidson diagonalization with overlap
     ethr =  2.68E-04,  avg # of iterations =  1.0

     negative rho (up, down):  2.454E-05 0.000E+00

     total cpu time spent up to now is        1.5 secs

     total energy              =     -31.47186704 Ry
     Harris-Foulkes estimate   =     -31.55476535 Ry
     estimated scf accuracy    <       4.82743919 Ry

     iteration # 39     ecut=    30.00 Ry     beta=0.70
     Davidson diagonalization with overlap
     ethr =  2.68E-04,  avg # of iterations =  1.0

     negative rho (up, down):  4.520E-06 0.000E+00

     total cpu time spent up to now is        1.5 secs

     total energy              =     -31.49235613 Ry
     Harris-Foulkes estimate   =     -31.49448889 Ry
     estimated scf accuracy    <       0.47978542 Ry

     iteration # 40     ecut=    30.00 Ry     beta=0.70
     Davidson diagonalization with overlap
     ethr =  2.68E-04,  avg # of iterations =  1.0

     negative rho (up, down):  1.359E-08 0.000E+00

     total cpu time spent up to now is        1.5 secs

     total energy              =     -31.48443121 Ry
     Harris-Foulkes estimate   =     -31.49262866 Ry
     estimated scf accuracy    <       0.26922263 Ry

     iteration # 41     ecut=    30.00 Ry     beta=0.70
     Davidson diagonalization with overlap
     ethr =  2.68E-04,  avg # of iterations =  1.0

     negative rho (up, down):  1.408E-08 0.000E+00

     total cpu time spent up to now is        1.6 secs

     total energy              =     -31.48873173 Ry
     Harris-Foulkes estimate   =     -31.49143110 Ry
     estimated scf accuracy    <       0.12446719 Ry

     iteration # 42     ecut=    30.00 Ry     beta=0.70
     Davidson diagonalization with overlap
     ethr =  2.68E-04,  avg # of iterations =  1.0

     total cpu time spent up to now is        1.6 secs

     total energy              =     -31.49026339 Ry
     Harris-Foulkes estimate   =     -31.49026835 Ry
     estimated scf accuracy    <       0.00314487 Ry

     iteration # 43     ecut=    30.00 Ry     beta=0.70
     Davidson diagonalization with overlap
     ethr =  3.93E-05,  avg # of iterations = 13.0

     total cpu time spent up to now is        1.7 secs

     total energy              =     -31.49025688 Ry
     Harris-Foulkes estimate   =     -31.49026392 Ry
     estimated scf accuracy    <       0.00263003 Ry

     iteration # 44     ecut=    30.00 Ry     beta=0.70
     Davidson diagonalization with overlap
     ethr =  3.29E-05,  avg # of iterations =  1.0

     total cpu time spent up to now is        1.7 secs

     total energy              =     -31.49025393 Ry
     Harris-Foulkes estimate   =     -31.49025746 Ry
     estimated scf accuracy    <       0.00189336 Ry

     iteration # 45     ecut=    30.00 Ry     beta=0.70
     Davidson diagonalization with overlap
     ethr =  2.37E-05,  avg # of iterations =  1.0

     total cpu time spent up to now is        1.7 secs

     total energy              =     -31.49023561 Ry
     Harris-Foulkes estimate   =     -31.49025413 Ry
     estimated scf accuracy    <       0.00151445 Ry

     iteration # 46     ecut=    30.00 Ry     beta=0.70
     Davidson diagonalization with overlap
     ethr =  1.89E-05,  avg # of iterations =  1.0

     total cpu time spent up to now is        1.8 secs

     total energy              =     -31.49023750 Ry
     Harris-Foulkes estimate   =     -31.49024227 Ry
     estimated scf accuracy    <       0.00014187 Ry

     iteration # 47     ecut=    30.00 Ry     beta=0.70
     Davidson diagonalization with overlap
     ethr =  1.77E-06,  avg # of iterations =  6.0

     total cpu time spent up to now is        1.8 secs

     total energy              =     -31.49023951 Ry
     Harris-Foulkes estimate   =     -31.49024281 Ry
     estimated scf accuracy    <       0.00014883 Ry

     iteration # 48     ecut=    30.00 Ry     beta=0.70
     Davidson diagonalization with overlap
     ethr =  1.77E-06,  avg # of iterations =  1.0

     total cpu time spent up to now is        1.8 secs

     total energy              =     -31.49024088 Ry
     Harris-Foulkes estimate   =     -31.49024119 Ry
     estimated scf accuracy    <       0.00000177 Ry

     iteration # 49     ecut=    30.00 Ry     beta=0.70
     Davidson diagonalization with overlap
     ethr =  2.21E-08,  avg # of iterations =  1.0

     total cpu time spent up to now is        1.9 secs

     total energy              =     -31.49024087 Ry
     Harris-Foulkes estimate   =     -31.49024091 Ry
     estimated scf accuracy    <       0.00000010 Ry

     iteration # 50     ecut=    30.00 Ry     beta=0.70
     Davidson diagonalization with overlap
     ethr =  1.27E-09,  avg # of iterations =  1.0

     total cpu time spent up to now is        1.9 secs

     total energy              =     -31.49024089 Ry
     Harris-Foulkes estimate   =     -31.49024087 Ry
     estimated scf accuracy    <       0.00000002 Ry

     iteration # 51     ecut=    30.00 Ry     beta=0.70
     Davidson diagonalization with overlap
     ethr =  3.08E-10,  avg # of iterations =  1.0

     total cpu time spent up to now is        1.9 secs

     End of self-consistent calculation

          k = 0.0000 0.0000 0.0000 ( 22119 PWs)   bands (ev):

   -23.6220  -7.0318  -7.0308  -7.0306  -6.9360  -6.9161  -0.2407   0.5436

     the Fermi energy is    -6.8964 ev

!    total energy              =     -31.49024087 Ry
     Harris-Foulkes estimate   =     -31.49024089 Ry
     estimated scf accuracy    <          9.0E-10 Ry

     convergence has been achieved in  51 iterations

     Forces acting on atoms (Ry/au):

     atom    1 type  1   force =     0.00034470   -0.00027926   -0.00014500
     atom    2 type  1   force =     0.00044530   -0.00011885   -0.00003138
     atom    3 type  2   force =    -0.00079000    0.00039811    0.00017639

     Total force =     0.001116     Total SCF correction =     0.000026

     Molecular Dynamics Calculation

     Starting temperature  =  1000.00 K

     temperature is controlled by Andersen thermostat
     Collision frequency = 1.0000/timestep
     mass H                =     1.01
     mass O                =    16.00
     Time step             =   100.00 a.u.,  4.8378 femto-seconds

     Entering Dynamics:    iteration =     1
                           time      =   0.0048 pico-seconds


     Andersen thermostat:    3 collisions

ATOMIC_POSITIONS (bohr)
H        2.948922332  14.904091348   6.725052551
H        7.775908004   4.145914465   8.328725413
O       10.460227741   8.972979392  17.267567366


     kinetic energy (Ekin) =     0.01319564 Ry
     temperature           =   694.47456190 K 
     Ekin + Etot (const)   =   -31.47704524 Ry

     Linear momentum :   -0.0000000000    0.0000000000   -0.0000000000

     Writing output data file pwscf.save
     Check: negative starting charge=   -0.351499
     NEW-OLD atomic charge density approx. for the potential
     Check: negative starting charge=   -0.351534

     negative rho (up, down):  8.048E-02 0.000E+00

     total cpu time spent up to now is        2.2 secs

     per-process dynamical memory:    20.4 Mb

     Self-consistent Calculation

     iteration #  1     ecut=    30.00 Ry     beta=0.70
     Davidson diagonalization with overlap
     c_bands:  1 eigenvalues not converged
     ethr =  1.00E-06,  avg # of iterations = 20.0

     negative rho (up, down):  1.842E-02 0.000E+00

     total cpu time spent up to now is        2.3 secs

     total energy              =     -31.44674118 Ry
     Harris-Foulkes estimate   =     -31.42852492 Ry
     estimated scf accuracy    <       0.03315126 Ry

     iteration #  2     ecut=    30.00 Ry     beta=0.70
     Davidson diagonalization with overlap
     ethr =  4.14E-04,  avg # of iterations =  2.0

     negative rho (up, down):  1.713E-02 0.000E+00

     total cpu time spent up to now is        2.3 secs

     total energy              =     -31.46936069 Ry
     Harris-Foulkes estimate   =     -31.87380601 Ry
     estimated scf accuracy    <       4.24555644 Ry

     iteration #  3     ecut=    30.00 Ry     beta=0.70
     Davidson diagonalization with overlap
     ethr =  4.14E-04,  avg # of iterations =  2.0

     negative rho (up, down):  1.677E-02 0.000E+00

     total cpu time spent up to now is        2.3 secs

     total energy              =     -31.46862816 Ry
     Harris-Foulkes estimate   =     -31.49131454 Ry
     estimated scf accuracy    <       1.01687542 Ry

     iteration #  4     ecut=    30.00 Ry     beta=0.70
     Davidson diagonalization with overlap
     ethr =  4.14E-04,  avg # of iterations =  1.0

     negative rho (up, down):  5.984E-03 0.000E+00

     total cpu time spent up to now is        2.4 secs

     total energy              =     -31.43973869 Ry
     Harris-Foulkes estimate   =     -31.47799670 Ry
     estimated scf accuracy    <       0.44015414 Ry

     iteration #  5     ecut=    30.00 Ry     beta=0.70
     Davidson diagonalization with overlap
     ethr =  4.14E-04,  avg # of iterations =  1.0

     negative rho (up, down):  2.811E-03 0.000E+00

     total cpu time spent up to now is        2.4 secs

     total energy              =     -31.45444352 Ry
     Harris-Foulkes estimate   =     -31.55917147 Ry
     estimated scf accuracy    <       2.78836319 Ry

     iteration #  6     ecut=    30.00 Ry     beta=0.70
     Davidson diagonalization with overlap
     ethr =  4.14E-04,  avg # of iterations =  1.0

     negative rho (up, down):  6.968E-04 0.000E+00

     total cpu time spent up to now is        2.4 secs

     total energy              =     -31.48982692 Ry
     Harris-Foulkes estimate   =     -31.48826971 Ry
     estimated scf accuracy    <       0.00691287 Ry

     iteration #  7     ecut=    30.00 Ry     beta=0.70
     Davidson diagonalization with overlap
     ethr =  8.64E-05,  avg # of iterations =  9.0

     negative rho (up, down):  3.586E-04 0.000E+00

     total cpu time spent up to now is        2.5 secs

     total energy              =     -31.49035872 Ry
     Harris-Foulkes estimate   =     -31.49063502 Ry
     estimated scf accuracy    <       0.04964821 Ry

     iteration #  8     ecut=    30.00 Ry     beta=0.70
     Davidson diagonalization with overlap
     ethr =  8.64E-05,  avg # of iterations =  1.0

     negative rho (up, down):  2.793E-06 0.000E+00

     total cpu time spent up to now is        2.5 secs

     total energy              =     -31.49002745 Ry
     Harris-Foulkes estimate   =     -31.49041863 Ry
     estimated scf accuracy    <       0.02207177 Ry

     iteration #  9     ecut=    30.00 Ry     beta=0.70
     Davidson diagonalization with overlap
     ethr =  8.64E-05,  avg # of iterations =  1.0

     negative rho (up, down):  1.721E-08 0.000E+00

     total cpu time spent up to now is        2.5 secs

     total energy              =     -31.49024146 Ry
     Harris-Foulkes estimate   =     -31.49024063 Ry
     estimated scf accuracy    <       0.00016079 Ry

     iteration # 10     ecut=    30.00 Ry     beta=0.70
     Davidson diagonalization with overlap
     ethr =  2.01E-06,  avg # of iterations =  8.0

     negative rho (up, down):  4.440E-08 0.000E+00

     total cpu time spent up to now is        2.6 secs

     total energy              =     -31.49026617 Ry
     Harris-Foulkes estimate   =     -31.49033435 Ry
     estimated scf accuracy    <       0.01020633 Ry

     iteration # 11     ecut=    30.00 Ry     beta=0.70
     Davidson diagonalization with overlap
     ethr =  2.01E-06,  avg # of iterations =  1.0

     total cpu time spent up to now is        2.6 secs

     total energy              =     -31.49020099 Ry
     Harris-Foulkes estimate   =     -31.49027837 Ry
     estimated scf accuracy    <       0.00417214 Ry

     iteration # 12     ecut=    30.00 Ry     beta=0.70
     Davidson diagonalization with overlap
     ethr =  2.01E-06,  avg # of iterations =  1.0

     total cpu time spent up to now is        2.7 secs

     total energy              =     -31.49024071 Ry
     Harris-Foulkes estimate   =     -31.49024007 Ry
     estimated scf accuracy    <       0.00000039 Ry

     iteration # 13     ecut=    30.00 Ry     beta=0.70
     Davidson diagonalization with overlap
     ethr =  4.83E-09,  avg # of iterations =  2.0

     total cpu time spent up to now is        2.7 secs

     total energy              =     -31.49023341 Ry
     Harris-Foulkes estimate   =     -31.49024876 Ry
     estimated scf accuracy    <       0.00083149 Ry

     iteration # 14     ecut=    30.00 Ry     beta=0.70
     Davidson diagonalization with overlap
     ethr =  4.83E-09,  avg # of iterations =  2.0

     total cpu time spent up to now is        2.7 secs

     total energy              =     -31.49024089 Ry
     Harris-Foulkes estimate   =     -31.49024085 Ry
     estimated scf accuracy    <       0.00000031 Ry

     iteration # 15     ecut=    30.00 Ry     beta=0.70
     Davidson diagonalization with overlap
     ethr =  3.93E-09,  avg # of iterations =  1.0

     total cpu time spent up to now is        2.7 secs

     End of self-consistent calculation

          k = 0.0000 0.0000 0.0000 ( 22119 PWs)   bands (ev):

   -23.6231  -7.0327  -7.0319  -7.0318  -6.9379  -6.9166  -0.2399   0.5403

     the Fermi energy is    -6.8975 ev

!    total energy              =     -31.49024085 Ry
     Harris-Foulkes estimate   =     -31.49024089 Ry
     estimated scf accuracy    <          2.0E-09 Ry

     convergence has been achieved in  15 iterations

     Forces acting on atoms (Ry/au):

     atom    1 type  1   force =     0.00028938   -0.00048531   -0.00026282
     atom    2 type  1   force =     0.00037085   -0.00034692   -0.00015590
     atom    3 type  2   force =    -0.00066023    0.00083223    0.00041872

     Total force =     0.001405     Total SCF correction =     0.000301
     SCF correction compared to forces is large: reduce conv_thr to get better values

     Entering Dynamics:    iteration =     2
                           time      =   0.0097 pico-seconds


     Andersen thermostat:    3 collisions

ATOMIC_POSITIONS (bohr)
H        3.004479485  15.074969318   6.867328205
H        7.843193024   3.988295240   8.503273133
O       10.452473329   8.972142434  17.247567891


     kinetic energy (Ekin) =     0.00844284 Ry
     temperature           =   444.33928401 K 
     Ekin + Etot (const)   =   -31.48179800 Ry
     Message from routine dynamics:
     Total linear momentum <> 0

     Linear momentum :   -0.0482643422    0.4839037204    0.0463385468

     Writing output data file pwscf.save

     first order wave-functions extrapolation
     Check: negative starting charge=   -0.351534
     first order charge density extrapolation
     Check: negative starting charge=   -0.351530

     negative rho (up, down):  1.100E-01 0.000E+00

     total cpu time spent up to now is        3.1 secs

     per-process dynamical memory:    20.4 Mb

     Self-consistent Calculation

     iteration #  1     ecut=    30.00 Ry     beta=0.70
     Davidson diagonalization with overlap
     c_bands:  1 eigenvalues not converged
     ethr =  1.00E-06,  avg # of iterations = 20.0

     negative rho (up, down):  2.566E-02 0.000E+00

     total cpu time spent up to now is        3.2 secs

     total energy              =     -31.40837296 Ry
     Harris-Foulkes estimate   =     -31.41518674 Ry
     estimated scf accuracy    <       0.07281141 Ry

     iteration #  2     ecut=    30.00 Ry     beta=0.70
     Davidson diagonalization with overlap
     ethr =  9.10E-04,  avg # of iterations =  2.0

     negative rho (up, down):  2.313E-02 0.000E+00

     total cpu time spent up to now is        3.2 secs

     total energy              =     -31.48508572 Ry
     Harris-Foulkes estimate   =     -32.08016903 Ry
     estimated scf accuracy    <       4.61157551 Ry

     iteration #  3     ecut=    30.00 Ry     beta=0.70
     Davidson diagonalization with overlap
     ethr =  9.10E-04,  avg # of iterations =  2.0

     negative rho (up, down):  2.218E-02 0.000E+00

     total cpu time spent up to now is        3.2 secs

     total energy              =     -31.47348789 Ry
     Harris-Foulkes estimate   =     -31.52276206 Ry
     estimated scf accuracy    <       1.02716264 Ry

     iteration #  4     ecut=    30.00 Ry     beta=0.70
     Davidson diagonalization with overlap
     ethr =  9.10E-04,  avg # of iterations =  1.0

     negative rho (up, down):  1.971E-02 0.000E+00

     total cpu time spent up to now is        3.2 secs

     total energy              =     -31.37648812 Ry
     Harris-Foulkes estimate   =     -31.48809501 Ry
     estimated scf accuracy    <       2.03832519 Ry

     iteration #  5     ecut=    30.00 Ry     beta=0.70
     Davidson diagonalization with overlap
     ethr =  9.10E-04,  avg # of iterations =  1.0

     negative rho (up, down):  7.153E-03 0.000E+00

     total cpu time spent up to now is        3.3 secs

     total energy              =     -31.46447253 Ry
     Harris-Foulkes estimate   =     -31.52810307 Ry
     estimated scf accuracy    <       2.63017302 Ry

     iteration #  6     ecut=    30.00 Ry     beta=0.70
     Davidson diagonalization with overlap
     ethr =  9.10E-04,  avg # of iterations =  1.0

     negative rho (up, down):  1.888E-03 0.000E+00

     total cpu time spent up to now is        3.3 secs

     total energy              =     -31.48768889 Ry
     Harris-Foulkes estimate   =     -31.48512138 Ry
     estimated scf accuracy    <       0.13297213 Ry

     iteration #  7     ecut=    30.00 Ry     beta=0.70
     Davidson diagonalization with overlap
     ethr =  9.10E-04,  avg # of iterations =  1.0

     negative rho (up, down):  3.347E-04 0.000E+00

     total cpu time spent up to now is        3.4 secs

     total energy              =     -31.49033331 Ry
     Harris-Foulkes estimate   =     -31.48914038 Ry
     estimated scf accuracy    <       0.00071538 Ry

     iteration #  8     ecut=    30.00 Ry     beta=0.70
     Davidson diagonalization with overlap
     ethr =  8.94E-06,  avg # of iterations = 12.0

     negative rho (up, down):  1.484E-05 0.000E+00

     total cpu time spent up to now is        3.4 secs

     total energy              =     -31.49019429 Ry
     Harris-Foulkes estimate   =     -31.49121640 Ry
     estimated scf accuracy    <       0.10408394 Ry

     iteration #  9     ecut=    30.00 Ry     beta=0.70
     Davidson diagonalization with overlap
     ethr =  8.94E-06,  avg # of iterations =  1.0

     negative rho (up, down):  2.391E-07 0.000E+00

     total cpu time spent up to now is        3.5 secs

     total energy              =     -31.48990059 Ry
     Harris-Foulkes estimate   =     -31.49047126 Ry
     estimated scf accuracy    <       0.02680825 Ry

     iteration # 10     ecut=    30.00 Ry     beta=0.70
     Davidson diagonalization with overlap
     ethr =  8.94E-06,  avg # of iterations =  1.0

     negative rho (up, down):  1.318E-08 0.000E+00

     total cpu time spent up to now is        3.5 secs

     total energy              =     -31.49026847 Ry
     Harris-Foulkes estimate   =     -31.49024923 Ry
     estimated scf accuracy    <       0.00154660 Ry

     iteration # 11     ecut=    30.00 Ry     beta=0.70
     Davidson diagonalization with overlap
     ethr =  8.94E-06,  avg # of iterations =  1.0

     total cpu time spent up to now is        3.5 secs

     total energy              =     -31.49026732 Ry
     Harris-Foulkes estimate   =     -31.49028389 Ry
     estimated scf accuracy    <       0.00557715 Ry

     iteration # 12     ecut=    30.00 Ry     beta=0.70
     Davidson diagonalization with overlap
     ethr =  8.94E-06,  avg # of iterations =  1.0

     total cpu time spent up to now is        3.6 secs

     total energy              =     -31.49025045 Ry
     Harris-Foulkes estimate   =     -31.49026867 Ry
     estimated scf accuracy    <       0.00406253 Ry

     iteration # 13     ecut=    30.00 Ry     beta=0.70
     Davidson diagonalization with overlap
     ethr =  8.94E-06,  avg # of iterations =  1.0

     total cpu time spent up to now is        3.6 secs

     total energy              =     -31.49020865 Ry
     Harris-Foulkes estimate   =     -31.49025298 Ry
     estimated scf accuracy    <       0.00233138 Ry

     iteration # 14     ecut=    30.00 Ry     beta=0.70
     Davidson diagonalization with overlap
     ethr =  8.94E-06,  avg # of iterations =  1.0

     total cpu time spent up to now is        3.6 secs

     total energy              =     -31.49022927 Ry
     Harris-Foulkes estimate   =     -31.49022937 Ry
     estimated scf accuracy    <       0.00000545 Ry

     iteration # 15     ecut=    30.00 Ry     beta=0.70
     Davidson diagonalization with overlap
     ethr =  6.81E-08,  avg # of iterations =  1.0

     total cpu time spent up to now is        3.7 secs

     total energy              =     -31.49022917 Ry
     Harris-Foulkes estimate   =     -31.49022932 Ry
     estimated scf accuracy    <       0.00000002 Ry

     iteration # 16     ecut=    30.00 Ry     beta=0.70
     Davidson diagonalization with overlap
     ethr =  1.88E-10,  avg # of iterations =  2.0

     total cpu time spent up to now is        3.7 secs

     total energy              =     -31.49022901 Ry
     Harris-Foulkes estimate   =     -31.49022917 Ry
     estimated scf accuracy    <       0.00000001 Ry

     iteration # 17     ecut=    30.00 Ry     beta=0.70
     Davidson diagonalization with overlap
     ethr =  1.83E-10,  avg # of iterations =  2.0

     total cpu time spent up to now is        3.7 secs

     End of self-consistent calculation

          k = 0.0000 0.0000 0.0000 ( 22119 PWs)   bands (ev):

   -23.6243  -7.0339  -7.0330  -7.0328  -6.9402  -6.9161  -0.2394   0.5474

     the Fermi energy is    -6.8986 ev

!    total energy              =     -31.49022891 Ry
     Harris-Foulkes estimate   =     -31.49022901 Ry
     estimated scf accuracy    <          4.8E-09 Ry

     convergence has been achieved in  17 iterations

     Forces acting on atoms (Ry/au):

     atom    1 type  1   force =     0.00034063   -0.00042184   -0.00019624
     atom    2 type  1   force =     0.00039469   -0.00027947   -0.00008700
     atom    3 type  2   force =    -0.00073531    0.00070131    0.00028324

     Total force =     0.001299     Total SCF correction =     0.000047

     Entering Dynamics:    iteration =     3
                           time      =   0.0145 pico-seconds


     Andersen thermostat:    3 collisions

ATOMIC_POSITIONS (bohr)
H        3.229792221  14.787667729   6.953644134
H        7.990837644   4.057816475   8.841278253
O       10.428930396   8.985889818  17.220782624


     kinetic energy (Ekin) =     0.01677590 Ry
     temperature           =   882.90040260 K 
     Ekin + Etot (const)   =   -31.47345301 Ry
     Message from routine dynamics:
     Total linear momentum <> 0

     Linear momentum :    0.3047675616   -0.3500624036   -0.1369358232

     Writing output data file pwscf.save

     second order wave-functions extrapolation
     Check: negative starting charge=   -0.351530
     second order charge density extrapolation
     Check: negative starting charge=   -0.351061

     negative rho (up, down):  6.337E-02 0.000E+00

     total cpu time spent up to now is        4.0 secs

     per-process dynamical memory:    20.4 Mb

     Self-consistent Calculation

     iteration #  1     ecut=    30.00 Ry     beta=0.70
     Davidson diagonalization with overlap
     c_bands:  1 eigenvalues not converged
     ethr =  1.00E-06,  avg # of iterations = 20.0

     negative rho (up, down):  1.413E-02 0.000E+00

     total cpu time spent up to now is        4.1 secs

     total energy              =     -31.43111125 Ry
     Harris-Foulkes estimate   =     -31.43475596 Ry
     estimated scf accuracy    <       0.05622759 Ry

     iteration #  2     ecut=    30.00 Ry     beta=0.70
     Davidson diagonalization with overlap
     ethr =  7.03E-04,  avg # of iterations =  2.0

     negative rho (up, down):  1.285E-02 0.000E+00

     total cpu time spent up to now is        4.2 secs

     total energy              =     -31.49400887 Ry
     Harris-Foulkes estimate   =     -32.03570494 Ry
     estimated scf accuracy    <       4.50783277 Ry

     iteration #  3     ecut=    30.00 Ry     beta=0.70
     Davidson diagonalization with overlap
     ethr =  7.03E-04,  avg # of iterations =  2.0

     negative rho (up, down):  1.266E-02 0.000E+00

     total cpu time spent up to now is        4.2 secs

     total energy              =     -31.48364087 Ry
     Harris-Foulkes estimate   =     -31.49819247 Ry
     estimated scf accuracy    <       2.10404495 Ry

     iteration #  4     ecut=    30.00 Ry     beta=0.70
     Davidson diagonalization with overlap
     ethr =  7.03E-04,  avg # of iterations =  1.0

     negative rho (up, down):  9.948E-03 0.000E+00

     total cpu time spent up to now is        4.2 secs

     total energy              =     -31.42375246 Ry
     Harris-Foulkes estimate   =     -31.48666734 Ry
     estimated scf accuracy    <       0.96761619 Ry

     iteration #  5     ecut=    30.00 Ry     beta=0.70
     Davidson diagonalization with overlap
     ethr =  7.03E-04,  avg # of iterations =  1.0

     negative rho (up, down):  2.550E-03 0.000E+00

     total cpu time spent up to now is        4.3 secs

     total energy              =     -31.45625718 Ry
     Harris-Foulkes estimate   =     -31.53259855 Ry
     estimated scf accuracy    <       2.61163982 Ry

     iteration #  6     ecut=    30.00 Ry     beta=0.70
     Davidson diagonalization with overlap
     ethr =  7.03E-04,  avg # of iterations =  1.0

     negative rho (up, down):  5.057E-04 0.000E+00

     total cpu time spent up to now is        4.3 secs

     total energy              =     -31.48975700 Ry
     Harris-Foulkes estimate   =     -31.48861746 Ry
     estimated scf accuracy    <       0.01023120 Ry

     iteration #  7     ecut=    30.00 Ry     beta=0.70
     Davidson diagonalization with overlap
     ethr =  1.28E-04,  avg # of iterations =  8.0

     negative rho (up, down):  2.563E-04 0.000E+00

     total cpu time spent up to now is        4.4 secs

     total energy              =     -31.49118587 Ry
     Harris-Foulkes estimate   =     -31.49078285 Ry
     estimated scf accuracy    <       0.05114157 Ry

     iteration #  8     ecut=    30.00 Ry     beta=0.70
     Davidson diagonalization with overlap
     ethr =  1.28E-04,  avg # of iterations =  1.0

     negative rho (up, down):  5.411E-07 0.000E+00

     total cpu time spent up to now is        4.4 secs

     total energy              =     -31.49019237 Ry
     Harris-Foulkes estimate   =     -31.49127060 Ry
     estimated scf accuracy    <       0.10103345 Ry

     iteration #  9     ecut=    30.00 Ry     beta=0.70
     Davidson diagonalization with overlap
     ethr =  1.28E-04,  avg # of iterations =  1.0

     total cpu time spent up to now is        4.4 secs

     total energy              =     -31.48983067 Ry
     Harris-Foulkes estimate   =     -31.49050305 Ry
     estimated scf accuracy    <       0.01892806 Ry

     iteration # 10     ecut=    30.00 Ry     beta=0.70
     Davidson diagonalization with overlap
     ethr =  1.28E-04,  avg # of iterations =  1.0

     total cpu time spent up to now is        4.4 secs

     total energy              =     -31.49039487 Ry
     Harris-Foulkes estimate   =     -31.49048673 Ry
     estimated scf accuracy    <       0.01745557 Ry

     iteration # 11     ecut=    30.00 Ry     beta=0.70
     Davidson diagonalization with overlap
     ethr =  1.28E-04,  avg # of iterations =  1.0

     total cpu time spent up to now is        4.5 secs

     total energy              =     -31.49026205 Ry
     Harris-Foulkes estimate   =     -31.49040817 Ry
     estimated scf accuracy    <       0.00883136 Ry

     iteration # 12     ecut=    30.00 Ry     beta=0.70
     Davidson diagonalization with overlap
     ethr =  1.10E-04,  avg # of iterations =  1.0

     total cpu time spent up to now is        4.5 secs

     total energy              =     -31.49032729 Ry
     Harris-Foulkes estimate   =     -31.49032828 Ry
     estimated scf accuracy    <       0.00007051 Ry

     iteration # 13     ecut=    30.00 Ry     beta=0.70
     Davidson diagonalization with overlap
     ethr =  8.81E-07,  avg # of iterations =  7.0

     total cpu time spent up to now is        4.6 secs

     total energy              =     -31.49032741 Ry
     Harris-Foulkes estimate   =     -31.49032770 Ry
     estimated scf accuracy    <       0.00000308 Ry

     iteration # 14     ecut=    30.00 Ry     beta=0.70
     Davidson diagonalization with overlap
     ethr =  3.85E-08,  avg # of iterations =  1.0

     total cpu time spent up to now is        4.6 secs

     total energy              =     -31.49032745 Ry
     Harris-Foulkes estimate   =     -31.49032760 Ry
     estimated scf accuracy    <       0.00000784 Ry

     iteration # 15     ecut=    30.00 Ry     beta=0.70
     Davidson diagonalization with overlap
     ethr =  3.85E-08,  avg # of iterations =  1.0

     total cpu time spent up to now is        4.6 secs

     End of self-consistent calculation

          k = 0.0000 0.0000 0.0000 ( 22119 PWs)   bands (ev):

   -23.6210  -7.0320  -7.0304  -7.0302  -6.9356  -6.9145  -0.2375   0.5402

     the Fermi energy is    -6.8959 ev

!    total energy              =     -31.49032748 Ry
     Harris-Foulkes estimate   =     -31.49032752 Ry
     estimated scf accuracy    <          7.0E-10 Ry

     convergence has been achieved in  15 iterations

     Forces acting on atoms (Ry/au):

     atom    1 type  1   force =     0.00011964   -0.00033429   -0.00000619
     atom    2 type  1   force =     0.00021878   -0.00017873    0.00015333
     atom    3 type  2   force =    -0.00033842    0.00051302   -0.00014714

     Total force =     0.000793     Total SCF correction =     0.000029

     Entering Dynamics:    iteration =     4
                           time      =   0.0194 pico-seconds


     Andersen thermostat:    3 collisions

ATOMIC_POSITIONS (bohr)
H        3.219509207  14.647900502   6.862632107
H        7.796377042   3.721055428   8.647443310
O       10.441854837   9.015970666  17.238763589


     kinetic energy (Ekin) =     0.01983262 Ry
     temperature           =  1043.77317719 K 
     Ekin + Etot (const)   =   -31.47049486 Ry
     Message from routine dynamics:
     Total linear momentum <> 0

     Linear momentum :    0.6585480540    0.4524520681   -0.2987964083

     Writing output data file pwscf.save

     second order wave-functions extrapolation
     Check: negative starting charge=   -0.351061
     second order charge density extrapolation
     Check: negative starting charge=   -0.351603

     negative rho (up, down):  6.190E-02 0.000E+00

     total cpu time spent up to now is        5.0 secs

     per-process dynamical memory:    20.4 Mb

     Self-consistent Calculation

     iteration #  1     ecut=    30.00 Ry     beta=0.70
     Davidson diagonalization with overlap
     c_bands:  1 eigenvalues not converged
     ethr =  1.00E-06,  avg # of iterations = 20.0

     negative rho (up, down):  1.393E-02 0.000E+00

     total cpu time spent up to now is        5.1 secs

     total energy              =     -31.46426360 Ry
     Harris-Foulkes estimate   =     -31.43960829 Ry
     estimated scf accuracy    <       0.01677238 Ry

     iteration #  2     ecut=    30.00 Ry     beta=0.70
     Davidson diagonalization with overlap
     ethr =  2.10E-04,  avg # of iterations =  2.0

     negative rho (up, down):  1.323E-02 0.000E+00

     total cpu time spent up to now is        5.1 secs

     total energy              =     -31.45852189 Ry
     Harris-Foulkes estimate   =     -31.73505293 Ry
     estimated scf accuracy    <       4.01581657 Ry

     iteration #  3     ecut=    30.00 Ry     beta=0.70
     Davidson diagonalization with overlap
     ethr =  2.10E-04,  avg # of iterations =  2.0

     negative rho (up, down):  1.286E-02 0.000E+00

     total cpu time spent up to now is        5.1 secs

     total energy              =     -31.46434114 Ry
     Harris-Foulkes estimate   =     -31.49943626 Ry
     estimated scf accuracy    <       0.92535261 Ry

     iteration #  4     ecut=    30.00 Ry     beta=0.70
     Davidson diagonalization with overlap
     ethr =  2.10E-04,  avg # of iterations =  1.0

     negative rho (up, down):  2.872E-03 0.000E+00

     total cpu time spent up to now is        5.2 secs

     total energy              =     -31.48247256 Ry
     Harris-Foulkes estimate   =     -31.47875344 Ry
     estimated scf accuracy    <       0.08045393 Ry

     iteration #  5     ecut=    30.00 Ry     beta=0.70
     Davidson diagonalization with overlap
     ethr =  2.10E-04,  avg # of iterations =  3.0

     negative rho (up, down):  1.543E-03 0.000E+00

     total cpu time spent up to now is        5.2 secs

     total energy              =     -31.47771704 Ry
     Harris-Foulkes estimate   =     -31.49583879 Ry
     estimated scf accuracy    <       0.66881797 Ry

     iteration #  6     ecut=    30.00 Ry     beta=0.70
     Davidson diagonalization with overlap
     ethr =  2.10E-04,  avg # of iterations =  1.0

     negative rho (up, down):  3.175E-04 0.000E+00

     total cpu time spent up to now is        5.2 secs

     total energy              =     -31.48792198 Ry
     Harris-Foulkes estimate   =     -31.49063442 Ry
     estimated scf accuracy    <       0.11800855 Ry

     iteration #  7     ecut=    30.00 Ry     beta=0.70
     Davidson diagonalization with overlap
     ethr =  2.10E-04,  avg # of iterations =  5.0

     negative rho (up, down):  9.681E-06 0.000E+00

     total cpu time spent up to now is        5.3 secs

     total energy              =     -31.49013592 Ry
     Harris-Foulkes estimate   =     -31.49060114 Ry
     estimated scf accuracy    <       0.03510402 Ry

     iteration #  8     ecut=    30.00 Ry     beta=0.70
     Davidson diagonalization with overlap
     ethr =  2.10E-04,  avg # of iterations =  1.0

     total cpu time spent up to now is        5.3 secs

     total energy              =     -31.49018472 Ry
     Harris-Foulkes estimate   =     -31.49030292 Ry
     estimated scf accuracy    <       0.00340486 Ry

     iteration #  9     ecut=    30.00 Ry     beta=0.70
     Davidson diagonalization with overlap
     ethr =  4.26E-05,  avg # of iterations =  3.0

     total cpu time spent up to now is        5.3 secs

     total energy              =     -31.49027241 Ry
     Harris-Foulkes estimate   =     -31.49029963 Ry
     estimated scf accuracy    <       0.00255535 Ry

     iteration # 10     ecut=    30.00 Ry     beta=0.70
     Davidson diagonalization with overlap
     ethr =  3.19E-05,  avg # of iterations =  1.0

     total cpu time spent up to now is        5.4 secs

     total energy              =     -31.49026538 Ry
     Harris-Foulkes estimate   =     -31.49027976 Ry
     estimated scf accuracy    <       0.00055373 Ry

     iteration # 11     ecut=    30.00 Ry     beta=0.70
     Davidson diagonalization with overlap
     ethr =  6.92E-06,  avg # of iterations =  7.0

     total cpu time spent up to now is        5.4 secs

     total energy              =     -31.49027359 Ry
     Harris-Foulkes estimate   =     -31.49027536 Ry
     estimated scf accuracy    <       0.00007349 Ry

     iteration # 12     ecut=    30.00 Ry     beta=0.70
     Davidson diagonalization with overlap
     ethr =  9.19E-07,  avg # of iterations =  3.0

     total cpu time spent up to now is        5.5 secs

     total energy              =     -31.49027450 Ry
     Harris-Foulkes estimate   =     -31.49027450 Ry
     estimated scf accuracy    <       0.00000092 Ry

     iteration # 13     ecut=    30.00 Ry     beta=0.70
     Davidson diagonalization with overlap
     ethr =  1.15E-08,  avg # of iterations =  1.0

     total cpu time spent up to now is        5.5 secs

     End of self-consistent calculation

          k = 0.0000 0.0000 0.0000 ( 22119 PWs)   bands (ev):

   -23.6243  -7.0342  -7.0332  -7.0331  -6.9404  -6.9163  -0.2397   0.5381

     the Fermi energy is    -6.8988 ev

!    total energy              =     -31.49027450 Ry
     Harris-Foulkes estimate   =     -31.49027451 Ry
     estimated scf accuracy    <          1.5E-09 Ry

     convergence has been achieved in  13 iterations

     Forces acting on atoms (Ry/au):

     atom    1 type  1   force =     0.00019074   -0.00015595   -0.00011067
     atom    2 type  1   force =     0.00026318   -0.00002154    0.00001948
     atom    3 type  2   force =    -0.00045392    0.00017749    0.00009120

     Total force =     0.000624     Total SCF correction =     0.000065
     SCF correction compared to forces is large: reduce conv_thr to get better values

     Entering Dynamics:    iteration =     5
                           time      =   0.0242 pico-seconds


     Andersen thermostat:    3 collisions

ATOMIC_POSITIONS (bohr)
H        3.038270660  14.939601702   7.166351774
H        7.264581821   3.936306807   8.369070538
O       10.486865093   8.983969284  17.237163567


     kinetic energy (Ekin) =     0.03186605 Ry
     temperature           =  1677.08160304 K 
     Ekin + Etot (const)   =   -31.45840845 Ry
     Message from routine dynamics:
     Total linear momentum <> 0

     Linear momentum :    0.2555715914    0.0401351917   -0.1541686132

     Writing output data file pwscf.save

     second order wave-functions extrapolation
     Check: negative starting charge=   -0.351603
     second order charge density extrapolation
     Check: negative starting charge=   -0.351561

     negative rho (up, down):  6.856E-02 0.000E+00

     total cpu time spent up to now is        5.8 secs

     per-process dynamical memory:    20.4 Mb

     Self-consistent Calculation

     iteration #  1     ecut=    30.00 Ry     beta=0.70
     Davidson diagonalization with overlap
     c_bands:  1 eigenvalues not converged
     ethr =  1.00E-06,  avg # of iterations = 20.0

     negative rho (up, down):  1.531E-02 0.000E+00

     total cpu time spent up to now is        5.9 secs

     total energy              =     -31.46148569 Ry
     Harris-Foulkes estimate   =     -31.43548253 Ry
     estimated scf accuracy    <       0.01875633 Ry

     iteration #  2     ecut=    30.00 Ry     beta=0.70
     Davidson diagonalization with overlap
     ethr =  2.34E-04,  avg # of iterations =  2.0

     negative rho (up, down):  1.471E-02 0.000E+00

     total cpu time spent up to now is        5.9 secs

     total energy              =     -31.42898334 Ry
     Harris-Foulkes estimate   =     -31.67079976 Ry
     estimated scf accuracy    <       4.48545238 Ry

     iteration #  3     ecut=    30.00 Ry     beta=0.70
     Davidson diagonalization with overlap
     ethr =  2.34E-04,  avg # of iterations =  2.0

     negative rho (up, down):  1.389E-02 0.000E+00

     total cpu time spent up to now is        6.0 secs

     total energy              =     -31.46289061 Ry
     Harris-Foulkes estimate   =     -31.55725959 Ry
     estimated scf accuracy    <       1.23198582 Ry

     iteration #  4     ecut=    30.00 Ry     beta=0.70
     Davidson diagonalization with overlap
     ethr =  2.34E-04,  avg # of iterations =  2.0

     negative rho (up, down):  3.226E-03 0.000E+00

     total cpu time spent up to now is        6.0 secs

     total energy              =     -31.48234746 Ry
     Harris-Foulkes estimate   =     -31.47756776 Ry
     estimated scf accuracy    <       0.06579212 Ry

     iteration #  5     ecut=    30.00 Ry     beta=0.70
     Davidson diagonalization with overlap
     ethr =  2.34E-04,  avg # of iterations =  3.0

     negative rho (up, down):  1.313E-03 0.000E+00

     total cpu time spent up to now is        6.0 secs

     total energy              =     -31.48766747 Ry
     Harris-Foulkes estimate   =     -31.49153414 Ry
     estimated scf accuracy    <       0.21607626 Ry

     iteration #  6     ecut=    30.00 Ry     beta=0.70
     Davidson diagonalization with overlap
     ethr =  2.34E-04,  avg # of iterations =  1.0

     negative rho (up, down):  5.606E-04 0.000E+00

     total cpu time spent up to now is        6.1 secs

     total energy              =     -31.48830633 Ry
     Harris-Foulkes estimate   =     -31.49025208 Ry
     estimated scf accuracy    <       0.04715577 Ry

     iteration #  7     ecut=    30.00 Ry     beta=0.70
     Davidson diagonalization with overlap
     ethr =  2.34E-04,  avg # of iterations =  3.0

     negative rho (up, down):  5.676E-05 0.000E+00

     total cpu time spent up to now is        6.1 secs

     total energy              =     -31.48983773 Ry
     Harris-Foulkes estimate   =     -31.49085830 Ry
     estimated scf accuracy    <       0.04622349 Ry

     iteration #  8     ecut=    30.00 Ry     beta=0.70
     Davidson diagonalization with overlap
     ethr =  2.34E-04,  avg # of iterations =  1.0

     negative rho (up, down):  5.432E-07 0.000E+00

     total cpu time spent up to now is        6.1 secs

     total energy              =     -31.48986727 Ry
     Harris-Foulkes estimate   =     -31.49023899 Ry
     estimated scf accuracy    <       0.01187896 Ry

     iteration #  9     ecut=    30.00 Ry     beta=0.70
     Davidson diagonalization with overlap
     ethr =  1.48E-04,  avg # of iterations =  1.0

     total cpu time spent up to now is        6.2 secs

     total energy              =     -31.49010124 Ry
     Harris-Foulkes estimate   =     -31.49017815 Ry
     estimated scf accuracy    <       0.00472491 Ry

     iteration # 10     ecut=    30.00 Ry     beta=0.70
     Davidson diagonalization with overlap
     ethr =  5.91E-05,  avg # of iterations =  1.0

     total cpu time spent up to now is        6.2 secs

     total energy              =     -31.49012894 Ry
     Harris-Foulkes estimate   =     -31.49013643 Ry
     estimated scf accuracy    <       0.00014756 Ry

     iteration # 11     ecut=    30.00 Ry     beta=0.70
     Davidson diagonalization with overlap
     ethr =  1.84E-06,  avg # of iterations = 11.0

     total cpu time spent up to now is        6.2 secs

     total energy              =     -31.49011722 Ry
     Harris-Foulkes estimate   =     -31.49015322 Ry
     estimated scf accuracy    <       0.00179747 Ry

     iteration # 12     ecut=    30.00 Ry     beta=0.70
     Davidson diagonalization with overlap
     ethr =  1.84E-06,  avg # of iterations =  1.0

     total cpu time spent up to now is        6.3 secs

     total energy              =     -31.49013414 Ry
     Harris-Foulkes estimate   =     -31.49013474 Ry
     estimated scf accuracy    <       0.00001106 Ry

     iteration # 13     ecut=    30.00 Ry     beta=0.70
     Davidson diagonalization with overlap
     ethr =  1.38E-07,  avg # of iterations =  1.0

     total cpu time spent up to now is        6.3 secs

     total energy              =     -31.49013417 Ry
     Harris-Foulkes estimate   =     -31.49013435 Ry
     estimated scf accuracy    <       0.00000003 Ry

     iteration # 14     ecut=    30.00 Ry     beta=0.70
     Davidson diagonalization with overlap
     ethr =  3.26E-10,  avg # of iterations =  1.0

     total cpu time spent up to now is        6.3 secs

     End of self-consistent calculation

          k = 0.0000 0.0000 0.0000 ( 22119 PWs)   bands (ev):

   -23.6300  -7.0383  -7.0378  -7.0376  -6.9485  -6.9182  -0.2399   0.5290

     the Fermi energy is    -6.9035 ev

!    total energy              =     -31.49013407 Ry
     Harris-Foulkes estimate   =     -31.49013417 Ry
     estimated scf accuracy    <          9.3E-10 Ry

     convergence has been achieved in  14 iterations

     Forces acting on atoms (Ry/au):

     atom    1 type  1   force =     0.00035599   -0.00045459   -0.00001928
     atom    2 type  1   force =     0.00042420   -0.00039314    0.00005456
     atom    3 type  2   force =    -0.00078019    0.00084773   -0.00003529

     Total force =     0.001414     Total SCF correction =     0.000440
     SCF correction compared to forces is large: reduce conv_thr to get better values

     Entering Dynamics:    iteration =     6
                           time      =   0.0290 pico-seconds


     Andersen thermostat:    3 collisions

ATOMIC_POSITIONS (bohr)
H        3.016692600  14.347344842   7.047758837
H        6.902410163   3.714930550   8.720063499
O       10.511089294   9.035329875  17.222493315


     kinetic energy (Ekin) =     0.03379295 Ry
     temperature           =  1778.49278702 K 
     Ekin + Etot (const)   =   -31.45634112 Ry
     Message from routine dynamics:
     Total linear momentum <> 0

     Linear momentum :    0.0271839412   -0.0722010692   -0.2133873842

     Writing output data file pwscf.save

     second order wave-functions extrapolation
     Check: negative starting charge=   -0.351561
     second order charge density extrapolation
     Check: negative starting charge=   -0.351675

     negative rho (up, down):  8.901E-02 0.000E+00

     total cpu time spent up to now is        6.6 secs

     per-process dynamical memory:    20.4 Mb

     Self-consistent Calculation

     iteration #  1     ecut=    30.00 Ry     beta=0.70
     Davidson diagonalization with overlap
     c_bands:  1 eigenvalues not converged
     ethr =  1.00E-06,  avg # of iterations = 20.0

     negative rho (up, down):  2.038E-02 0.000E+00

     total cpu time spent up to now is        6.7 secs

     total energy              =     -31.17635438 Ry
     Harris-Foulkes estimate   =     -31.44662021 Ry
     estimated scf accuracy    <       0.37713116 Ry

     iteration #  2     ecut=    30.00 Ry     beta=0.70
     Davidson diagonalization with overlap
     ethr =  4.71E-03,  avg # of iterations =  2.0

     negative rho (up, down):  1.737E-02 0.000E+00

     total cpu time spent up to now is        6.8 secs

     total energy              =     -31.36940421 Ry
     Harris-Foulkes estimate   =     -32.35492776 Ry
     estimated scf accuracy    <       4.25417824 Ry

     iteration #  3     ecut=    30.00 Ry     beta=0.70
     Davidson diagonalization with overlap
     ethr =  4.71E-03,  avg # of iterations =  2.0

     negative rho (up, down):  1.461E-02 0.000E+00

     total cpu time spent up to now is        6.8 secs

     total energy              =     -31.62737116 Ry
     Harris-Foulkes estimate   =     -32.00893344 Ry
     estimated scf accuracy    <       1.77783017 Ry

     iteration #  4     ecut=    30.00 Ry     beta=0.70
     Davidson diagonalization with overlap
     ethr =  4.71E-03,  avg # of iterations =  1.0

     negative rho (up, down):  1.420E-02 0.000E+00

     total cpu time spent up to now is        6.8 secs

     total energy              =     -31.58788536 Ry
     Harris-Foulkes estimate   =     -31.63370372 Ry
     estimated scf accuracy    <       1.34763451 Ry

     iteration #  5     ecut=    30.00 Ry     beta=0.70
     Davidson diagonalization with overlap
     ethr =  4.71E-03,  avg # of iterations =  1.0

     negative rho (up, down):  1.237E-02 0.000E+00

     total cpu time spent up to now is        6.9 secs

     total energy              =     -31.47616419 Ry
     Harris-Foulkes estimate   =     -31.58992656 Ry
     estimated scf accuracy    <       0.87564511 Ry

     iteration #  6     ecut=    30.00 Ry     beta=0.70
     Davidson diagonalization with overlap
     ethr =  4.71E-03,  avg # of iterations =  1.0

     negative rho (up, down):  1.120E-02 0.000E+00

     total cpu time spent up to now is        6.9 secs

     total energy              =     -31.43924717 Ry
     Harris-Foulkes estimate   =     -31.50900669 Ry
     estimated scf accuracy    <       1.96135447 Ry

     iteration #  7     ecut=    30.00 Ry     beta=0.70
     Davidson diagonalization with overlap
     ethr =  4.71E-03,  avg # of iterations =  1.0

     negative rho (up, down):  3.355E-03 0.000E+00

     total cpu time spent up to now is        6.9 secs

     total energy              =     -31.48774641 Ry
     Harris-Foulkes estimate   =     -31.50156133 Ry
     estimated scf accuracy    <       1.03587915 Ry

     iteration #  8     ecut=    30.00 Ry     beta=0.70
     Davidson diagonalization with overlap
     ethr =  4.71E-03,  avg # of iterations =  1.0

     negative rho (up, down):  1.749E-03 0.000E+00

     total cpu time spent up to now is        7.0 secs

     total energy              =     -31.47133942 Ry
     Harris-Foulkes estimate   =     -31.49329334 Ry
     estimated scf accuracy    <       0.50898672 Ry

     iteration #  9     ecut=    30.00 Ry     beta=0.70
     Davidson diagonalization with overlap
     ethr =  4.71E-03,  avg # of iterations =  1.0

     negative rho (up, down):  1.771E-05 0.000E+00

     total cpu time spent up to now is        7.0 secs

     total energy              =     -31.47654202 Ry
     Harris-Foulkes estimate   =     -31.50893673 Ry
     estimated scf accuracy    <       0.81900627 Ry

     iteration # 10     ecut=    30.00 Ry     beta=0.70
     Davidson diagonalization with overlap
     ethr =  4.71E-03,  avg # of iterations =  1.0

     negative rho (up, down):  1.295E-05 0.000E+00

     total cpu time spent up to now is        7.0 secs

     total energy              =     -31.60261613 Ry
     Harris-Foulkes estimate   =     -31.60285292 Ry
     estimated scf accuracy    <       4.33261597 Ry

     iteration # 11     ecut=    30.00 Ry     beta=0.70
     Davidson diagonalization with overlap
     ethr =  4.71E-03,  avg # of iterations =  1.0

     negative rho (up, down):  3.242E-05 0.000E+00

     total cpu time spent up to now is        7.1 secs

     total energy              =     -31.58126228 Ry
     Harris-Foulkes estimate   =     -31.60245863 Ry
     estimated scf accuracy    <       4.41236532 Ry

     iteration # 12     ecut=    30.00 Ry     beta=0.70
     Davidson diagonalization with overlap
     ethr =  4.71E-03,  avg # of iterations =  1.0

     negative rho (up, down):  5.676E-04 0.000E+00

     total cpu time spent up to now is        7.1 secs

     total energy              =     -31.48074394 Ry
     Harris-Foulkes estimate   =     -31.58083994 Ry
     estimated scf accuracy    <       4.63573386 Ry

     iteration # 13     ecut=    30.00 Ry     beta=0.70
     Davidson diagonalization with overlap
     ethr =  4.71E-03,  avg # of iterations =  1.0

     negative rho (up, down):  3.446E-05 0.000E+00

     total cpu time spent up to now is        7.1 secs

     total energy              =     -31.49544930 Ry
     Harris-Foulkes estimate   =     -31.51584010 Ry
     estimated scf accuracy    <       1.15420952 Ry

     iteration # 14     ecut=    30.00 Ry     beta=0.70
     Davidson diagonalization with overlap
     ethr =  4.71E-03,  avg # of iterations =  1.0

     negative rho (up, down):  6.872E-06 0.000E+00

     total cpu time spent up to now is        7.2 secs

     total energy              =     -31.49013816 Ry
     Harris-Foulkes estimate   =     -31.49809760 Ry
     estimated scf accuracy    <       0.52317536 Ry

     iteration # 15     ecut=    30.00 Ry     beta=0.70
     Davidson diagonalization with overlap
     ethr =  4.71E-03,  avg # of iterations =  1.0

     negative rho (up, down):  2.975E-05 0.000E+00

     total cpu time spent up to now is        7.2 secs

     total energy              =     -31.49394837 Ry
     Harris-Foulkes estimate   =     -31.49258899 Ry
     estimated scf accuracy    <       0.23958909 Ry

     iteration # 16     ecut=    30.00 Ry     beta=0.70
     Davidson diagonalization with overlap
     ethr =  2.99E-03,  avg # of iterations =  1.0

     negative rho (up, down):  7.473E-07 0.000E+00

     total cpu time spent up to now is        7.2 secs

     total energy              =     -31.48795227 Ry
     Harris-Foulkes estimate   =     -31.49418741 Ry
     estimated scf accuracy    <       0.41474246 Ry

     iteration # 17     ecut=    30.00 Ry     beta=0.70
     Davidson diagonalization with overlap
     ethr =  2.99E-03,  avg # of iterations =  1.0

     negative rho (up, down):  5.647E-05 0.000E+00

     total cpu time spent up to now is        7.3 secs

     total energy              =     -31.48857606 Ry
     Harris-Foulkes estimate   =     -31.49075589 Ry
     estimated scf accuracy    <       0.03520446 Ry

     iteration # 18     ecut=    30.00 Ry     beta=0.70
     Davidson diagonalization with overlap
     ethr =  4.40E-04,  avg # of iterations =  1.0

     negative rho (up, down):  3.650E-06 0.000E+00

     total cpu time spent up to now is        7.3 secs

     total energy              =     -31.48900480 Ry
     Harris-Foulkes estimate   =     -31.49131781 Ry
     estimated scf accuracy    <       0.11670365 Ry

     iteration # 19     ecut=    30.00 Ry     beta=0.70
     Davidson diagonalization with overlap
     ethr =  4.40E-04,  avg # of iterations =  1.0

     total cpu time spent up to now is        7.3 secs

     total energy              =     -31.49057350 Ry
     Harris-Foulkes estimate   =     -31.49025039 Ry
     estimated scf accuracy    <       0.00759043 Ry

     iteration # 20     ecut=    30.00 Ry     beta=0.70
     Davidson diagonalization with overlap
     ethr =  9.49E-05,  avg # of iterations =  1.0

     negative rho (up, down):  2.075E-07 0.000E+00

     total cpu time spent up to now is        7.4 secs

     total energy              =     -31.48852170 Ry
     Harris-Foulkes estimate   =     -31.49263294 Ry
     estimated scf accuracy    <       0.19595592 Ry

     iteration # 21     ecut=    30.00 Ry     beta=0.70
     Davidson diagonalization with overlap
     ethr =  9.49E-05,  avg # of iterations =  1.0

     negative rho (up, down):  1.012E-07 0.000E+00

     total cpu time spent up to now is        7.4 secs

     total energy              =     -31.49010544 Ry
     Harris-Foulkes estimate   =     -31.49022501 Ry
     estimated scf accuracy    <       0.00969323 Ry

     iteration # 22     ecut=    30.00 Ry     beta=0.70
     Davidson diagonalization with overlap
     ethr =  9.49E-05,  avg # of iterations =  1.0

     total cpu time spent up to now is        7.4 secs

     total energy              =     -31.49011539 Ry
     Harris-Foulkes estimate   =     -31.49014985 Ry
     estimated scf accuracy    <       0.00129767 Ry

     iteration # 23     ecut=    30.00 Ry     beta=0.70
     Davidson diagonalization with overlap
     ethr =  1.62E-05,  avg # of iterations =  7.0

     total cpu time spent up to now is        7.5 secs

     total energy              =     -31.49013356 Ry
     Harris-Foulkes estimate   =     -31.49013337 Ry
     estimated scf accuracy    <       0.00000112 Ry

     iteration # 24     ecut=    30.00 Ry     beta=0.70
     Davidson diagonalization with overlap
     ethr =  1.40E-08,  avg # of iterations =  5.0

     total cpu time spent up to now is        7.5 secs

     total energy              =     -31.49013306 Ry
     Harris-Foulkes estimate   =     -31.49013369 Ry
     estimated scf accuracy    <       0.00000586 Ry

     iteration # 25     ecut=    30.00 Ry     beta=0.70
     Davidson diagonalization with overlap
     ethr =  1.40E-08,  avg # of iterations =  1.0

     total cpu time spent up to now is        7.5 secs

     total energy              =     -31.49013299 Ry
     Harris-Foulkes estimate   =     -31.49013313 Ry
     estimated scf accuracy    <       0.00000010 Ry

     iteration # 26     ecut=    30.00 Ry     beta=0.70
     Davidson diagonalization with overlap
     ethr =  1.29E-09,  avg # of iterations =  1.0

     total cpu time spent up to now is        7.5 secs

     End of self-consistent calculation

          k = 0.0000 0.0000 0.0000 ( 22119 PWs)   bands (ev):

   -23.6294  -7.0381  -7.0374  -7.0369  -6.9464  -6.9194  -0.2400   0.5171

     the Fermi energy is    -6.9030 ev

!    total energy              =     -31.49013292 Ry
     Harris-Foulkes estimate   =     -31.49013300 Ry
     estimated scf accuracy    <          5.7E-09 Ry

     convergence has been achieved in  26 iterations

     Forces acting on atoms (Ry/au):

     atom    1 type  1   force =     0.00012303   -0.00009413    0.00016779
     atom    2 type  1   force =     0.00018519    0.00002540    0.00024009
     atom    3 type  2   force =    -0.00030822    0.00006874   -0.00040788

     Total force =     0.000641     Total SCF correction =     0.000931
     SCF correction compared to forces is large: reduce conv_thr to get better values

     Entering Dynamics:    iteration =     7
                           time      =   0.0339 pico-seconds


     Andersen thermostat:    3 collisions

ATOMIC_POSITIONS (bohr)
H        2.972513908  14.383627998   7.421816600
H        6.861619331   3.551431059   9.086488378
O       10.516452996   9.043360406  17.175750348


     kinetic energy (Ekin) =     0.01722218 Ry
     temperature           =   906.38796414 K 
     Ekin + Etot (const)   =   -31.47291074 Ry
     Message from routine dynamics:
     Total linear momentum <> 0

     Linear momentum :    0.1594201294   -0.0313115487    0.3185687409

     Writing output data file pwscf.save

     second order wave-functions extrapolation
     Check: negative starting charge=   -0.351675
     second order charge density extrapolation
     Check: negative starting charge=   -0.351598

     negative rho (up, down):  8.215E-02 0.000E+00

     total cpu time spent up to now is        7.9 secs

     per-process dynamical memory:    20.4 Mb

     Self-consistent Calculation

     iteration #  1     ecut=    30.00 Ry     beta=0.70
     Davidson diagonalization with overlap
     c_bands:  1 eigenvalues not converged
     ethr =  1.00E-06,  avg # of iterations = 20.0

     negative rho (up, down):  1.850E-02 0.000E+00

     total cpu time spent up to now is        8.0 secs

     total energy              =     -31.43052777 Ry
     Harris-Foulkes estimate   =     -31.42673781 Ry
     estimated scf accuracy    <       0.05223303 Ry

     iteration #  2     ecut=    30.00 Ry     beta=0.70
     Davidson diagonalization with overlap
     ethr =  6.53E-04,  avg # of iterations =  2.0

     negative rho (up, down):  1.689E-02 0.000E+00

     total cpu time spent up to now is        8.0 secs

     total energy              =     -31.48595272 Ry
     Harris-Foulkes estimate   =     -32.00484114 Ry
     estimated scf accuracy    <       4.48236443 Ry

     iteration #  3     ecut=    30.00 Ry     beta=0.70
     Davidson diagonalization with overlap
     ethr =  6.53E-04,  avg # of iterations =  2.0

     negative rho (up, down):  1.653E-02 0.000E+00

     total cpu time spent up to now is        8.0 secs

     total energy              =     -31.47619605 Ry
     Harris-Foulkes estimate   =     -31.49061838 Ry
     estimated scf accuracy    <       1.77398236 Ry

     iteration #  4     ecut=    30.00 Ry     beta=0.70
     Davidson diagonalization with overlap
     ethr =  6.53E-04,  avg # of iterations =  1.0

     negative rho (up, down):  1.066E-02 0.000E+00

     total cpu time spent up to now is        8.1 secs

     total energy              =     -31.40908618 Ry
     Harris-Foulkes estimate   =     -31.48017428 Ry
     estimated scf accuracy    <       0.69405293 Ry

     iteration #  5     ecut=    30.00 Ry     beta=0.70
     Davidson diagonalization with overlap
     ethr =  6.53E-04,  avg # of iterations =  1.0

     negative rho (up, down):  3.482E-03 0.000E+00

     total cpu time spent up to now is        8.1 secs

     total energy              =     -31.45911084 Ry
     Harris-Foulkes estimate   =     -31.58371002 Ry
     estimated scf accuracy    <       2.89807114 Ry

     iteration #  6     ecut=    30.00 Ry     beta=0.70
     Davidson diagonalization with overlap
     ethr =  6.53E-04,  avg # of iterations =  1.0

     negative rho (up, down):  8.726E-04 0.000E+00

[...]
     Harris-Foulkes estimate   =    -437.31057725 Ry
     estimated scf accuracy    <      20.72849718 Ry

     iteration # 59     ecut=    30.00 Ry     beta=0.70
     Davidson diagonalization with overlap
     ethr =  1.00E-02,  avg # of iterations =  7.0

     negative rho (up, down):  1.717E-02 0.000E+00

     total cpu time spent up to now is       12.6 secs

     total energy              =      30.26211407 Ry
     Harris-Foulkes estimate   =    -132.15402846 Ry
     estimated scf accuracy    <      30.82805836 Ry

     iteration # 60     ecut=    30.00 Ry     beta=0.70
     Davidson diagonalization with overlap
     ethr =  1.00E-02,  avg # of iterations = 10.0

     negative rho (up, down):  1.676E-02 0.000E+00

     total cpu time spent up to now is       12.7 secs

     total energy              =      47.11102607 Ry
     Harris-Foulkes estimate   =    -118.64090486 Ry
     estimated scf accuracy    <      23.53348422 Ry

     iteration # 61     ecut=    30.00 Ry     beta=0.70
     Davidson diagonalization with overlap
     ethr =  1.00E-02,  avg # of iterations =  5.0

     negative rho (up, down):  9.755E-02 0.000E+00

     total cpu time spent up to now is       12.8 secs

     total energy              =     -59.76138733 Ry
     Harris-Foulkes estimate   =     -95.05431627 Ry
     estimated scf accuracy    <      14.21429854 Ry

     iteration # 62     ecut=    30.00 Ry     beta=0.70
     Davidson diagonalization with overlap
     ethr =  1.00E-02,  avg # of iterations =  4.0

     negative rho (up, down):  1.724E-01 0.000E+00

     total cpu time spent up to now is       12.8 secs

     total energy              =    -165.24767787 Ry
     Harris-Foulkes estimate   =    -296.17646648 Ry
     estimated scf accuracy    <      15.45623734 Ry

     iteration # 63     ecut=    30.00 Ry     beta=0.70
     Davidson diagonalization with overlap
     ethr =  1.00E-02,  avg # of iterations =  6.0

     negative rho (up, down):  2.193E-01 0.000E+00

     total cpu time spent up to now is       12.9 secs

     total energy              =      46.94608998 Ry
     Harris-Foulkes estimate   =    -963.32989753 Ry
     estimated scf accuracy    <      24.13885136 Ry

     iteration # 64     ecut=    30.00 Ry     beta=0.70
     Davidson diagonalization with overlap
     ethr =  1.00E-02,  avg # of iterations =  7.0

     negative rho (up, down):  3.637E-01 0.000E+00

     total cpu time spent up to now is       12.9 secs

     total energy              =       0.51886206 Ry
     Harris-Foulkes estimate   =   -5055.20053060 Ry
     estimated scf accuracy    <      27.04805675 Ry

     iteration # 65     ecut=    30.00 Ry     beta=0.70
     Davidson diagonalization with overlap
     ethr =  1.00E-02,  avg # of iterations =  6.0

     negative rho (up, down):  3.308E-01 0.000E+00

     total cpu time spent up to now is       13.0 secs

     total energy              =    -123.36976750 Ry
     Harris-Foulkes estimate   =   -4048.45481983 Ry
     estimated scf accuracy    <      16.59418704 Ry

     iteration # 66     ecut=    30.00 Ry     beta=0.70
     Davidson diagonalization with overlap
     ethr =  1.00E-02,  avg # of iterations =  5.0

     negative rho (up, down):  3.544E-02 0.000E+00

     total cpu time spent up to now is       13.0 secs

     total energy              =      72.40678816 Ry
     Harris-Foulkes estimate   =  -18283.75901544 Ry
     estimated scf accuracy    <      44.31433558 Ry

     iteration # 67     ecut=    30.00 Ry     beta=0.70
     Davidson diagonalization with overlap
     ethr =  1.00E-02,  avg # of iterations =  6.0

     negative rho (up, down):  1.114E-01 0.000E+00

     total cpu time spent up to now is       13.1 secs

     total energy              =     -10.96606331 Ry
     Harris-Foulkes estimate   =    -107.87692197 Ry
     estimated scf accuracy    <      11.63912684 Ry

     iteration # 68     ecut=    30.00 Ry     beta=0.70
     Davidson diagonalization with overlap
     ethr =  1.00E-02,  avg # of iterations =  7.0

     negative rho (up, down):  1.035E-01 0.000E+00

     total cpu time spent up to now is       13.1 secs

     total energy              =      20.46799848 Ry
     Harris-Foulkes estimate   =    -281.64794831 Ry
     estimated scf accuracy    <      11.10377503 Ry

     iteration # 69     ecut=    30.00 Ry     beta=0.70
     Davidson diagonalization with overlap
     ethr =  1.00E-02,  avg # of iterations =  6.0

     negative rho (up, down):  3.749E-02 0.000E+00

     total cpu time spent up to now is       13.2 secs

     total energy              =    -156.77476445 Ry
     Harris-Foulkes estimate   =    -272.56560862 Ry
     estimated scf accuracy    <      10.91963853 Ry

     iteration # 70     ecut=    30.00 Ry     beta=0.70
     Davidson diagonalization with overlap
     ethr =  1.00E-02,  avg # of iterations =  4.0

     negative rho (up, down):  5.413E-05 0.000E+00

     total cpu time spent up to now is       13.2 secs

     total energy              =      35.37431505 Ry
     Harris-Foulkes estimate   =    -264.36140064 Ry
     estimated scf accuracy    <       8.09798782 Ry

     iteration # 71     ecut=    30.00 Ry     beta=0.70
     Davidson diagonalization with overlap
     ethr =  1.00E-02,  avg # of iterations =  5.0

     negative rho (up, down):  1.930E-02 0.000E+00

     total cpu time spent up to now is       13.2 secs

     total energy              =     -54.89364079 Ry
     Harris-Foulkes estimate   =     -42.32305591 Ry
     estimated scf accuracy    <      17.68207480 Ry

     iteration # 72     ecut=    30.00 Ry     beta=0.70
     Davidson diagonalization with overlap
     ethr =  1.00E-02,  avg # of iterations =  3.0

     negative rho (up, down):  1.667E-01 0.000E+00

     total cpu time spent up to now is       13.3 secs

     total energy              =     -48.46719142 Ry
     Harris-Foulkes estimate   =    -116.17545632 Ry
     estimated scf accuracy    <      18.16133635 Ry

     iteration # 73     ecut=    30.00 Ry     beta=0.70
     Davidson diagonalization with overlap
     ethr =  1.00E-02,  avg # of iterations =  4.0

     negative rho (up, down):  2.098E-01 0.000E+00

     total cpu time spent up to now is       13.4 secs

     total energy              =    -124.76663167 Ry
     Harris-Foulkes estimate   =    -211.87230943 Ry
     estimated scf accuracy    <      33.60706081 Ry

     iteration # 74     ecut=    30.00 Ry     beta=0.70
     Davidson diagonalization with overlap
     ethr =  1.00E-02,  avg # of iterations =  4.0

     negative rho (up, down):  2.597E-01 0.000E+00

     total cpu time spent up to now is       13.4 secs

     total energy              =      19.79256488 Ry
     Harris-Foulkes estimate   =   -1244.39374199 Ry
     estimated scf accuracy    <      31.98257915 Ry

     iteration # 75     ecut=    30.00 Ry     beta=0.70
     Davidson diagonalization with overlap
     ethr =  1.00E-02,  avg # of iterations =  5.0

     negative rho (up, down):  9.885E-02 0.000E+00

     total cpu time spent up to now is       13.5 secs

     total energy              =    -261.57949443 Ry
     Harris-Foulkes estimate   =     -49.71265672 Ry
     estimated scf accuracy    <      16.25220286 Ry

     iteration # 76     ecut=    30.00 Ry     beta=0.70
     Davidson diagonalization with overlap
     ethr =  1.00E-02,  avg # of iterations =  6.0

     negative rho (up, down):  8.974E-02 0.000E+00

     total cpu time spent up to now is       13.5 secs

     total energy              =      53.46625314 Ry
     Harris-Foulkes estimate   =   -2155.89896000 Ry
     estimated scf accuracy    <      46.64994612 Ry

     iteration # 77     ecut=    30.00 Ry     beta=0.70
     Davidson diagonalization with overlap
     ethr =  1.00E-02,  avg # of iterations =  6.0

     negative rho (up, down):  8.329E-02 0.000E+00

     total cpu time spent up to now is       13.6 secs

     total energy              =    -152.75669750 Ry
     Harris-Foulkes estimate   =    -159.72957864 Ry
     estimated scf accuracy    <      18.24267373 Ry

     iteration # 78     ecut=    30.00 Ry     beta=0.70
     Davidson diagonalization with overlap
     ethr =  1.00E-02,  avg # of iterations =  5.0

     negative rho (up, down):  1.250E-01 0.000E+00

     total cpu time spent up to now is       13.6 secs

     total energy              =   -1485.52986663 Ry
     Harris-Foulkes estimate   =   -1406.23459527 Ry
     estimated scf accuracy    <      20.64624072 Ry

     iteration # 79     ecut=    30.00 Ry     beta=0.70
     Davidson diagonalization with overlap
     ethr =  1.00E-02,  avg # of iterations =  7.0

     negative rho (up, down):  3.022E-01 0.000E+00

     total cpu time spent up to now is       13.7 secs

     total energy              =    -224.86743158 Ry
     Harris-Foulkes estimate   =   -4246.23857829 Ry
     estimated scf accuracy    <      27.06183287 Ry

     iteration # 80     ecut=    30.00 Ry     beta=0.70
     Davidson diagonalization with overlap
     ethr =  1.00E-02,  avg # of iterations =  6.0

     negative rho (up, down):  6.773E-01 0.000E+00

     total cpu time spent up to now is       13.7 secs

     total energy              =    -165.63238121 Ry
     Harris-Foulkes estimate   =   -1130.61973321 Ry
     estimated scf accuracy    <      34.32688290 Ry

     iteration # 81     ecut=    30.00 Ry     beta=0.70
     Davidson diagonalization with overlap
     ethr =  1.00E-02,  avg # of iterations =  7.0

     negative rho (up, down):  7.464E-01 0.000E+00

     total cpu time spent up to now is       13.8 secs

     total energy              =    -815.25416765 Ry
     Harris-Foulkes estimate   =    -882.26644127 Ry
     estimated scf accuracy    <      30.55539621 Ry

     iteration # 82     ecut=    30.00 Ry     beta=0.70
     Davidson diagonalization with overlap
     ethr =  1.00E-02,  avg # of iterations =  4.0

     negative rho (up, down):  8.442E-01 0.000E+00

     total cpu time spent up to now is       13.8 secs

     total energy              =      81.16626459 Ry
     Harris-Foulkes estimate   =  -14111.64402390 Ry
     estimated scf accuracy    <      34.28058614 Ry

     iteration # 83     ecut=    30.00 Ry     beta=0.70
     Davidson diagonalization with overlap
     ethr =  1.00E-02,  avg # of iterations =  8.0

     negative rho (up, down):  6.060E-01 0.000E+00

     total cpu time spent up to now is       13.9 secs

     total energy              =    -205.37605752 Ry
     Harris-Foulkes estimate   =    -808.63175581 Ry
     estimated scf accuracy    <      26.49483348 Ry

     iteration # 84     ecut=    30.00 Ry     beta=0.70
     Davidson diagonalization with overlap
     ethr =  1.00E-02,  avg # of iterations = 11.0

     negative rho (up, down):  6.852E-01 0.000E+00

     total cpu time spent up to now is       13.9 secs

     total energy              =    -163.21936169 Ry
     Harris-Foulkes estimate   =   -3645.03206349 Ry
     estimated scf accuracy    <      33.56960398 Ry

     iteration # 85     ecut=    30.00 Ry     beta=0.70
     Davidson diagonalization with overlap
     ethr =  1.00E-02,  avg # of iterations =  6.0

     negative rho (up, down):  5.432E-02 0.000E+00

     total cpu time spent up to now is       14.0 secs

     total energy              =      44.06067756 Ry
     Harris-Foulkes estimate   =   -1262.90542463 Ry
     estimated scf accuracy    <      34.65241533 Ry

     iteration # 86     ecut=    30.00 Ry     beta=0.70
     Davidson diagonalization with overlap
     ethr =  1.00E-02,  avg # of iterations =  7.0

     negative rho (up, down):  1.858E-01 0.000E+00

     total cpu time spent up to now is       14.0 secs

     total energy              =    -165.64425822 Ry
     Harris-Foulkes estimate   =    -201.81454433 Ry
     estimated scf accuracy    <      15.06511839 Ry

     iteration # 87     ecut=    30.00 Ry     beta=0.70
     Davidson diagonalization with overlap
     ethr =  1.00E-02,  avg # of iterations =  8.0

     negative rho (up, down):  2.184E-01 0.000E+00

     total cpu time spent up to now is       14.1 secs

     total energy              =   -1144.22397633 Ry
     Harris-Foulkes estimate   =   -3528.16816685 Ry
     estimated scf accuracy    <      35.61818726 Ry

     iteration # 88     ecut=    30.00 Ry     beta=0.70
     Davidson diagonalization with overlap
     ethr =  1.00E-02,  avg # of iterations =  7.0

     negative rho (up, down):  3.463E-01 0.000E+00

     total cpu time spent up to now is       14.1 secs

     total energy              =      94.42020188 Ry
     Harris-Foulkes estimate   =   -2202.88116586 Ry
     estimated scf accuracy    <      40.02491467 Ry

     iteration # 89     ecut=    30.00 Ry     beta=0.70
     Davidson diagonalization with overlap
     ethr =  1.00E-02,  avg # of iterations =  5.0

     negative rho (up, down):  4.250E-01 0.000E+00

     total cpu time spent up to now is       14.2 secs

     total energy              =      22.33430717 Ry
     Harris-Foulkes estimate   =   -2207.36816784 Ry
     estimated scf accuracy    <      38.78313657 Ry

     iteration # 90     ecut=    30.00 Ry     beta=0.70
     Davidson diagonalization with overlap
     ethr =  1.00E-02,  avg # of iterations =  8.0

     negative rho (up, down):  5.584E-01 0.000E+00

     total cpu time spent up to now is       14.2 secs

     total energy              =      87.22042937 Ry
     Harris-Foulkes estimate   =    -596.84922779 Ry
     estimated scf accuracy    <      23.85085725 Ry

     iteration # 91     ecut=    30.00 Ry     beta=0.70
     Davidson diagonalization with overlap
     ethr =  1.00E-02,  avg # of iterations =  8.0

     negative rho (up, down):  5.284E-01 0.000E+00

     total cpu time spent up to now is       14.3 secs

     total energy              =   -1185.42284576 Ry
     Harris-Foulkes estimate   =    -312.15060638 Ry
     estimated scf accuracy    <      19.51806932 Ry

     iteration # 92     ecut=    30.00 Ry     beta=0.70
     Davidson diagonalization with overlap
     ethr =  1.00E-02,  avg # of iterations =  7.0

     negative rho (up, down):  4.931E-01 0.000E+00

     total cpu time spent up to now is       14.4 secs

     total energy              =   -1544.79075284 Ry
     Harris-Foulkes estimate   =  -14656.56422484 Ry
     estimated scf accuracy    <      32.17062660 Ry

     iteration # 93     ecut=    30.00 Ry     beta=0.70
     Davidson diagonalization with overlap
     ethr =  1.00E-02,  avg # of iterations =  6.0

     negative rho (up, down):  5.390E-01 0.000E+00

     total cpu time spent up to now is       14.4 secs

     total energy              =    -527.74564601 Ry
     Harris-Foulkes estimate   =   -4646.63322908 Ry
     estimated scf accuracy    <      29.79530701 Ry

     iteration # 94     ecut=    30.00 Ry     beta=0.70
     Davidson diagonalization with overlap
     ethr =  1.00E-02,  avg # of iterations = 10.0

     negative rho (up, down):  6.614E-01 0.000E+00

     total cpu time spent up to now is       14.5 secs

     total energy              =      -5.59977748 Ry
     Harris-Foulkes estimate   =   -1550.64100539 Ry
     estimated scf accuracy    <      34.22491546 Ry

     iteration # 95     ecut=    30.00 Ry     beta=0.70
     Davidson diagonalization with overlap
     ethr =  1.00E-02,  avg # of iterations =  9.0

     negative rho (up, down):  5.165E-01 0.000E+00

     total cpu time spent up to now is       14.5 secs

     total energy              =      38.77075125 Ry
     Harris-Foulkes estimate   =    -482.04650270 Ry
     estimated scf accuracy    <      20.82892846 Ry

     iteration # 96     ecut=    30.00 Ry     beta=0.70
     Davidson diagonalization with overlap
     ethr =  1.00E-02,  avg # of iterations =  6.0

     negative rho (up, down):  1.615E-01 0.000E+00

     total cpu time spent up to now is       14.6 secs

     total energy              =      35.25717925 Ry
     Harris-Foulkes estimate   =   -1131.93121582 Ry
     estimated scf accuracy    <      24.33659809 Ry

     iteration # 97     ecut=    30.00 Ry     beta=0.70
     Davidson diagonalization with overlap
     ethr =  1.00E-02,  avg # of iterations =  7.0

     negative rho (up, down):  2.865E-01 0.000E+00

     total cpu time spent up to now is       14.6 secs

     total energy              =    -145.51584222 Ry
     Harris-Foulkes estimate   =   -1394.78823230 Ry
     estimated scf accuracy    <      20.07466344 Ry

     iteration # 98     ecut=    30.00 Ry     beta=0.70
     Davidson diagonalization with overlap
     ethr =  1.00E-02,  avg # of iterations =  7.0

     negative rho (up, down):  1.823E-01 0.000E+00

     total cpu time spent up to now is       14.7 secs

     total energy              =     494.60385856 Ry
     Harris-Foulkes estimate   =    -693.20599801 Ry
     estimated scf accuracy    <      23.10673657 Ry

     iteration # 99     ecut=    30.00 Ry     beta=0.70
     Davidson diagonalization with overlap
     ethr =  1.00E-02,  avg # of iterations =  8.0

     negative rho (up, down):  1.900E-01 0.000E+00

     total cpu time spent up to now is       14.8 secs

     total energy              =      93.54787819 Ry
     Harris-Foulkes estimate   =   -1335.71272903 Ry
     estimated scf accuracy    <      23.52695375 Ry

     iteration #100     ecut=    30.00 Ry     beta=0.70
     Davidson diagonalization with overlap
     ethr =  1.00E-02,  avg # of iterations =  8.0

     negative rho (up, down):  7.462E-02 0.000E+00

     total cpu time spent up to now is       14.8 secs

     total energy              =      86.20761524 Ry
     Harris-Foulkes estimate   =    -429.59553526 Ry
     estimated scf accuracy    <      30.48574369 Ry

     End of self-consistent calculation

     convergence NOT achieved after 100 iterations: stopping

     Writing output data file pwscf.save
 
     init_run     :      0.09s CPU      0.11s WALL (       1 calls)
     electrons    :      9.67s CPU     12.24s WALL (      10 calls)
     update_pot   :      1.11s CPU      1.62s WALL (       9 calls)
     forces       :      0.23s CPU      0.24s WALL (       9 calls)

     Called by init_run:
     wfcinit      :      0.01s CPU      0.03s WALL (       1 calls)
     potinit      :      0.02s CPU      0.03s WALL (       1 calls)

     Called by electrons:
     c_bands      :      4.63s CPU      4.97s WALL (     282 calls)
     sum_band     :      0.80s CPU      0.89s WALL (     282 calls)
     v_of_rho     :      2.05s CPU      2.17s WALL (     292 calls)
     mix_rho      :      1.79s CPU      3.12s WALL (     282 calls)

     Called by c_bands:
     init_us_2    :      0.03s CPU      0.03s WALL (     565 calls)
     cegterg      :      4.57s CPU      4.81s WALL (     282 calls)

     Called by sum_band:

     Called by *egterg:
     h_psi        :      3.83s CPU      4.04s WALL (    1380 calls)
     g_psi        :      0.04s CPU      0.04s WALL (    1097 calls)
     cdiaghg      :      0.27s CPU      0.28s WALL (    1370 calls)

     Called by h_psi:
     h_psi:pot    :      3.80s CPU      4.01s WALL (    1380 calls)
     h_psi:calbec :      0.07s CPU      0.07s WALL (    1380 calls)
     vloc_psi     :      3.72s CPU      3.92s WALL (    1380 calls)
     add_vuspsi   :      0.01s CPU      0.01s WALL (    1380 calls)

     General routines
     calbec       :      0.14s CPU      0.18s WALL (    1424 calls)
     fft          :      1.41s CPU      1.50s WALL (    3230 calls)
     fftw         :      3.86s CPU      4.13s WALL (   17154 calls)
     davcio       :      0.29s CPU      1.15s WALL (    4763 calls)
 
     Parallel routines
     fft_scatter  :      2.16s CPU      2.44s WALL (   20384 calls)
 
     PWSCF        :    11.40s CPU        14.91s WALL

 
   This run was terminated on:   2:50:30  11Feb2018            

=------------------------------------------------------------------------------=
   JOB DONE.
=------------------------------------------------------------------------------=
