
     Program PWSCF v.6.0 (svn rev. 13079) starts on 11Feb2018 at  2:55:40 

     This program is part of the open-source Quantum ESPRESSO suite
     for quantum simulation of materials; please cite
         "P. Giannozzi et al., J. Phys.:Condens. Matter 21 395502 (2009);
          URL http://www.quantum-espresso.org", 
     in publications or presentations arising from this work. More details at
     http://www.quantum-espresso.org/quote

     Parallel version (MPI), running on    28 processors
     R & G space division:  proc/nbgrp/npool/nimage =      28
     Reading input from inputs/water-1-md/572.in

     Current dimensions of program PWSCF are:
     Max number of different atomic species (ntypx) = 10
     Max number of k-points (npk) =  40000
     Max angular momentum in pseudopotentials (lmaxx) =  3

     Subspace diagonalization in iterative solution of the eigenvalue problem:
     a serial algorithm will be used

 
     Parallelization info
     --------------------
     sticks:   dense  smooth     PW     G-vecs:    dense   smooth      PW
     Min         136     136     33                 6338     6338     787
     Max         137     137     34                 6341     6341     792
     Sum        3809    3809    949               177509   177509   22119
 


     bravais-lattice index     =            1
     lattice parameter (alat)  =      20.0000  a.u.
     unit-cell volume          =    8000.0000 (a.u.)^3
     number of atoms/cell      =            3
     number of atomic types    =            2
     number of electrons       =         8.00
     number of Kohn-Sham states=            8
     kinetic-energy cutoff     =      30.0000  Ry
     charge density cutoff     =     120.0000  Ry
     convergence threshold     =      1.0E-08
     mixing beta               =       0.7000
     number of iterations used =            8  plain     mixing
     Exchange-correlation      = BLYP ( 1  3  1  3 0 0)
     nstep                     =         5000


     celldm(1)=  20.000000  celldm(2)=   0.000000  celldm(3)=   0.000000
     celldm(4)=   0.000000  celldm(5)=   0.000000  celldm(6)=   0.000000

     crystal axes: (cart. coord. in units of alat)
               a(1) = (   1.000000   0.000000   0.000000 )  
               a(2) = (   0.000000   1.000000   0.000000 )  
               a(3) = (   0.000000   0.000000   1.000000 )  

     reciprocal axes: (cart. coord. in units 2 pi/alat)
               b(1) = (  1.000000  0.000000  0.000000 )  
               b(2) = (  0.000000  1.000000  0.000000 )  
               b(3) = (  0.000000  0.000000  1.000000 )  


     PseudoPot. # 1 for  H read from file:
     ./H.blyp-hgh.UPF
     MD5 check sum: c576e69559cde411e611be972c763230
     Pseudo is Norm-conserving, Zval =  1.0
     Generated in analytical, separable form
     Using radial grid of  929 points,  0 beta functions with: 

     PseudoPot. # 2 for  O read from file:
     ./O.blyp-hgh.UPF
     MD5 check sum: d0b7156309aa9befef28faac7bc56342
     Pseudo is Norm-conserving, Zval =  6.0
     Generated in analytical, separable form
     Using radial grid of 1095 points,  1 beta functions with: 
                l(1) =   0

     atomic species   valence    mass     pseudopotential
        H              1.00     1.01000      H( 1.00)
        O              6.00    16.00000      O( 1.00)

     No symmetry found



   Cartesian axes

     site n.     atom                  positions (alat units)
         1           H   tau(   1) = (   0.1985092   0.7417057   0.6929672  )
         2           H   tau(   2) = (   0.8132705   0.8358528   0.1220200  )
         3           O   tau(   3) = (   0.0666670   0.2565089   0.8963226  )

     number of k points=     1  Marzari-Vanderbilt smearing, width (Ry)=  0.0250
                       cart. coord. in units 2pi/alat
        k(    1) = (   0.0000000   0.0000000   0.0000000), wk =   2.0000000

     Dense  grid:   177509 G-vectors     FFT dimensions: (  72,  72,  72)

     Estimated max dynamical RAM per process >       6.09Mb

     Estimated total allocated dynamical RAM >     170.64Mb

     Initial potential from superposition of free atoms
     Check: negative starting charge=   -0.350266

     starting charge    7.99998, renormalised to    8.00000

     negative rho (up, down):  3.503E-01 0.000E+00
     Starting wfc are    6 randomized atomic wfcs +    2 random wfc

     total cpu time spent up to now is        0.2 secs

     per-process dynamical memory:    18.8 Mb

     Self-consistent Calculation

     iteration #  1     ecut=    30.00 Ry     beta=0.70
     Davidson diagonalization with overlap
     ethr =  1.00E-02,  avg # of iterations =  8.0

     negative rho (up, down):  8.385E-02 0.000E+00

     total cpu time spent up to now is        0.3 secs

     total energy              =     -28.10648307 Ry
     Harris-Foulkes estimate   =     -32.07698610 Ry
     estimated scf accuracy    <       4.56233252 Ry

     iteration #  2     ecut=    30.00 Ry     beta=0.70
     Davidson diagonalization with overlap
     ethr =  1.00E-02,  avg # of iterations =  4.0

     negative rho (up, down):  6.139E-02 0.000E+00

     total cpu time spent up to now is        0.3 secs

     total energy              =     -32.63617575 Ry
     Harris-Foulkes estimate   =     -37.89528993 Ry
     estimated scf accuracy    <      12.82478391 Ry

     iteration #  3     ecut=    30.00 Ry     beta=0.70
     Davidson diagonalization with overlap
     ethr =  1.00E-02,  avg # of iterations =  2.0

     negative rho (up, down):  6.334E-02 0.000E+00

     total cpu time spent up to now is        0.3 secs

     total energy              =     -33.17776099 Ry
     Harris-Foulkes estimate   =     -32.97508184 Ry
     estimated scf accuracy    <       4.95442668 Ry

     iteration #  4     ecut=    30.00 Ry     beta=0.70
     Davidson diagonalization with overlap
     ethr =  1.00E-02,  avg # of iterations =  1.0

     negative rho (up, down):  2.501E-02 0.000E+00

     total cpu time spent up to now is        0.4 secs

     total energy              =     -30.22164487 Ry
     Harris-Foulkes estimate   =     -33.17831586 Ry
     estimated scf accuracy    <       5.25451713 Ry

     iteration #  5     ecut=    30.00 Ry     beta=0.70
     Davidson diagonalization with overlap
     ethr =  1.00E-02,  avg # of iterations =  7.0

     negative rho (up, down):  2.139E-02 0.000E+00

     total cpu time spent up to now is        0.4 secs

     total energy              =     -33.18574515 Ry
     Harris-Foulkes estimate   =     -33.25926317 Ry
     estimated scf accuracy    <      13.59444289 Ry

     iteration #  6     ecut=    30.00 Ry     beta=0.70
     Davidson diagonalization with overlap
     ethr =  1.00E-02,  avg # of iterations =  1.0

     negative rho (up, down):  4.629E-02 0.000E+00

     total cpu time spent up to now is        0.4 secs

     total energy              =     -32.71896523 Ry
     Harris-Foulkes estimate   =     -33.18979224 Ry
     estimated scf accuracy    <      13.09443104 Ry

     iteration #  7     ecut=    30.00 Ry     beta=0.70
     Davidson diagonalization with overlap
     ethr =  1.00E-02,  avg # of iterations =  1.0

     negative rho (up, down):  3.564E-04 0.000E+00

     total cpu time spent up to now is        0.5 secs

     total energy              =     -32.56499858 Ry
     Harris-Foulkes estimate   =     -32.83505251 Ry
     estimated scf accuracy    <       5.96185217 Ry

     iteration #  8     ecut=    30.00 Ry     beta=0.70
     Davidson diagonalization with overlap
     ethr =  1.00E-02,  avg # of iterations =  1.0

     negative rho (up, down):  3.809E-02 0.000E+00

     total cpu time spent up to now is        0.5 secs

     total energy              =     -31.51897818 Ry
     Harris-Foulkes estimate   =     -32.57113038 Ry
     estimated scf accuracy    <       5.44959145 Ry

     iteration #  9     ecut=    30.00 Ry     beta=0.70
     Davidson diagonalization with overlap
     ethr =  1.00E-02,  avg # of iterations =  2.0

     negative rho (up, down):  3.947E-02 0.000E+00

     total cpu time spent up to now is        0.5 secs

     total energy              =     -31.54018977 Ry
     Harris-Foulkes estimate   =     -31.55629579 Ry
     estimated scf accuracy    <       4.81402053 Ry

     iteration # 10     ecut=    30.00 Ry     beta=0.70
     Davidson diagonalization with overlap
     ethr =  1.00E-02,  avg # of iterations =  1.0

     negative rho (up, down):  3.839E-02 0.000E+00

     total cpu time spent up to now is        0.6 secs

     total energy              =     -31.63342285 Ry
     Harris-Foulkes estimate   =     -31.54129021 Ry
     estimated scf accuracy    <       4.40535923 Ry

     iteration # 11     ecut=    30.00 Ry     beta=0.70
     Davidson diagonalization with overlap
     ethr =  1.00E-02,  avg # of iterations =  1.0

     negative rho (up, down):  1.123E-01 0.000E+00

     total cpu time spent up to now is        0.6 secs

     total energy              =     -31.25108185 Ry
     Harris-Foulkes estimate   =     -31.63234424 Ry
     estimated scf accuracy    <       3.83208073 Ry

     iteration # 12     ecut=    30.00 Ry     beta=0.70
     Davidson diagonalization with overlap
     ethr =  1.00E-02,  avg # of iterations =  1.0

     negative rho (up, down):  1.034E-01 0.000E+00

     total cpu time spent up to now is        0.6 secs

     total energy              =     -31.33339488 Ry
     Harris-Foulkes estimate   =     -31.62554927 Ry
     estimated scf accuracy    <       2.80245452 Ry

     iteration # 13     ecut=    30.00 Ry     beta=0.70
     Davidson diagonalization with overlap
     ethr =  1.00E-02,  avg # of iterations =  1.0

     negative rho (up, down):  1.592E-01 0.000E+00

     total cpu time spent up to now is        0.7 secs

     total energy              =     -31.73101187 Ry
     Harris-Foulkes estimate   =     -31.59288522 Ry
     estimated scf accuracy    <       4.19060486 Ry

     iteration # 14     ecut=    30.00 Ry     beta=0.70
     Davidson diagonalization with overlap
     ethr =  1.00E-02,  avg # of iterations =  1.0

     negative rho (up, down):  2.457E-02 0.000E+00

     total cpu time spent up to now is        0.7 secs

     total energy              =     -31.80659656 Ry
     Harris-Foulkes estimate   =     -31.72450602 Ry
     estimated scf accuracy    <       3.90680759 Ry

     iteration # 15     ecut=    30.00 Ry     beta=0.70
     Davidson diagonalization with overlap
     ethr =  1.00E-02,  avg # of iterations =  1.0

     negative rho (up, down):  1.849E-03 0.000E+00

     total cpu time spent up to now is        0.8 secs

     total energy              =     -31.68830304 Ry
     Harris-Foulkes estimate   =     -31.80730337 Ry
     estimated scf accuracy    <       4.02268882 Ry

     iteration # 16     ecut=    30.00 Ry     beta=0.70
     Davidson diagonalization with overlap
     ethr =  1.00E-02,  avg # of iterations =  1.0

     negative rho (up, down):  8.847E-04 0.000E+00

     total cpu time spent up to now is        0.8 secs

     total energy              =     -31.64216240 Ry
     Harris-Foulkes estimate   =     -31.68862118 Ry
     estimated scf accuracy    <       3.84904159 Ry

     iteration # 17     ecut=    30.00 Ry     beta=0.70
     Davidson diagonalization with overlap
     ethr =  1.00E-02,  avg # of iterations =  1.0

     negative rho (up, down):  2.017E-03 0.000E+00

     total cpu time spent up to now is        0.9 secs

     total energy              =     -31.54347668 Ry
     Harris-Foulkes estimate   =     -31.64218521 Ry
     estimated scf accuracy    <       3.82363373 Ry

     iteration # 18     ecut=    30.00 Ry     beta=0.70
     Davidson diagonalization with overlap
     ethr =  1.00E-02,  avg # of iterations =  1.0

     negative rho (up, down):  1.591E-03 0.000E+00

     total cpu time spent up to now is        0.9 secs

     total energy              =     -31.57035891 Ry
     Harris-Foulkes estimate   =     -31.53708347 Ry
     estimated scf accuracy    <       3.87620455 Ry

     iteration # 19     ecut=    30.00 Ry     beta=0.70
     Davidson diagonalization with overlap
     ethr =  1.00E-02,  avg # of iterations =  1.0

     negative rho (up, down):  5.294E-04 0.000E+00

     total cpu time spent up to now is        1.0 secs

     total energy              =     -31.55369883 Ry
     Harris-Foulkes estimate   =     -31.57300027 Ry
     estimated scf accuracy    <       4.73834228 Ry

     iteration # 20     ecut=    30.00 Ry     beta=0.70
     Davidson diagonalization with overlap
     ethr =  1.00E-02,  avg # of iterations =  1.0

     negative rho (up, down):  2.824E-03 0.000E+00

     total cpu time spent up to now is        1.1 secs

     total energy              =     -31.66482023 Ry
     Harris-Foulkes estimate   =     -31.55365078 Ry
     estimated scf accuracy    <       4.63239713 Ry

     iteration # 21     ecut=    30.00 Ry     beta=0.70
     Davidson diagonalization with overlap
     ethr =  1.00E-02,  avg # of iterations =  1.0

     negative rho (up, down):  1.850E-02 0.000E+00

     total cpu time spent up to now is        1.1 secs

     total energy              =     -31.79265063 Ry
     Harris-Foulkes estimate   =     -31.65897675 Ry
     estimated scf accuracy    <       3.80272374 Ry

     iteration # 22     ecut=    30.00 Ry     beta=0.70
     Davidson diagonalization with overlap
     ethr =  1.00E-02,  avg # of iterations =  1.0

     negative rho (up, down):  1.734E-02 0.000E+00

     total cpu time spent up to now is        1.2 secs

     total energy              =     -32.72045731 Ry
     Harris-Foulkes estimate   =     -31.79340464 Ry
     estimated scf accuracy    <       4.00348505 Ry

     iteration # 23     ecut=    30.00 Ry     beta=0.70
     Davidson diagonalization with overlap
     ethr =  1.00E-02,  avg # of iterations =  1.0

     negative rho (up, down):  2.408E-01 0.000E+00

     total cpu time spent up to now is        1.2 secs

     total energy              =     -34.73526837 Ry
     Harris-Foulkes estimate   =     -32.74274010 Ry
     estimated scf accuracy    <       5.54912708 Ry

     iteration # 24     ecut=    30.00 Ry     beta=0.70
     Davidson diagonalization with overlap
     ethr =  1.00E-02,  avg # of iterations =  8.0

     negative rho (up, down):  1.483E-01 0.000E+00

     total cpu time spent up to now is        1.3 secs

     total energy              =     -34.53221894 Ry
     Harris-Foulkes estimate   =     -35.59998962 Ry
     estimated scf accuracy    <      17.27986879 Ry

     iteration # 25     ecut=    30.00 Ry     beta=0.70
     Davidson diagonalization with overlap
     ethr =  1.00E-02,  avg # of iterations =  1.0

     negative rho (up, down):  5.199E-02 0.000E+00

     total cpu time spent up to now is        1.3 secs

     total energy              =     -32.70320813 Ry
     Harris-Foulkes estimate   =     -34.54101273 Ry
     estimated scf accuracy    <      15.87819377 Ry

     iteration # 26     ecut=    30.00 Ry     beta=0.70
     Davidson diagonalization with overlap
     ethr =  1.00E-02,  avg # of iterations =  1.0

     negative rho (up, down):  6.067E-02 0.000E+00

     total cpu time spent up to now is        1.4 secs

     total energy              =     -30.83786076 Ry
     Harris-Foulkes estimate   =     -32.72735686 Ry
     estimated scf accuracy    <      13.41480992 Ry

     iteration # 27     ecut=    30.00 Ry     beta=0.70
     Davidson diagonalization with overlap
     ethr =  1.00E-02,  avg # of iterations =  1.0

     negative rho (up, down):  6.171E-02 0.000E+00

     total cpu time spent up to now is        1.4 secs

     total energy              =     -30.04029410 Ry
     Harris-Foulkes estimate   =     -30.87131073 Ry
     estimated scf accuracy    <      10.84414670 Ry

     iteration # 28     ecut=    30.00 Ry     beta=0.70
     Davidson diagonalization with overlap
     ethr =  1.00E-02,  avg # of iterations =  5.0

     negative rho (up, down):  1.043E-01 0.000E+00

     total cpu time spent up to now is        1.5 secs

     total energy              =     -29.72136102 Ry
     Harris-Foulkes estimate   =     -31.15364687 Ry
     estimated scf accuracy    <       3.27698846 Ry

     iteration # 29     ecut=    30.00 Ry     beta=0.70
     Davidson diagonalization with overlap
     ethr =  1.00E-02,  avg # of iterations =  5.0

     negative rho (up, down):  5.417E-01 0.000E+00

     total cpu time spent up to now is        1.6 secs

     total energy              =     -33.37104309 Ry
     Harris-Foulkes estimate   =     -31.88793253 Ry
     estimated scf accuracy    <       1.61016870 Ry

     iteration # 30     ecut=    30.00 Ry     beta=0.70
     Davidson diagonalization with overlap
     ethr =  1.00E-02,  avg # of iterations =  5.0

     negative rho (up, down):  6.841E-02 0.000E+00

     total cpu time spent up to now is        1.6 secs

     total energy              =     -32.96182637 Ry
     Harris-Foulkes estimate   =     -37.76116199 Ry
     estimated scf accuracy    <      11.82911814 Ry

     iteration # 31     ecut=    30.00 Ry     beta=0.70
     Davidson diagonalization with overlap
     ethr =  1.00E-02,  avg # of iterations =  2.0

     negative rho (up, down):  4.994E-02 0.000E+00

     total cpu time spent up to now is        1.7 secs

     total energy              =     -31.69985804 Ry
     Harris-Foulkes estimate   =     -33.12896438 Ry
     estimated scf accuracy    <       5.18840790 Ry

     iteration # 32     ecut=    30.00 Ry     beta=0.70
     Davidson diagonalization with overlap
     ethr =  1.00E-02,  avg # of iterations =  4.0

     negative rho (up, down):  1.645E-01 0.000E+00

     total cpu time spent up to now is        1.7 secs

     total energy              =     -30.37673235 Ry
     Harris-Foulkes estimate   =     -31.72761502 Ry
     estimated scf accuracy    <       3.00790338 Ry

     iteration # 33     ecut=    30.00 Ry     beta=0.70
     Davidson diagonalization with overlap
     ethr =  1.00E-02,  avg # of iterations =  5.0

     negative rho (up, down):  6.015E-03 0.000E+00

     total cpu time spent up to now is        1.7 secs

     total energy              =     -31.62570739 Ry
     Harris-Foulkes estimate   =     -33.08975871 Ry
     estimated scf accuracy    <       6.35650540 Ry

     iteration # 34     ecut=    30.00 Ry     beta=0.70
     Davidson diagonalization with overlap
     ethr =  1.00E-02,  avg # of iterations =  2.0

     negative rho (up, down):  8.894E-03 0.000E+00

     total cpu time spent up to now is        1.8 secs

     total energy              =     -31.16728106 Ry
     Harris-Foulkes estimate   =     -31.69391831 Ry
     estimated scf accuracy    <       3.88667996 Ry

     iteration # 35     ecut=    30.00 Ry     beta=0.70
     Davidson diagonalization with overlap
     ethr =  1.00E-02,  avg # of iterations =  1.0

     negative rho (up, down):  2.603E-03 0.000E+00

     total cpu time spent up to now is        1.8 secs

     total energy              =     -31.57541570 Ry
     Harris-Foulkes estimate   =     -31.72477981 Ry
     estimated scf accuracy    <       2.98053276 Ry

     iteration # 36     ecut=    30.00 Ry     beta=0.70
     Davidson diagonalization with overlap
     ethr =  1.00E-02,  avg # of iterations =  1.0

     negative rho (up, down):  2.574E-03 0.000E+00

     total cpu time spent up to now is        1.8 secs

     total energy              =     -31.58262240 Ry
     Harris-Foulkes estimate   =     -31.57644448 Ry
     estimated scf accuracy    <       2.74942803 Ry

     iteration # 37     ecut=    30.00 Ry     beta=0.70
     Davidson diagonalization with overlap
     ethr =  1.00E-02,  avg # of iterations =  1.0

     negative rho (up, down):  3.963E-03 0.000E+00

     total cpu time spent up to now is        1.9 secs

     total energy              =     -31.60693624 Ry
     Harris-Foulkes estimate   =     -31.58266007 Ry
     estimated scf accuracy    <       2.75425348 Ry

     iteration # 38     ecut=    30.00 Ry     beta=0.70
     Davidson diagonalization with overlap
     ethr =  1.00E-02,  avg # of iterations =  1.0

     negative rho (up, down):  2.749E-03 0.000E+00

     total cpu time spent up to now is        1.9 secs

     total energy              =     -31.59133672 Ry
     Harris-Foulkes estimate   =     -31.60712143 Ry
     estimated scf accuracy    <       2.79059299 Ry

     iteration # 39     ecut=    30.00 Ry     beta=0.70
     Davidson diagonalization with overlap
     ethr =  1.00E-02,  avg # of iterations =  1.0

     negative rho (up, down):  8.159E-04 0.000E+00

     total cpu time spent up to now is        1.9 secs

     total energy              =     -31.58165663 Ry
     Harris-Foulkes estimate   =     -31.59135305 Ry
     estimated scf accuracy    <       2.76830102 Ry

     iteration # 40     ecut=    30.00 Ry     beta=0.70
     Davidson diagonalization with overlap
     ethr =  1.00E-02,  avg # of iterations =  1.0

     negative rho (up, down):  1.346E-03 0.000E+00

     total cpu time spent up to now is        2.0 secs

     total energy              =     -31.37824106 Ry
     Harris-Foulkes estimate   =     -31.58167687 Ry
     estimated scf accuracy    <       2.74643038 Ry

     iteration # 41     ecut=    30.00 Ry     beta=0.70
     Davidson diagonalization with overlap
     ethr =  1.00E-02,  avg # of iterations =  1.0

     negative rho (up, down):  2.078E-03 0.000E+00

     total cpu time spent up to now is        2.0 secs

     total energy              =     -31.35283948 Ry
     Harris-Foulkes estimate   =     -31.55469581 Ry
     estimated scf accuracy    <       4.70901242 Ry

     iteration # 42     ecut=    30.00 Ry     beta=0.70
     Davidson diagonalization with overlap
     ethr =  1.00E-02,  avg # of iterations =  1.0

     negative rho (up, down):  6.626E-04 0.000E+00

     total cpu time spent up to now is        2.1 secs

     total energy              =     -31.41843333 Ry
     Harris-Foulkes estimate   =     -31.53138625 Ry
     estimated scf accuracy    <       2.28667109 Ry

     iteration # 43     ecut=    30.00 Ry     beta=0.70
     Davidson diagonalization with overlap
     ethr =  1.00E-02,  avg # of iterations =  1.0

     negative rho (up, down):  1.307E-03 0.000E+00

     total cpu time spent up to now is        2.1 secs

     total energy              =     -31.49717762 Ry
     Harris-Foulkes estimate   =     -31.51918491 Ry
     estimated scf accuracy    <       2.59682621 Ry

     iteration # 44     ecut=    30.00 Ry     beta=0.70
     Davidson diagonalization with overlap
     ethr =  1.00E-02,  avg # of iterations =  1.0

     negative rho (up, down):  1.316E-03 0.000E+00

     total cpu time spent up to now is        2.1 secs

     total energy              =     -31.52088553 Ry
     Harris-Foulkes estimate   =     -31.50162481 Ry
     estimated scf accuracy    <       1.14771078 Ry

     iteration # 45     ecut=    30.00 Ry     beta=0.70
     Davidson diagonalization with overlap
     ethr =  1.00E-02,  avg # of iterations =  1.0

     negative rho (up, down):  9.286E-04 0.000E+00

     total cpu time spent up to now is        2.2 secs

     total energy              =     -31.30043266 Ry
     Harris-Foulkes estimate   =     -31.52893718 Ry
     estimated scf accuracy    <       3.53518113 Ry

     iteration # 46     ecut=    30.00 Ry     beta=0.70
     Davidson diagonalization with overlap
     ethr =  1.00E-02,  avg # of iterations =  1.0

     negative rho (up, down):  1.928E-03 0.000E+00

     total cpu time spent up to now is        2.2 secs

     total energy              =     -31.48986465 Ry
     Harris-Foulkes estimate   =     -31.60038820 Ry
     estimated scf accuracy    <       2.78595169 Ry

     iteration # 47     ecut=    30.00 Ry     beta=0.70
     Davidson diagonalization with overlap
     ethr =  1.00E-02,  avg # of iterations =  1.0

     negative rho (up, down):  8.067E-05 0.000E+00

     total cpu time spent up to now is        2.2 secs

     total energy              =     -31.50015713 Ry
     Harris-Foulkes estimate   =     -31.50038967 Ry
     estimated scf accuracy    <       0.81209230 Ry

     iteration # 48     ecut=    30.00 Ry     beta=0.70
     Davidson diagonalization with overlap
     ethr =  1.00E-02,  avg # of iterations =  1.0

     negative rho (up, down):  7.163E-05 0.000E+00

     total cpu time spent up to now is        2.3 secs

     total energy              =     -31.48499394 Ry
     Harris-Foulkes estimate   =     -31.50019734 Ry
     estimated scf accuracy    <       0.81247388 Ry

     iteration # 49     ecut=    30.00 Ry     beta=0.70
     Davidson diagonalization with overlap
     ethr =  1.00E-02,  avg # of iterations =  1.0

     negative rho (up, down):  1.572E-05 0.000E+00

     total cpu time spent up to now is        2.3 secs

     total energy              =     -31.49036141 Ry
     Harris-Foulkes estimate   =     -31.49101504 Ry
     estimated scf accuracy    <       0.02752435 Ry

     iteration # 50     ecut=    30.00 Ry     beta=0.70
     Davidson diagonalization with overlap
     ethr =  3.44E-04,  avg # of iterations =  1.0

     total cpu time spent up to now is        2.3 secs

     total energy              =     -31.49064277 Ry
     Harris-Foulkes estimate   =     -31.49074373 Ry
     estimated scf accuracy    <       0.00768611 Ry

     iteration # 51     ecut=    30.00 Ry     beta=0.70
     Davidson diagonalization with overlap
     ethr =  9.61E-05,  avg # of iterations =  1.0

     negative rho (up, down):  1.206E-06 0.000E+00

     total cpu time spent up to now is        2.4 secs

     total energy              =     -31.48920648 Ry
     Harris-Foulkes estimate   =     -31.49169806 Ry
     estimated scf accuracy    <       0.09774588 Ry

     iteration # 52     ecut=    30.00 Ry     beta=0.70
     Davidson diagonalization with overlap
     ethr =  9.61E-05,  avg # of iterations =  1.0

     total cpu time spent up to now is        2.4 secs

     total energy              =     -31.49067702 Ry
     Harris-Foulkes estimate   =     -31.49069219 Ry
     estimated scf accuracy    <       0.00406160 Ry

     iteration # 53     ecut=    30.00 Ry     beta=0.70
     Davidson diagonalization with overlap
     ethr =  5.08E-05,  avg # of iterations = 13.0

     total cpu time spent up to now is        2.4 secs

     total energy              =     -31.49063220 Ry
     Harris-Foulkes estimate   =     -31.49068352 Ry
     estimated scf accuracy    <       0.00341001 Ry

     iteration # 54     ecut=    30.00 Ry     beta=0.70
     Davidson diagonalization with overlap
     ethr =  4.26E-05,  avg # of iterations =  1.0

     total cpu time spent up to now is        2.5 secs

     total energy              =     -31.49065112 Ry
     Harris-Foulkes estimate   =     -31.49065316 Ry
     estimated scf accuracy    <       0.00012311 Ry

     iteration # 55     ecut=    30.00 Ry     beta=0.70
     Davidson diagonalization with overlap
     ethr =  1.54E-06,  avg # of iterations =  7.0

     total cpu time spent up to now is        2.5 secs

     total energy              =     -31.49065220 Ry
     Harris-Foulkes estimate   =     -31.49065209 Ry
     estimated scf accuracy    <       0.00000106 Ry

     iteration # 56     ecut=    30.00 Ry     beta=0.70
     Davidson diagonalization with overlap
     ethr =  1.33E-08,  avg # of iterations =  1.0

     total cpu time spent up to now is        2.5 secs

     total energy              =     -31.49065237 Ry
     Harris-Foulkes estimate   =     -31.49065225 Ry
     estimated scf accuracy    <       0.00000175 Ry

     iteration # 57     ecut=    30.00 Ry     beta=0.70
     Davidson diagonalization with overlap
     ethr =  1.33E-08,  avg # of iterations =  1.0

     total cpu time spent up to now is        2.6 secs

     total energy              =     -31.49065241 Ry
     Harris-Foulkes estimate   =     -31.49065240 Ry
     estimated scf accuracy    <       0.00000012 Ry

     iteration # 58     ecut=    30.00 Ry     beta=0.70
     Davidson diagonalization with overlap
     ethr =  1.47E-09,  avg # of iterations =  1.0

     total cpu time spent up to now is        2.6 secs

     End of self-consistent calculation

          k = 0.0000 0.0000 0.0000 ( 22119 PWs)   bands (ev):

   -23.5989  -7.0128  -7.0117  -7.0108  -6.9101  -6.9018  -0.2377   0.5806

     the Fermi energy is    -6.8768 ev

!    total energy              =     -31.49065240 Ry
     Harris-Foulkes estimate   =     -31.49065241 Ry
     estimated scf accuracy    <          3.5E-10 Ry

     convergence has been achieved in  58 iterations

     Forces acting on atoms (Ry/au):

     atom    1 type  1   force =     0.00017536   -0.00007560    0.00012199
     atom    2 type  1   force =     0.00025459    0.00000230    0.00001454
     atom    3 type  2   force =    -0.00042995    0.00007330   -0.00013653

     Total force =     0.000570     Total SCF correction =     0.000012

     Molecular Dynamics Calculation

     Starting temperature  =  1000.00 K

     temperature is controlled by Andersen thermostat
     Collision frequency = 1.0000/timestep
     mass H                =     1.01
     mass O                =    16.00
     Time step             =   100.00 a.u.,  4.8378 femto-seconds

     Entering Dynamics:    iteration =     1
                           time      =   0.0048 pico-seconds


     Andersen thermostat:    3 collisions

ATOMIC_POSITIONS (bohr)
H        3.743103081  14.380814965  14.022804722
H       16.467466995  16.524632314   2.338210060
O        1.334919635   5.170939247  17.922584282


     kinetic energy (Ekin) =     0.01831625 Ry
     temperature           =   963.96781141 K 
     Ekin + Etot (const)   =   -31.47233615 Ry

     Linear momentum :   -0.0000000000   -0.0000000000    0.0000000000

     Writing output data file pwscf.save
     Check: negative starting charge=   -0.350266
     NEW-OLD atomic charge density approx. for the potential
     Check: negative starting charge=   -0.349667

     negative rho (up, down):  7.061E-02 0.000E+00

     total cpu time spent up to now is        2.9 secs

     per-process dynamical memory:    20.4 Mb

     Self-consistent Calculation

     iteration #  1     ecut=    30.00 Ry     beta=0.70
     Davidson diagonalization with overlap
     c_bands:  1 eigenvalues not converged
     ethr =  1.00E-06,  avg # of iterations = 20.0

     negative rho (up, down):  1.524E-02 0.000E+00

     total cpu time spent up to now is        3.0 secs

     total energy              =     -31.43068168 Ry
     Harris-Foulkes estimate   =     -31.43444092 Ry
     estimated scf accuracy    <       0.05762039 Ry

     iteration #  2     ecut=    30.00 Ry     beta=0.70
     Davidson diagonalization with overlap
     ethr =  7.20E-04,  avg # of iterations =  2.0

     negative rho (up, down):  1.381E-02 0.000E+00

     total cpu time spent up to now is        3.0 secs

     total energy              =     -31.47887424 Ry
     Harris-Foulkes estimate   =     -31.99654860 Ry
     estimated scf accuracy    <       4.39018384 Ry

     iteration #  3     ecut=    30.00 Ry     beta=0.70
     Davidson diagonalization with overlap
     ethr =  7.20E-04,  avg # of iterations =  2.0

     negative rho (up, down):  1.318E-02 0.000E+00

     total cpu time spent up to now is        3.1 secs

     total energy              =     -31.47347004 Ry
     Harris-Foulkes estimate   =     -31.54094082 Ry
     estimated scf accuracy    <       1.10707096 Ry

     iteration #  4     ecut=    30.00 Ry     beta=0.70
     Davidson diagonalization with overlap
     ethr =  7.20E-04,  avg # of iterations =  1.0

     negative rho (up, down):  1.112E-02 0.000E+00

     total cpu time spent up to now is        3.2 secs

     total energy              =     -31.41477646 Ry
     Harris-Foulkes estimate   =     -31.49038982 Ry
     estimated scf accuracy    <       1.29632698 Ry

     iteration #  5     ecut=    30.00 Ry     beta=0.70
     Davidson diagonalization with overlap
     ethr =  7.20E-04,  avg # of iterations =  1.0

     negative rho (up, down):  2.351E-03 0.000E+00

     total cpu time spent up to now is        3.2 secs

     total energy              =     -31.45897575 Ry
     Harris-Foulkes estimate   =     -31.52213312 Ry
     estimated scf accuracy    <       2.21049459 Ry

     iteration #  6     ecut=    30.00 Ry     beta=0.70
     Davidson diagonalization with overlap
     ethr =  7.20E-04,  avg # of iterations =  1.0

     negative rho (up, down):  3.291E-04 0.000E+00

     total cpu time spent up to now is        3.3 secs

     total energy              =     -31.48802413 Ry
     Harris-Foulkes estimate   =     -31.48982714 Ry
     estimated scf accuracy    <       0.07202663 Ry

     iteration #  7     ecut=    30.00 Ry     beta=0.70
     Davidson diagonalization with overlap
     ethr =  7.20E-04,  avg # of iterations =  1.0

     negative rho (up, down):  1.899E-04 0.000E+00

     total cpu time spent up to now is        3.3 secs

     total energy              =     -31.49131006 Ry
     Harris-Foulkes estimate   =     -31.49163107 Ry
     estimated scf accuracy    <       0.09246886 Ry

     iteration #  8     ecut=    30.00 Ry     beta=0.70
     Davidson diagonalization with overlap
     ethr =  7.20E-04,  avg # of iterations =  1.0

     negative rho (up, down):  1.788E-05 0.000E+00

     total cpu time spent up to now is        3.4 secs

     total energy              =     -31.48912980 Ry
     Harris-Foulkes estimate   =     -31.49140955 Ry
     estimated scf accuracy    <       0.07743870 Ry

     iteration #  9     ecut=    30.00 Ry     beta=0.70
     Davidson diagonalization with overlap
     ethr =  7.20E-04,  avg # of iterations =  1.0

     total cpu time spent up to now is        3.4 secs

     total energy              =     -31.49035626 Ry
     Harris-Foulkes estimate   =     -31.49104233 Ry
     estimated scf accuracy    <       0.03211130 Ry

     iteration # 10     ecut=    30.00 Ry     beta=0.70
     Davidson diagonalization with overlap
     ethr =  4.01E-04,  avg # of iterations =  1.0

     total cpu time spent up to now is        3.5 secs

     total energy              =     -31.49071189 Ry
     Harris-Foulkes estimate   =     -31.49070314 Ry
     estimated scf accuracy    <       0.00113190 Ry

     iteration # 11     ecut=    30.00 Ry     beta=0.70
     Davidson diagonalization with overlap
     ethr =  1.41E-05,  avg # of iterations = 10.0

     total cpu time spent up to now is        3.5 secs

     total energy              =     -31.49061946 Ry
     Harris-Foulkes estimate   =     -31.49072931 Ry
     estimated scf accuracy    <       0.00425900 Ry

     iteration # 12     ecut=    30.00 Ry     beta=0.70
     Davidson diagonalization with overlap
     ethr =  1.41E-05,  avg # of iterations =  1.0

     total cpu time spent up to now is        3.6 secs

     total energy              =     -31.49069276 Ry
     Harris-Foulkes estimate   =     -31.49069979 Ry
     estimated scf accuracy    <       0.00088417 Ry

     iteration # 13     ecut=    30.00 Ry     beta=0.70
     Davidson diagonalization with overlap
     ethr =  1.11E-05,  avg # of iterations =  1.0

     total cpu time spent up to now is        3.6 secs

     total energy              =     -31.49068482 Ry
     Harris-Foulkes estimate   =     -31.49069400 Ry
     estimated scf accuracy    <       0.00046160 Ry

     iteration # 14     ecut=    30.00 Ry     beta=0.70
     Davidson diagonalization with overlap
     ethr =  5.77E-06,  avg # of iterations =  1.0

     total cpu time spent up to now is        3.7 secs

     total energy              =     -31.49068899 Ry
     Harris-Foulkes estimate   =     -31.49068903 Ry
     estimated scf accuracy    <       0.00000302 Ry

     iteration # 15     ecut=    30.00 Ry     beta=0.70
     Davidson diagonalization with overlap
     ethr =  3.78E-08,  avg # of iterations =  1.0

     total cpu time spent up to now is        3.7 secs

     End of self-consistent calculation

          k = 0.0000 0.0000 0.0000 ( 22119 PWs)   bands (ev):

   -23.5991  -7.0141  -7.0120  -7.0112  -6.9120  -6.9001  -0.2350   0.5856

     the Fermi energy is    -6.8773 ev

!    total energy              =     -31.49068903 Ry
     Harris-Foulkes estimate   =     -31.49068902 Ry
     estimated scf accuracy    <          4.7E-10 Ry

     convergence has been achieved in  15 iterations

     Forces acting on atoms (Ry/au):

     atom    1 type  1   force =     0.00015828   -0.00003662    0.00014111
     atom    2 type  1   force =     0.00025961    0.00015470    0.00000217
     atom    3 type  2   force =    -0.00041789   -0.00011808   -0.00014328

     Total force =     0.000589     Total SCF correction =     0.000290
     SCF correction compared to forces is large: reduce conv_thr to get better values

     Entering Dynamics:    iteration =     2
                           time      =   0.0097 pico-seconds


     Andersen thermostat:    3 collisions

ATOMIC_POSITIONS (bohr)
H        3.536169268  13.705744313  14.053315898
H       16.861167148  16.250434195   2.480719060
O        1.323130010   5.230861838  17.911662383


     kinetic energy (Ekin) =     0.03734373 Ry
     temperature           =  1965.36742758 K 
     Ekin + Etot (const)   =   -31.45334529 Ry
     Message from routine dynamics:
     Total linear momentum <> 0

     Linear momentum :   -0.0148561400    0.0114107352   -0.0581933664

     Writing output data file pwscf.save

     first order wave-functions extrapolation
     Check: negative starting charge=   -0.349667
     first order charge density extrapolation
     Check: negative starting charge=   -0.348534

     negative rho (up, down):  7.133E-02 0.000E+00

     total cpu time spent up to now is        4.0 secs

     per-process dynamical memory:    20.4 Mb

     Self-consistent Calculation

     iteration #  1     ecut=    30.00 Ry     beta=0.70
     Davidson diagonalization with overlap
     c_bands:  1 eigenvalues not converged
     ethr =  1.00E-06,  avg # of iterations = 20.0

     negative rho (up, down):  1.481E-02 0.000E+00

     total cpu time spent up to now is        4.1 secs

     total energy              =     -30.87835866 Ry
     Harris-Foulkes estimate   =     -31.46686318 Ry
     estimated scf accuracy    <       0.73507340 Ry

     iteration #  2     ecut=    30.00 Ry     beta=0.70
     Davidson diagonalization with overlap
     ethr =  9.19E-03,  avg # of iterations =  3.0

     negative rho (up, down):  1.207E-02 0.000E+00

     total cpu time spent up to now is        4.1 secs

     total energy              =     -31.67722858 Ry
     Harris-Foulkes estimate   =     -33.39372932 Ry
     estimated scf accuracy    <       5.89916776 Ry

     iteration #  3     ecut=    30.00 Ry     beta=0.70
     Davidson diagonalization with overlap
     ethr =  9.19E-03,  avg # of iterations =  2.0

     negative rho (up, down):  1.042E-02 0.000E+00

     total cpu time spent up to now is        4.2 secs

     total energy              =     -31.60999153 Ry
     Harris-Foulkes estimate   =     -31.90691401 Ry
     estimated scf accuracy    <       1.60966489 Ry

     iteration #  4     ecut=    30.00 Ry     beta=0.70
     Davidson diagonalization with overlap
     ethr =  9.19E-03,  avg # of iterations =  1.0

     negative rho (up, down):  9.419E-03 0.000E+00

     total cpu time spent up to now is        4.2 secs

     total energy              =     -31.58844444 Ry
     Harris-Foulkes estimate   =     -31.81309098 Ry
     estimated scf accuracy    <       3.12600887 Ry

     iteration #  5     ecut=    30.00 Ry     beta=0.70
     Davidson diagonalization with overlap
     ethr =  9.19E-03,  avg # of iterations =  1.0

     negative rho (up, down):  7.688E-03 0.000E+00

     total cpu time spent up to now is        4.2 secs

     total energy              =     -31.40037343 Ry
     Harris-Foulkes estimate   =     -31.59561602 Ry
     estimated scf accuracy    <       1.56015665 Ry

     iteration #  6     ecut=    30.00 Ry     beta=0.70
     Davidson diagonalization with overlap
     ethr =  9.19E-03,  avg # of iterations =  1.0

     negative rho (up, down):  2.933E-03 0.000E+00

     total cpu time spent up to now is        4.3 secs

     total energy              =     -31.30006839 Ry
     Harris-Foulkes estimate   =     -31.56047100 Ry
     estimated scf accuracy    <       4.81567214 Ry

     iteration #  7     ecut=    30.00 Ry     beta=0.70
     Davidson diagonalization with overlap
     ethr =  9.19E-03,  avg # of iterations =  1.0

     negative rho (up, down):  6.723E-04 0.000E+00

     total cpu time spent up to now is        4.3 secs

     total energy              =     -31.46539764 Ry
     Harris-Foulkes estimate   =     -31.56903037 Ry
     estimated scf accuracy    <       2.05493974 Ry

     iteration #  8     ecut=    30.00 Ry     beta=0.70
     Davidson diagonalization with overlap
     ethr =  9.19E-03,  avg # of iterations =  1.0

     negative rho (up, down):  2.853E-06 0.000E+00

     total cpu time spent up to now is        4.3 secs

     total energy              =     -31.48988731 Ry
     Harris-Foulkes estimate   =     -31.49077625 Ry
     estimated scf accuracy    <       0.01524474 Ry

     iteration #  9     ecut=    30.00 Ry     beta=0.70
     Davidson diagonalization with overlap
     ethr =  1.91E-04,  avg # of iterations =  5.0

     negative rho (up, down):  3.729E-06 0.000E+00

     total cpu time spent up to now is        4.4 secs

     total energy              =     -31.49206580 Ry
     Harris-Foulkes estimate   =     -31.49224742 Ry
     estimated scf accuracy    <       0.08461218 Ry

     iteration # 10     ecut=    30.00 Ry     beta=0.70
     Davidson diagonalization with overlap
     ethr =  1.91E-04,  avg # of iterations =  1.0

     negative rho (up, down):  1.314E-05 0.000E+00

     total cpu time spent up to now is        4.4 secs

     total energy              =     -31.48859286 Ry
     Harris-Foulkes estimate   =     -31.49208840 Ry
     estimated scf accuracy    <       0.07898184 Ry

     iteration # 11     ecut=    30.00 Ry     beta=0.70
     Davidson diagonalization with overlap
     ethr =  1.91E-04,  avg # of iterations =  1.0

     total cpu time spent up to now is        4.4 secs

     total energy              =     -31.48970653 Ry
     Harris-Foulkes estimate   =     -31.49291131 Ry
     estimated scf accuracy    <       0.21778735 Ry

     iteration # 12     ecut=    30.00 Ry     beta=0.70
     Davidson diagonalization with overlap
     ethr =  1.91E-04,  avg # of iterations =  1.0

     negative rho (up, down):  9.223E-07 0.000E+00

     total cpu time spent up to now is        4.5 secs

     total energy              =     -31.49089803 Ry
     Harris-Foulkes estimate   =     -31.49325358 Ry
     estimated scf accuracy    <       0.13176443 Ry

     iteration # 13     ecut=    30.00 Ry     beta=0.70
     Davidson diagonalization with overlap
     ethr =  1.91E-04,  avg # of iterations =  1.0

     negative rho (up, down):  5.355E-07 0.000E+00

     total cpu time spent up to now is        4.5 secs

     total energy              =     -31.49115302 Ry
     Harris-Foulkes estimate   =     -31.49142273 Ry
     estimated scf accuracy    <       0.03892083 Ry

     iteration # 14     ecut=    30.00 Ry     beta=0.70
     Davidson diagonalization with overlap
     ethr =  1.91E-04,  avg # of iterations =  1.0

     negative rho (up, down):  1.240E-08 0.000E+00

     total cpu time spent up to now is        4.5 secs

     total energy              =     -31.49136719 Ry
     Harris-Foulkes estimate   =     -31.49239862 Ry
     estimated scf accuracy    <       0.13968825 Ry

     iteration # 15     ecut=    30.00 Ry     beta=0.70
     Davidson diagonalization with overlap
     ethr =  1.91E-04,  avg # of iterations =  1.0

     negative rho (up, down):  2.031E-08 0.000E+00

     total cpu time spent up to now is        4.6 secs

     total energy              =     -31.49048713 Ry
     Harris-Foulkes estimate   =     -31.49152601 Ry
     estimated scf accuracy    <       0.06774504 Ry

     iteration # 16     ecut=    30.00 Ry     beta=0.70
     Davidson diagonalization with overlap
     ethr =  1.91E-04,  avg # of iterations =  1.0

     total cpu time spent up to now is        4.6 secs

     total energy              =     -31.49060931 Ry
     Harris-Foulkes estimate   =     -31.49082974 Ry
     estimated scf accuracy    <       0.00734722 Ry

     iteration # 17     ecut=    30.00 Ry     beta=0.70
     Davidson diagonalization with overlap
     ethr =  9.18E-05,  avg # of iterations =  1.0

     total cpu time spent up to now is        4.7 secs

     total energy              =     -31.49073397 Ry
     Harris-Foulkes estimate   =     -31.49073417 Ry
     estimated scf accuracy    <       0.00018269 Ry

     iteration # 18     ecut=    30.00 Ry     beta=0.70
     Davidson diagonalization with overlap
     ethr =  2.28E-06,  avg # of iterations =  7.0

     negative rho (up, down):  3.292E-06 0.000E+00

     total cpu time spent up to now is        4.7 secs

     total energy              =     -31.49072221 Ry
     Harris-Foulkes estimate   =     -31.49073403 Ry
     estimated scf accuracy    <       0.00020338 Ry

     iteration # 19     ecut=    30.00 Ry     beta=0.70
     Davidson diagonalization with overlap
     ethr =  2.28E-06,  avg # of iterations =  1.0

     negative rho (up, down):  5.757E-08 0.000E+00

     total cpu time spent up to now is        4.7 secs

     total energy              =     -31.49072995 Ry
     Harris-Foulkes estimate   =     -31.49072497 Ry
     estimated scf accuracy    <       0.00002954 Ry

     iteration # 20     ecut=    30.00 Ry     beta=0.70
     Davidson diagonalization with overlap
     ethr =  3.69E-07,  avg # of iterations =  1.0

     negative rho (up, down):  1.724E-07 0.000E+00

     total cpu time spent up to now is        4.8 secs

     total energy              =     -31.49073184 Ry
     Harris-Foulkes estimate   =     -31.49073095 Ry
     estimated scf accuracy    <       0.00007286 Ry

     iteration # 21     ecut=    30.00 Ry     beta=0.70
     Davidson diagonalization with overlap
     ethr =  3.69E-07,  avg # of iterations =  1.0

     total cpu time spent up to now is        4.8 secs

     total energy              =     -31.49073155 Ry
     Harris-Foulkes estimate   =     -31.49073367 Ry
     estimated scf accuracy    <       0.00002412 Ry

     iteration # 22     ecut=    30.00 Ry     beta=0.70
     Davidson diagonalization with overlap
     ethr =  3.01E-07,  avg # of iterations =  1.0

     total cpu time spent up to now is        4.8 secs

     total energy              =     -31.49073091 Ry
     Harris-Foulkes estimate   =     -31.49073177 Ry
     estimated scf accuracy    <       0.00000098 Ry

     iteration # 23     ecut=    30.00 Ry     beta=0.70
     Davidson diagonalization with overlap
     ethr =  1.22E-08,  avg # of iterations =  1.0

     total cpu time spent up to now is        4.9 secs

     total energy              =     -31.49073090 Ry
     Harris-Foulkes estimate   =     -31.49073094 Ry
     estimated scf accuracy    <       0.00000002 Ry

     iteration # 24     ecut=    30.00 Ry     beta=0.70
     Davidson diagonalization with overlap
     ethr =  2.93E-10,  avg # of iterations =  1.0

     total cpu time spent up to now is        4.9 secs

     End of self-consistent calculation

          k = 0.0000 0.0000 0.0000 ( 22119 PWs)   bands (ev):

   -23.5989  -7.0150  -7.0120  -7.0113  -6.9125  -6.8983  -0.2309   0.5852

     the Fermi energy is    -6.8772 ev

!    total energy              =     -31.49073076 Ry
     Harris-Foulkes estimate   =     -31.49073090 Ry
     estimated scf accuracy    <          1.5E-09 Ry

     convergence has been achieved in  24 iterations

     Forces acting on atoms (Ry/au):

     atom    1 type  1   force =     0.00028195    0.00003778    0.00005063
     atom    2 type  1   force =     0.00035453    0.00027632   -0.00011455
     atom    3 type  2   force =    -0.00063648   -0.00031410    0.00006392

     Total force =     0.000898     Total SCF correction =     0.000140
     SCF correction compared to forces is large: reduce conv_thr to get better values

     Entering Dynamics:    iteration =     3
                           time      =   0.0145 pico-seconds


     Andersen thermostat:    3 collisions

ATOMIC_POSITIONS (bohr)
H        3.566816792  14.124667832  13.784019691
H       17.066807612  16.585716514   2.777897999
O        1.308214331   5.183252594  17.909902286


     kinetic energy (Ekin) =     0.02562894 Ry
     temperature           =  1348.82817197 K 
     Ekin + Etot (const)   =   -31.46510182 Ry
     Message from routine dynamics:
     Total linear momentum <> 0

     Linear momentum :   -0.2244720975   -0.2285272965    0.0066161688

     Writing output data file pwscf.save

     second order wave-functions extrapolation
     Check: negative starting charge=   -0.348534
     second order charge density extrapolation
     Check: negative starting charge=   -0.349928

     negative rho (up, down):  6.355E-02 0.000E+00

     total cpu time spent up to now is        5.2 secs

     per-process dynamical memory:    20.4 Mb

     Self-consistent Calculation

     iteration #  1     ecut=    30.00 Ry     beta=0.70
     Davidson diagonalization with overlap
     c_bands:  1 eigenvalues not converged
     ethr =  1.00E-06,  avg # of iterations = 20.0

     negative rho (up, down):  1.384E-02 0.000E+00

     total cpu time spent up to now is        5.3 secs

     total energy              =     -31.43212413 Ry
     Harris-Foulkes estimate   =     -31.43806364 Ry
     estimated scf accuracy    <       0.05701338 Ry

     iteration #  2     ecut=    30.00 Ry     beta=0.70
     Davidson diagonalization with overlap
     ethr =  7.13E-04,  avg # of iterations =  2.0

     negative rho (up, down):  1.255E-02 0.000E+00

     total cpu time spent up to now is        5.3 secs

     total energy              =     -31.48972269 Ry
     Harris-Foulkes estimate   =     -32.02355680 Ry
     estimated scf accuracy    <       4.43059070 Ry

     iteration #  3     ecut=    30.00 Ry     beta=0.70
     Davidson diagonalization with overlap
     ethr =  7.13E-04,  avg # of iterations =  2.0

     negative rho (up, down):  1.229E-02 0.000E+00

     total cpu time spent up to now is        5.4 secs

     total energy              =     -31.48142271 Ry
     Harris-Foulkes estimate   =     -31.50784632 Ry
     estimated scf accuracy    <       1.47135732 Ry

     iteration #  4     ecut=    30.00 Ry     beta=0.70
     Davidson diagonalization with overlap
     ethr =  7.13E-04,  avg # of iterations =  1.0

     negative rho (up, down):  9.154E-03 0.000E+00

     total cpu time spent up to now is        5.4 secs

     total energy              =     -31.40927824 Ry
     Harris-Foulkes estimate   =     -31.48935122 Ry
     estimated scf accuracy    <       1.14881915 Ry

     iteration #  5     ecut=    30.00 Ry     beta=0.70
     Davidson diagonalization with overlap
     ethr =  7.13E-04,  avg # of iterations =  1.0

     negative rho (up, down):  2.568E-03 0.000E+00

     total cpu time spent up to now is        5.4 secs

     total energy              =     -31.44540002 Ry
     Harris-Foulkes estimate   =     -31.54694616 Ry
     estimated scf accuracy    <       2.66675530 Ry

     iteration #  6     ecut=    30.00 Ry     beta=0.70
     Davidson diagonalization with overlap
     ethr =  7.13E-04,  avg # of iterations =  1.0

     negative rho (up, down):  7.421E-04 0.000E+00

     total cpu time spent up to now is        5.5 secs

     total energy              =     -31.48753471 Ry
     Harris-Foulkes estimate   =     -31.49046574 Ry
     estimated scf accuracy    <       0.17952008 Ry

     iteration #  7     ecut=    30.00 Ry     beta=0.70
     Davidson diagonalization with overlap
     ethr =  7.13E-04,  avg # of iterations =  1.0

     negative rho (up, down):  2.575E-04 0.000E+00

     total cpu time spent up to now is        5.5 secs

     total energy              =     -31.49171378 Ry
     Harris-Foulkes estimate   =     -31.49094954 Ry
     estimated scf accuracy    <       0.03405229 Ry

     iteration #  8     ecut=    30.00 Ry     beta=0.70
     Davidson diagonalization with overlap
     ethr =  4.26E-04,  avg # of iterations =  1.0

     negative rho (up, down):  1.744E-06 0.000E+00

     total cpu time spent up to now is        5.5 secs

     total energy              =     -31.48792289 Ry
     Harris-Foulkes estimate   =     -31.49210596 Ry
     estimated scf accuracy    <       0.14196117 Ry

     iteration #  9     ecut=    30.00 Ry     beta=0.70
     Davidson diagonalization with overlap
     ethr =  4.26E-04,  avg # of iterations =  1.0

     total cpu time spent up to now is        5.5 secs

     total energy              =     -31.49102609 Ry
     Harris-Foulkes estimate   =     -31.49115564 Ry
     estimated scf accuracy    <       0.04358949 Ry

     iteration # 10     ecut=    30.00 Ry     beta=0.70
     Davidson diagonalization with overlap
     ethr =  4.26E-04,  avg # of iterations =  1.0

     total cpu time spent up to now is        5.6 secs

     total energy              =     -31.49052364 Ry
     Harris-Foulkes estimate   =     -31.49104946 Ry
     estimated scf accuracy    <       0.03529128 Ry

     iteration # 11     ecut=    30.00 Ry     beta=0.70
     Davidson diagonalization with overlap
     ethr =  4.26E-04,  avg # of iterations =  1.0

     total cpu time spent up to now is        5.6 secs

     total energy              =     -31.49068729 Ry
     Harris-Foulkes estimate   =     -31.49073206 Ry
     estimated scf accuracy    <       0.00143820 Ry

     iteration # 12     ecut=    30.00 Ry     beta=0.70
     Davidson diagonalization with overlap
     ethr =  1.80E-05,  avg # of iterations =  9.0

     total cpu time spent up to now is        5.7 secs

     total energy              =     -31.49070272 Ry
     Harris-Foulkes estimate   =     -31.49072364 Ry
     estimated scf accuracy    <       0.00057525 Ry

     iteration # 13     ecut=    30.00 Ry     beta=0.70
     Davidson diagonalization with overlap
     ethr =  7.19E-06,  avg # of iterations =  1.0

     total cpu time spent up to now is        5.7 secs

     total energy              =     -31.49071001 Ry
     Harris-Foulkes estimate   =     -31.49072368 Ry
     estimated scf accuracy    <       0.00053106 Ry

     iteration # 14     ecut=    30.00 Ry     beta=0.70
     Davidson diagonalization with overlap
     ethr =  6.64E-06,  avg # of iterations =  1.0

     total cpu time spent up to now is        5.7 secs

     total energy              =     -31.49071807 Ry
     Harris-Foulkes estimate   =     -31.49071928 Ry
     estimated scf accuracy    <       0.00006762 Ry

     iteration # 15     ecut=    30.00 Ry     beta=0.70
     Davidson diagonalization with overlap
     ethr =  8.45E-07,  avg # of iterations =  1.0

     total cpu time spent up to now is        5.8 secs

     total energy              =     -31.49071855 Ry
     Harris-Foulkes estimate   =     -31.49071867 Ry
     estimated scf accuracy    <       0.00000006 Ry

     iteration # 16     ecut=    30.00 Ry     beta=0.70
     Davidson diagonalization with overlap
     ethr =  7.78E-10,  avg # of iterations =  1.0

     total cpu time spent up to now is        5.8 secs

     End of self-consistent calculation

          k = 0.0000 0.0000 0.0000 ( 22119 PWs)   bands (ev):

   -23.5994  -7.0149  -7.0123  -7.0117  -6.9121  -6.9002  -0.2336   0.5762

     the Fermi energy is    -6.8776 ev

!    total energy              =     -31.49071851 Ry
     Harris-Foulkes estimate   =     -31.49071855 Ry
     estimated scf accuracy    <          1.5E-09 Ry

     convergence has been achieved in  16 iterations

     Forces acting on atoms (Ry/au):

     atom    1 type  1   force =     0.00021333    0.00013291    0.00007862
     atom    2 type  1   force =     0.00029909    0.00031192   -0.00010177
     atom    3 type  2   force =    -0.00051242   -0.00044483    0.00002315

     Total force =     0.000853     Total SCF correction =     0.000105
     SCF correction compared to forces is large: reduce conv_thr to get better values

     Entering Dynamics:    iteration =     4
                           time      =   0.0194 pico-seconds


     Andersen thermostat:    3 collisions

ATOMIC_POSITIONS (bohr)
H        3.570553821  13.747291497  13.817645577
H       17.435298916  16.500609707   3.001720077
O        1.284717417   5.212446843  17.893650883


     kinetic energy (Ekin) =     0.02146385 Ry
     temperature           =  1129.62347775 K 
     Ekin + Etot (const)   =   -31.46925466 Ry
     Message from routine dynamics:
     Total linear momentum <> 0

     Linear momentum :   -0.3933570066   -0.4273695947   -0.2307173944

     Writing output data file pwscf.save

     second order wave-functions extrapolation
     Check: negative starting charge=   -0.349928
     second order charge density extrapolation
     Check: negative starting charge=   -0.349236

     negative rho (up, down):  4.130E-02 0.000E+00

     total cpu time spent up to now is        6.2 secs

     per-process dynamical memory:    20.4 Mb

     Self-consistent Calculation

     iteration #  1     ecut=    30.00 Ry     beta=0.70
     Davidson diagonalization with overlap
     c_bands:  1 eigenvalues not converged
     ethr =  1.00E-06,  avg # of iterations = 20.0

     negative rho (up, down):  9.012E-03 0.000E+00

     total cpu time spent up to now is        6.3 secs

     total energy              =     -31.46620570 Ry
     Harris-Foulkes estimate   =     -31.44677422 Ry
     estimated scf accuracy    <       0.01854937 Ry

     iteration #  2     ecut=    30.00 Ry     beta=0.70
     Davidson diagonalization with overlap
     ethr =  2.32E-04,  avg # of iterations =  2.0

     negative rho (up, down):  8.492E-03 0.000E+00

     total cpu time spent up to now is        6.3 secs

     total energy              =     -31.47406330 Ry
     Harris-Foulkes estimate   =     -31.78069012 Ry
     estimated scf accuracy    <       4.02088119 Ry

     iteration #  3     ecut=    30.00 Ry     beta=0.70
     Davidson diagonalization with overlap
     ethr =  2.32E-04,  avg # of iterations =  2.0

     negative rho (up, down):  8.309E-03 0.000E+00

     total cpu time spent up to now is        6.3 secs

     total energy              =     -31.48121905 Ry
     Harris-Foulkes estimate   =     -31.48877245 Ry
     estimated scf accuracy    <       0.52594115 Ry

     iteration #  4     ecut=    30.00 Ry     beta=0.70
     Davidson diagonalization with overlap
     ethr =  2.32E-04,  avg # of iterations =  1.0

     negative rho (up, down):  3.213E-03 0.000E+00

     total cpu time spent up to now is        6.3 secs

     total energy              =     -31.46966285 Ry
     Harris-Foulkes estimate   =     -31.48483684 Ry
     estimated scf accuracy    <       0.27510460 Ry

     iteration #  5     ecut=    30.00 Ry     beta=0.70
     Davidson diagonalization with overlap
     ethr =  2.32E-04,  avg # of iterations =  1.0

     negative rho (up, down):  9.784E-04 0.000E+00

     total cpu time spent up to now is        6.4 secs

     total energy              =     -31.46901490 Ry
     Harris-Foulkes estimate   =     -31.51089108 Ry
     estimated scf accuracy    <       1.65437873 Ry

     iteration #  6     ecut=    30.00 Ry     beta=0.70
     Davidson diagonalization with overlap
     ethr =  2.32E-04,  avg # of iterations =  4.0

     negative rho (up, down):  8.626E-05 0.000E+00

     total cpu time spent up to now is        6.4 secs

     total energy              =     -31.48928120 Ry
     Harris-Foulkes estimate   =     -31.49077613 Ry
     estimated scf accuracy    <       0.02801839 Ry

     iteration #  7     ecut=    30.00 Ry     beta=0.70
     Davidson diagonalization with overlap
     ethr =  2.32E-04,  avg # of iterations =  1.0

     negative rho (up, down):  1.086E-05 0.000E+00

     total cpu time spent up to now is        6.4 secs

     total energy              =     -31.49086082 Ry
     Harris-Foulkes estimate   =     -31.49210663 Ry
     estimated scf accuracy    <       0.13847593 Ry

     iteration #  8     ecut=    30.00 Ry     beta=0.70
     Davidson diagonalization with overlap
     ethr =  2.32E-04,  avg # of iterations =  1.0

     negative rho (up, down):  3.109E-08 0.000E+00

     total cpu time spent up to now is        6.5 secs

     total energy              =     -31.48983812 Ry
     Harris-Foulkes estimate   =     -31.49113773 Ry
     estimated scf accuracy    <       0.04219743 Ry

     iteration #  9     ecut=    30.00 Ry     beta=0.70
     Davidson diagonalization with overlap
     ethr =  2.32E-04,  avg # of iterations =  1.0

     negative rho (up, down):  3.285E-08 0.000E+00

     total cpu time spent up to now is        6.5 secs

     total energy              =     -31.49059311 Ry
     Harris-Foulkes estimate   =     -31.49090364 Ry
     estimated scf accuracy    <       0.01762770 Ry

     iteration # 10     ecut=    30.00 Ry     beta=0.70
     Davidson diagonalization with overlap
     ethr =  2.20E-04,  avg # of iterations =  1.0

     total cpu time spent up to now is        6.5 secs

     total energy              =     -31.49072942 Ry
     Harris-Foulkes estimate   =     -31.49073952 Ry
     estimated scf accuracy    <       0.00005785 Ry

     iteration # 11     ecut=    30.00 Ry     beta=0.70
     Davidson diagonalization with overlap
     ethr =  7.23E-07,  avg # of iterations =  8.0

     total cpu time spent up to now is        6.6 secs

     total energy              =     -31.49069428 Ry
     Harris-Foulkes estimate   =     -31.49078034 Ry
     estimated scf accuracy    <       0.00435666 Ry

     iteration # 12     ecut=    30.00 Ry     beta=0.70
     Davidson diagonalization with overlap
     ethr =  7.23E-07,  avg # of iterations =  1.0

     total cpu time spent up to now is        6.6 secs

     total energy              =     -31.49073810 Ry
     Harris-Foulkes estimate   =     -31.49073832 Ry
     estimated scf accuracy    <       0.00000576 Ry

     iteration # 13     ecut=    30.00 Ry     beta=0.70
     Davidson diagonalization with overlap
     ethr =  7.20E-08,  avg # of iterations =  1.0

     total cpu time spent up to now is        6.7 secs

     total energy              =     -31.49073799 Ry
     Harris-Foulkes estimate   =     -31.49073824 Ry
     estimated scf accuracy    <       0.00000148 Ry

     iteration # 14     ecut=    30.00 Ry     beta=0.70
     Davidson diagonalization with overlap
     ethr =  1.85E-08,  avg # of iterations =  1.0

     total cpu time spent up to now is        6.7 secs

     total energy              =     -31.49073800 Ry
     Harris-Foulkes estimate   =     -31.49073800 Ry
     estimated scf accuracy    <       0.00000010 Ry

     iteration # 15     ecut=    30.00 Ry     beta=0.70
     Davidson diagonalization with overlap
     ethr =  1.25E-09,  avg # of iterations =  1.0

     total cpu time spent up to now is        6.7 secs

     End of self-consistent calculation

          k = 0.0000 0.0000 0.0000 ( 22119 PWs)   bands (ev):

   -23.5989  -7.0147  -7.0120  -7.0116  -6.9120  -6.8996  -0.2316   0.5732

     the Fermi energy is    -6.8773 ev

!    total energy              =     -31.49073800 Ry
     Harris-Foulkes estimate   =     -31.49073800 Ry
     estimated scf accuracy    <          9.4E-09 Ry

     convergence has been achieved in  15 iterations

     Forces acting on atoms (Ry/au):

     atom    1 type  1   force =     0.00017750    0.00011295   -0.00004725
     atom    2 type  1   force =     0.00023010    0.00031489   -0.00022103
     atom    3 type  2   force =    -0.00040760   -0.00042784    0.00026828

     Total force =     0.000818     Total SCF correction =     0.000015

     Entering Dynamics:    iteration =     5
                           time      =   0.0242 pico-seconds


     Andersen thermostat:    3 collisions

ATOMIC_POSITIONS (bohr)
H        3.607614216  13.658699572  14.229438981
H       17.604897485  16.747503614   2.970259040
O        1.271672070   5.202454030  17.869642402


     kinetic energy (Ekin) =     0.01464716 Ry
     temperature           =   770.86712404 K 
     Ekin + Etot (const)   =   -31.47609083 Ry
     Message from routine dynamics:
     Total linear momentum <> 0

     Linear momentum :   -0.2550156399   -0.2448957845   -0.1126651009

     Writing output data file pwscf.save

     second order wave-functions extrapolation
     Check: negative starting charge=   -0.349236
     second order charge density extrapolation
     Check: negative starting charge=   -0.348716

     negative rho (up, down):  5.773E-02 0.000E+00

     total cpu time spent up to now is        7.0 secs

     per-process dynamical memory:    20.4 Mb

     Self-consistent Calculation

     iteration #  1     ecut=    30.00 Ry     beta=0.70
     Davidson diagonalization with overlap
     c_bands:  1 eigenvalues not converged
     ethr =  1.00E-06,  avg # of iterations = 20.0

     negative rho (up, down):  1.288E-02 0.000E+00

     total cpu time spent up to now is        7.1 secs

     total energy              =     -31.43178233 Ry
     Harris-Foulkes estimate   =     -31.43847907 Ry
     estimated scf accuracy    <       0.05764836 Ry

     iteration #  2     ecut=    30.00 Ry     beta=0.70
     Davidson diagonalization with overlap
     ethr =  7.21E-04,  avg # of iterations =  2.0

     negative rho (up, down):  1.169E-02 0.000E+00

     total cpu time spent up to now is        7.1 secs

     total energy              =     -31.49422182 Ry
     Harris-Foulkes estimate   =     -32.03378883 Ry
     estimated scf accuracy    <       4.43737216 Ry

     iteration #  3     ecut=    30.00 Ry     beta=0.70
     Davidson diagonalization with overlap
     ethr =  7.21E-04,  avg # of iterations =  2.0

     negative rho (up, down):  1.149E-02 0.000E+00

     total cpu time spent up to now is        7.2 secs

     total energy              =     -31.48543298 Ry
     Harris-Foulkes estimate   =     -31.50744472 Ry
     estimated scf accuracy    <       1.66900300 Ry

     iteration #  4     ecut=    30.00 Ry     beta=0.70
     Davidson diagonalization with overlap
     ethr =  7.21E-04,  avg # of iterations =  1.0

     negative rho (up, down):  9.422E-03 0.000E+00

     total cpu time spent up to now is        7.2 secs

     total energy              =     -31.42441688 Ry
     Harris-Foulkes estimate   =     -31.49140876 Ry
     estimated scf accuracy    <       1.26816840 Ry

     iteration #  5     ecut=    30.00 Ry     beta=0.70
     Davidson diagonalization with overlap
     ethr =  7.21E-04,  avg # of iterations =  1.0

     negative rho (up, down):  2.218E-03 0.000E+00

     total cpu time spent up to now is        7.2 secs

     total energy              =     -31.46099543 Ry
     Harris-Foulkes estimate   =     -31.51823043 Ry
     estimated scf accuracy    <       2.19209812 Ry

     iteration #  6     ecut=    30.00 Ry     beta=0.70
     Davidson diagonalization with overlap
     ethr =  7.21E-04,  avg # of iterations =  1.0

     negative rho (up, down):  5.463E-04 0.000E+00

     total cpu time spent up to now is        7.3 secs

     total energy              =     -31.49027857 Ry
     Harris-Foulkes estimate   =     -31.48961350 Ry
     estimated scf accuracy    <       0.02131911 Ry

     iteration #  7     ecut=    30.00 Ry     beta=0.70
     Davidson diagonalization with overlap
     ethr =  2.66E-04,  avg # of iterations =  3.0

     negative rho (up, down):  1.855E-04 0.000E+00

     total cpu time spent up to now is        7.3 secs

     total energy              =     -31.49125607 Ry
     Harris-Foulkes estimate   =     -31.49090802 Ry
     estimated scf accuracy    <       0.01187052 Ry

     iteration #  8     ecut=    30.00 Ry     beta=0.70
     Davidson diagonalization with overlap
     ethr =  1.48E-04,  avg # of iterations =  1.0

     negative rho (up, down):  3.150E-07 0.000E+00

     total cpu time spent up to now is        7.3 secs

     total energy              =     -31.49090311 Ry
     Harris-Foulkes estimate   =     -31.49151493 Ry
     estimated scf accuracy    <       0.07286215 Ry

     iteration #  9     ecut=    30.00 Ry     beta=0.70
     Davidson diagonalization with overlap
     ethr =  1.48E-04,  avg # of iterations =  1.0

     total cpu time spent up to now is        7.4 secs

     total energy              =     -31.49042802 Ry
     Harris-Foulkes estimate   =     -31.49104456 Ry
     estimated scf accuracy    <       0.02327594 Ry

     iteration # 10     ecut=    30.00 Ry     beta=0.70
     Davidson diagonalization with overlap
     ethr =  1.48E-04,  avg # of iterations =  1.0

     total cpu time spent up to now is        7.4 secs

     total energy              =     -31.49086527 Ry
     Harris-Foulkes estimate   =     -31.49085970 Ry
     estimated scf accuracy    <       0.00392188 Ry

     iteration # 11     ecut=    30.00 Ry     beta=0.70
     Davidson diagonalization with overlap
     ethr =  4.90E-05,  avg # of iterations =  1.0

     total cpu time spent up to now is        7.4 secs

     total energy              =     -31.49080326 Ry
     Harris-Foulkes estimate   =     -31.49086602 Ry
     estimated scf accuracy    <       0.00467830 Ry

     iteration # 12     ecut=    30.00 Ry     beta=0.70
     Davidson diagonalization with overlap
     ethr =  4.90E-05,  avg # of iterations =  1.0

     total cpu time spent up to now is        7.5 secs

     total energy              =     -31.49081551 Ry
     Harris-Foulkes estimate   =     -31.49082538 Ry
     estimated scf accuracy    <       0.00039675 Ry

     iteration # 13     ecut=    30.00 Ry     beta=0.70
     Davidson diagonalization with overlap
     ethr =  4.96E-06,  avg # of iterations =  9.0

     total cpu time spent up to now is        7.5 secs

     total energy              =     -31.49082108 Ry
     Harris-Foulkes estimate   =     -31.49082152 Ry
     estimated scf accuracy    <       0.00002759 Ry

     iteration # 14     ecut=    30.00 Ry     beta=0.70
     Davidson diagonalization with overlap
     ethr =  3.45E-07,  avg # of iterations =  1.0

     total cpu time spent up to now is        7.5 secs

     total energy              =     -31.49082107 Ry
     Harris-Foulkes estimate   =     -31.49082120 Ry
     estimated scf accuracy    <       0.00000296 Ry

     iteration # 15     ecut=    30.00 Ry     beta=0.70
     Davidson diagonalization with overlap
     ethr =  3.70E-08,  avg # of iterations =  1.0

     total cpu time spent up to now is        7.6 secs

     End of self-consistent calculation

          k = 0.0000 0.0000 0.0000 ( 22119 PWs)   bands (ev):

   -23.5973  -7.0145  -7.0109  -7.0105  -6.9119  -6.8965  -0.2279   0.5815

     the Fermi energy is    -6.8762 ev

!    total energy              =     -31.49082115 Ry
     Harris-Foulkes estimate   =     -31.49082110 Ry
     estimated scf accuracy    <          8.4E-09 Ry

     convergence has been achieved in  15 iterations

     Forces acting on atoms (Ry/au):

     atom    1 type  1   force =     0.00012617    0.00021091    0.00001948
     atom    2 type  1   force =     0.00022287    0.00053987   -0.00019869
     atom    3 type  2   force =    -0.00034904   -0.00075078    0.00017921

     Total force =     0.001077     Total SCF correction =     0.000628
     SCF correction compared to forces is large: reduce conv_thr to get better values

     Entering Dynamics:    iteration =     6
                           time      =   0.0290 pico-seconds


     Andersen thermostat:    3 collisions

ATOMIC_POSITIONS (bohr)
H        3.608669469  13.701120243  13.907718469
H       17.535746566  16.672619158   3.015009302
O        1.275970609   5.204503307  17.887126149


     kinetic energy (Ekin) =     0.00856636 Ry
     temperature           =   450.83990442 K 
     Ekin + Etot (const)   =   -31.48225479 Ry
     Message from routine dynamics:
     Total linear momentum <> 0

     Linear momentum :    0.0488206584   -0.4232879802   -0.2340728643

     Writing output data file pwscf.save

     second order wave-functions extrapolation
     Check: negative starting charge=   -0.348716
     second order charge density extrapolation
     Check: negative starting charge=   -0.349254

     negative rho (up, down):  1.248E-02 0.000E+00

     total cpu time spent up to now is        7.9 secs

     per-process dynamical memory:    20.4 Mb

     Self-consistent Calculation

     iteration #  1     ecut=    30.00 Ry     beta=0.70
     Davidson diagonalization with overlap
     ethr =  1.00E-06,  avg # of iterations = 18.0

     negative rho (up, down):  2.442E-03 0.000E+00

     total cpu time spent up to now is        8.0 secs

     total energy              =     -31.48703371 Ry
     Harris-Foulkes estimate   =     -31.47861892 Ry
     estimated scf accuracy    <       0.00239795 Ry

     iteration #  2     ecut=    30.00 Ry     beta=0.70
     Davidson diagonalization with overlap
     ethr =  3.00E-05,  avg # of iterations = 10.0

     negative rho (up, down):  2.388E-03 0.000E+00

     total cpu time spent up to now is        8.0 secs

     total energy              =     -31.44516737 Ry
     Harris-Foulkes estimate   =     -31.57336001 Ry
     estimated scf accuracy    <       4.77153144 Ry

     iteration #  3     ecut=    30.00 Ry     beta=0.70
     Davidson diagonalization with overlap
     ethr =  3.00E-05,  avg # of iterations =  2.0

     negative rho (up, down):  2.268E-03 0.000E+00

     total cpu time spent up to now is        8.0 secs

     total energy              =     -31.48912534 Ry
     Harris-Foulkes estimate   =     -31.48915345 Ry
     estimated scf accuracy    <       0.00440651 Ry

     iteration #  4     ecut=    30.00 Ry     beta=0.70
     Davidson diagonalization with overlap
     ethr =  3.00E-05,  avg # of iterations =  1.0

     negative rho (up, down):  6.151E-04 0.000E+00

     total cpu time spent up to now is        8.1 secs

     total energy              =     -31.49066521 Ry
     Harris-Foulkes estimate   =     -31.48926670 Ry
     estimated scf accuracy    <       0.00284393 Ry

     iteration #  5     ecut=    30.00 Ry     beta=0.70
     Davidson diagonalization with overlap
     ethr =  3.00E-05,  avg # of iterations =  9.0

     negative rho (up, down):  1.216E-04 0.000E+00

     total cpu time spent up to now is        8.1 secs

     total energy              =     -31.49075172 Ry
     Harris-Foulkes estimate   =     -31.49072016 Ry
     estimated scf accuracy    <       0.00004212 Ry

     iteration #  6     ecut=    30.00 Ry     beta=0.70
     Davidson diagonalization with overlap
     ethr =  5.26E-07,  avg # of iterations =  7.0

     negative rho (up, down):  4.955E-08 0.000E+00

     total cpu time spent up to now is        8.2 secs

     total energy              =     -31.49076780 Ry
     Harris-Foulkes estimate   =     -31.49075708 Ry
     estimated scf accuracy    <       0.00012950 Ry

     iteration #  7     ecut=    30.00 Ry     beta=0.70
     Davidson diagonalization with overlap
     ethr =  5.26E-07,  avg # of iterations =  2.0

     total cpu time spent up to now is        8.2 secs

     total energy              =     -31.49077183 Ry
     Harris-Foulkes estimate   =     -31.49077090 Ry
     estimated scf accuracy    <       0.00002440 Ry

     iteration #  8     ecut=    30.00 Ry     beta=0.70
     Davidson diagonalization with overlap
     ethr =  3.05E-07,  avg # of iterations =  1.0

     total cpu time spent up to now is        8.2 secs

     total energy              =     -31.49077263 Ry
     Harris-Foulkes estimate   =     -31.49077262 Ry
     estimated scf accuracy    <       0.00001615 Ry

     iteration #  9     ecut=    30.00 Ry     beta=0.70
     Davidson diagonalization with overlap
     ethr =  2.02E-07,  avg # of iterations =  1.0

     total cpu time spent up to now is        8.3 secs

     total energy              =     -31.49077268 Ry
     Harris-Foulkes estimate   =     -31.49077269 Ry
     estimated scf accuracy    <       0.00000262 Ry

     iteration # 10     ecut=    30.00 Ry     beta=0.70
     Davidson diagonalization with overlap
     ethr =  3.27E-08,  avg # of iterations =  1.0

     total cpu time spent up to now is        8.3 secs

     total energy              =     -31.49077266 Ry
     Harris-Foulkes estimate   =     -31.49077271 Ry
     estimated scf accuracy    <       0.00000010 Ry

     iteration # 11     ecut=    30.00 Ry     beta=0.70
     Davidson diagonalization with overlap
     ethr =  1.25E-09,  avg # of iterations =  1.0

     total cpu time spent up to now is        8.3 secs

     End of self-consistent calculation

          k = 0.0000 0.0000 0.0000 ( 22119 PWs)   bands (ev):

   -23.5979  -7.0141  -7.0112  -7.0108  -6.9111  -6.8986  -0.2304   0.5755

     the Fermi energy is    -6.8765 ev

!    total energy              =     -31.49077258 Ry
     Harris-Foulkes estimate   =     -31.49077267 Ry
     estimated scf accuracy    <          4.2E-09 Ry

     convergence has been achieved in  11 iterations

     Forces acting on atoms (Ry/au):

     atom    1 type  1   force =     0.00014198    0.00012436   -0.00006352
     atom    2 type  1   force =     0.00020799    0.00036936   -0.00025965
     atom    3 type  2   force =    -0.00034997   -0.00049372    0.00032317

     Total force =     0.000870     Total SCF correction =     0.000101
     SCF correction compared to forces is large: reduce conv_thr to get better values

     Entering Dynamics:    iteration =     7
                           time      =   0.0339 pico-seconds


     Andersen thermostat:    3 collisions

ATOMIC_POSITIONS (bohr)
H        3.050022124  13.588633200  14.271970316
H       17.571416505  16.932527774   3.376677374
O        1.308983558   5.195197320  17.841302455


     kinetic energy (Ekin) =     0.03417507 Ry
     temperature           =  1798.60358321 K 
     Ekin + Etot (const)   =   -31.45659750 Ry
     Message from routine dynamics:
     Total linear momentum <> 0

     Linear momentum :   -0.1722570082    0.2771258250   -0.1223543562

     Writing output data file pwscf.save

     second order wave-functions extrapolation
     Check: negative starting charge=   -0.349254
     second order charge density extrapolation
     Check: negative starting charge=   -0.347692

     negative rho (up, down):  9.423E-02 0.000E+00

     total cpu time spent up to now is        8.7 secs

     per-process dynamical memory:    20.4 Mb

     Self-consistent Calculation

     iteration #  1     ecut=    30.00 Ry     beta=0.70
     Davidson diagonalization with overlap
     ethr =  1.00E-06,  avg # of iterations = 16.0

     negative rho (up, down):  2.219E-02 0.000E+00

     total cpu time spent up to now is        8.8 secs

     total energy              =     -31.42922121 Ry
     Harris-Foulkes estimate   =     -31.42347995 Ry
     estimated scf accuracy    <       0.05185949 Ry

     iteration #  2     ecut=    30.00 Ry     beta=0.70
     Davidson diagonalization with overlap
     ethr =  6.48E-04,  avg # of iterations =  2.0

     negative rho (up, down):  2.031E-02 0.000E+00

     total cpu time spent up to now is        8.8 secs

     total energy              =     -31.47901237 Ry
     Harris-Foulkes estimate   =     -31.98361775 Ry
     estimated scf accuracy    <       4.36920555 Ry

     iteration #  3     ecut=    30.00 Ry     beta=0.70
     Davidson diagonalization with overlap
     ethr =  6.48E-04,  avg # of iterations =  2.0

     negative rho (up, down):  1.955E-02 0.000E+00

[...]

     negative rho (up, down):  3.512E-02 0.000E+00

     total cpu time spent up to now is       17.6 secs

     total energy              =     -31.00399740 Ry
     Harris-Foulkes estimate   =     -31.86282745 Ry
     estimated scf accuracy    <       1.71711166 Ry

     iteration # 56     ecut=    30.00 Ry     beta=0.70
     Davidson diagonalization with overlap
     ethr =  3.54E-03,  avg # of iterations =  4.0

     negative rho (up, down):  7.371E-04 0.000E+00

     total cpu time spent up to now is       17.6 secs

     total energy              =     -31.78282493 Ry
     Harris-Foulkes estimate   =     -32.35911215 Ry
     estimated scf accuracy    <       2.43158647 Ry

     iteration # 57     ecut=    30.00 Ry     beta=0.70
     Davidson diagonalization with overlap
     ethr =  3.54E-03,  avg # of iterations =  2.0

     total cpu time spent up to now is       17.7 secs

     total energy              =     -31.51101550 Ry
     Harris-Foulkes estimate   =     -31.80344858 Ry
     estimated scf accuracy    <       1.40183809 Ry

     iteration # 58     ecut=    30.00 Ry     beta=0.70
     Davidson diagonalization with overlap
     ethr =  3.54E-03,  avg # of iterations =  1.0

     negative rho (up, down):  2.376E-08 0.000E+00

     total cpu time spent up to now is       17.7 secs

     total energy              =     -31.49209980 Ry
     Harris-Foulkes estimate   =     -31.51678153 Ry
     estimated scf accuracy    <       1.16027622 Ry

     iteration # 59     ecut=    30.00 Ry     beta=0.70
     Davidson diagonalization with overlap
     ethr =  3.54E-03,  avg # of iterations =  1.0

     negative rho (up, down):  6.458E-07 0.000E+00

     total cpu time spent up to now is       17.7 secs

     total energy              =     -31.53875079 Ry
     Harris-Foulkes estimate   =     -31.49758121 Ry
     estimated scf accuracy    <       0.27959225 Ry

     iteration # 60     ecut=    30.00 Ry     beta=0.70
     Davidson diagonalization with overlap
     ethr =  3.49E-03,  avg # of iterations =  1.0

     negative rho (up, down):  2.625E-03 0.000E+00

     total cpu time spent up to now is       17.8 secs

     total energy              =     -31.75490045 Ry
     Harris-Foulkes estimate   =     -31.57538798 Ry
     estimated scf accuracy    <       1.09470925 Ry

     iteration # 61     ecut=    30.00 Ry     beta=0.70
     Davidson diagonalization with overlap
     ethr =  3.49E-03,  avg # of iterations =  1.0

     negative rho (up, down):  1.269E-02 0.000E+00

     total cpu time spent up to now is       17.8 secs

     total energy              =     -31.77654443 Ry
     Harris-Foulkes estimate   =     -31.75848158 Ry
     estimated scf accuracy    <       1.39955304 Ry

     iteration # 62     ecut=    30.00 Ry     beta=0.70
     Davidson diagonalization with overlap
     ethr =  3.49E-03,  avg # of iterations =  1.0

     negative rho (up, down):  5.408E-02 0.000E+00

     total cpu time spent up to now is       17.8 secs

     total energy              =     -31.93414625 Ry
     Harris-Foulkes estimate   =     -31.77693253 Ry
     estimated scf accuracy    <       1.44925829 Ry

     iteration # 63     ecut=    30.00 Ry     beta=0.70
     Davidson diagonalization with overlap
     ethr =  3.49E-03,  avg # of iterations =  1.0

     negative rho (up, down):  1.746E-06 0.000E+00

     total cpu time spent up to now is       17.9 secs

     total energy              =     -31.47183312 Ry
     Harris-Foulkes estimate   =     -31.93670815 Ry
     estimated scf accuracy    <       1.73413377 Ry

     iteration # 64     ecut=    30.00 Ry     beta=0.70
     Davidson diagonalization with overlap
     ethr =  3.49E-03,  avg # of iterations =  2.0

     negative rho (up, down):  6.508E-06 0.000E+00

     total cpu time spent up to now is       17.9 secs

     total energy              =     -31.46682634 Ry
     Harris-Foulkes estimate   =     -31.49250706 Ry
     estimated scf accuracy    <       0.07040391 Ry

     iteration # 65     ecut=    30.00 Ry     beta=0.70
     Davidson diagonalization with overlap
     ethr =  8.80E-04,  avg # of iterations =  1.0

     negative rho (up, down):  5.694E-06 0.000E+00

     total cpu time spent up to now is       17.9 secs

     total energy              =     -31.78582858 Ry
     Harris-Foulkes estimate   =     -31.56652353 Ry
     estimated scf accuracy    <       0.85879598 Ry

     iteration # 66     ecut=    30.00 Ry     beta=0.70
     Davidson diagonalization with overlap
     ethr =  8.80E-04,  avg # of iterations =  4.0

     negative rho (up, down):  4.939E-06 0.000E+00

     total cpu time spent up to now is       18.0 secs

     total energy              =     -31.78305102 Ry
     Harris-Foulkes estimate   =     -31.78791727 Ry
     estimated scf accuracy    <       1.19698838 Ry

     iteration # 67     ecut=    30.00 Ry     beta=0.70
     Davidson diagonalization with overlap
     ethr =  8.80E-04,  avg # of iterations =  1.0

     total cpu time spent up to now is       18.0 secs

     total energy              =     -31.53853648 Ry
     Harris-Foulkes estimate   =     -31.78313240 Ry
     estimated scf accuracy    <       1.18787795 Ry

     iteration # 68     ecut=    30.00 Ry     beta=0.70
     Davidson diagonalization with overlap
     ethr =  8.80E-04,  avg # of iterations =  1.0

     total cpu time spent up to now is       18.0 secs

     total energy              =     -31.46173430 Ry
     Harris-Foulkes estimate   =     -31.54111442 Ry
     estimated scf accuracy    <       0.77950694 Ry

     iteration # 69     ecut=    30.00 Ry     beta=0.70
     Davidson diagonalization with overlap
     ethr =  8.80E-04,  avg # of iterations =  1.0

     total cpu time spent up to now is       18.1 secs

     total energy              =     -31.48175317 Ry
     Harris-Foulkes estimate   =     -31.50047862 Ry
     estimated scf accuracy    <       0.65305898 Ry

     iteration # 70     ecut=    30.00 Ry     beta=0.70
     Davidson diagonalization with overlap
     ethr =  8.80E-04,  avg # of iterations =  1.0

     total cpu time spent up to now is       18.1 secs

     total energy              =     -31.49428470 Ry
     Harris-Foulkes estimate   =     -31.49210991 Ry
     estimated scf accuracy    <       0.01258523 Ry

     iteration # 71     ecut=    30.00 Ry     beta=0.70
     Davidson diagonalization with overlap
     ethr =  1.57E-04,  avg # of iterations =  1.0

     total cpu time spent up to now is       18.1 secs

     total energy              =     -31.47366835 Ry
     Harris-Foulkes estimate   =     -31.50002834 Ry
     estimated scf accuracy    <       0.42247929 Ry

     iteration # 72     ecut=    30.00 Ry     beta=0.70
     Davidson diagonalization with overlap
     ethr =  1.57E-04,  avg # of iterations =  1.0

     total cpu time spent up to now is       18.2 secs

     total energy              =     -31.40160209 Ry
     Harris-Foulkes estimate   =     -31.49893833 Ry
     estimated scf accuracy    <       0.53349069 Ry

     iteration # 73     ecut=    30.00 Ry     beta=0.70
     Davidson diagonalization with overlap
     ethr =  1.57E-04,  avg # of iterations =  2.0

     total cpu time spent up to now is       18.2 secs

     total energy              =     -31.58334002 Ry
     Harris-Foulkes estimate   =     -31.58922464 Ry
     estimated scf accuracy    <       0.85945708 Ry

     iteration # 74     ecut=    30.00 Ry     beta=0.70
     Davidson diagonalization with overlap
     ethr =  1.57E-04,  avg # of iterations =  1.0

     total cpu time spent up to now is       18.2 secs

     total energy              =     -31.57752812 Ry
     Harris-Foulkes estimate   =     -31.58336576 Ry
     estimated scf accuracy    <       0.85280040 Ry

     iteration # 75     ecut=    30.00 Ry     beta=0.70
     Davidson diagonalization with overlap
     ethr =  1.57E-04,  avg # of iterations =  1.0

     total cpu time spent up to now is       18.3 secs

     total energy              =     -31.57410073 Ry
     Harris-Foulkes estimate   =     -31.57752944 Ry
     estimated scf accuracy    <       0.84615297 Ry

     iteration # 76     ecut=    30.00 Ry     beta=0.70
     Davidson diagonalization with overlap
     ethr =  1.57E-04,  avg # of iterations =  1.0

     total cpu time spent up to now is       18.3 secs

     total energy              =     -31.56454289 Ry
     Harris-Foulkes estimate   =     -31.57410130 Ry
     estimated scf accuracy    <       0.84112179 Ry

     iteration # 77     ecut=    30.00 Ry     beta=0.70
     Davidson diagonalization with overlap
     ethr =  1.57E-04,  avg # of iterations =  1.0

     total cpu time spent up to now is       18.3 secs

     total energy              =     -31.56293324 Ry
     Harris-Foulkes estimate   =     -31.56454682 Ry
     estimated scf accuracy    <       0.82863886 Ry

     iteration # 78     ecut=    30.00 Ry     beta=0.70
     Davidson diagonalization with overlap
     ethr =  1.57E-04,  avg # of iterations =  1.0

     total cpu time spent up to now is       18.4 secs

     total energy              =     -31.56258942 Ry
     Harris-Foulkes estimate   =     -31.56293352 Ry
     estimated scf accuracy    <       0.82696968 Ry

     iteration # 79     ecut=    30.00 Ry     beta=0.70
     Davidson diagonalization with overlap
     ethr =  1.57E-04,  avg # of iterations =  1.0

     total cpu time spent up to now is       18.4 secs

     total energy              =     -31.59696048 Ry
     Harris-Foulkes estimate   =     -31.56258956 Ry
     estimated scf accuracy    <       0.82539784 Ry

     iteration # 80     ecut=    30.00 Ry     beta=0.70
     Davidson diagonalization with overlap
     ethr =  1.57E-04,  avg # of iterations =  1.0

     total cpu time spent up to now is       18.4 secs

     total energy              =     -31.65511157 Ry
     Harris-Foulkes estimate   =     -31.59700238 Ry
     estimated scf accuracy    <       0.86570087 Ry

     iteration # 81     ecut=    30.00 Ry     beta=0.70
     Davidson diagonalization with overlap
     ethr =  1.57E-04,  avg # of iterations =  1.0

     negative rho (up, down):  1.082E-02 0.000E+00

     total cpu time spent up to now is       18.5 secs

     total energy              =     -31.00806819 Ry
     Harris-Foulkes estimate   =     -31.65523192 Ry
     estimated scf accuracy    <       0.96227477 Ry

     iteration # 82     ecut=    30.00 Ry     beta=0.70
     Davidson diagonalization with overlap
     ethr =  1.57E-04,  avg # of iterations = 11.0

     total cpu time spent up to now is       18.5 secs

     total energy              =     -32.04437363 Ry
     Harris-Foulkes estimate   =     -32.56945134 Ry
     estimated scf accuracy    <       3.46125984 Ry

     iteration # 83     ecut=    30.00 Ry     beta=0.70
     Davidson diagonalization with overlap
     ethr =  1.57E-04,  avg # of iterations =  5.0

     total cpu time spent up to now is       18.6 secs

     total energy              =     -31.78810846 Ry
     Harris-Foulkes estimate   =     -32.07440157 Ry
     estimated scf accuracy    <       2.01270137 Ry

     iteration # 84     ecut=    30.00 Ry     beta=0.70
     Davidson diagonalization with overlap
     ethr =  1.57E-04,  avg # of iterations =  4.0

     negative rho (up, down):  3.305E-08 0.000E+00

     total cpu time spent up to now is       18.6 secs

     total energy              =     -31.45336506 Ry
     Harris-Foulkes estimate   =     -31.79260661 Ry
     estimated scf accuracy    <       1.49505911 Ry

     iteration # 85     ecut=    30.00 Ry     beta=0.70
     Davidson diagonalization with overlap
     ethr =  1.57E-04,  avg # of iterations =  9.0

     total cpu time spent up to now is       18.7 secs

     total energy              =     -31.45904601 Ry
     Harris-Foulkes estimate   =     -31.49892437 Ry
     estimated scf accuracy    <       0.37879744 Ry

     iteration # 86     ecut=    30.00 Ry     beta=0.70
     Davidson diagonalization with overlap
     ethr =  1.57E-04,  avg # of iterations =  2.0

     total cpu time spent up to now is       18.7 secs

     total energy              =     -31.47807470 Ry
     Harris-Foulkes estimate   =     -31.52549914 Ry
     estimated scf accuracy    <       1.34348386 Ry

     iteration # 87     ecut=    30.00 Ry     beta=0.70
     Davidson diagonalization with overlap
     ethr =  1.57E-04,  avg # of iterations =  1.0

     total cpu time spent up to now is       18.8 secs

     total energy              =     -31.49075217 Ry
     Harris-Foulkes estimate   =     -31.49191399 Ry
     estimated scf accuracy    <       0.01961789 Ry

     iteration # 88     ecut=    30.00 Ry     beta=0.70
     Davidson diagonalization with overlap
     ethr =  1.57E-04,  avg # of iterations =  1.0

     total cpu time spent up to now is       18.8 secs

     total energy              =     -31.48866045 Ry
     Harris-Foulkes estimate   =     -31.49210695 Ry
     estimated scf accuracy    <       0.03348052 Ry

     iteration # 89     ecut=    30.00 Ry     beta=0.70
     Davidson diagonalization with overlap
     ethr =  1.57E-04,  avg # of iterations =  1.0

     total cpu time spent up to now is       18.8 secs

     total energy              =     -31.49761755 Ry
     Harris-Foulkes estimate   =     -31.49620837 Ry
     estimated scf accuracy    <       0.35285771 Ry

     iteration # 90     ecut=    30.00 Ry     beta=0.70
     Davidson diagonalization with overlap
     ethr =  1.57E-04,  avg # of iterations =  1.0

     total cpu time spent up to now is       18.8 secs

     total energy              =     -31.54203165 Ry
     Harris-Foulkes estimate   =     -31.49771906 Ry
     estimated scf accuracy    <       0.46168018 Ry

     iteration # 91     ecut=    30.00 Ry     beta=0.70
     Davidson diagonalization with overlap
     ethr =  1.57E-04,  avg # of iterations =  2.0

     negative rho (up, down):  5.835E-08 0.000E+00

     total cpu time spent up to now is       18.9 secs

     total energy              =     -31.57018750 Ry
     Harris-Foulkes estimate   =     -31.56433598 Ry
     estimated scf accuracy    <       1.10051783 Ry

     iteration # 92     ecut=    30.00 Ry     beta=0.70
     Davidson diagonalization with overlap
     ethr =  1.57E-04,  avg # of iterations =  1.0

     negative rho (up, down):  4.114E-08 0.000E+00

     total cpu time spent up to now is       18.9 secs

     total energy              =     -31.56186620 Ry
     Harris-Foulkes estimate   =     -31.57018893 Ry
     estimated scf accuracy    <       1.11059523 Ry

     iteration # 93     ecut=    30.00 Ry     beta=0.70
     Davidson diagonalization with overlap
     ethr =  1.57E-04,  avg # of iterations =  1.0

     negative rho (up, down):  1.411E-05 0.000E+00

     total cpu time spent up to now is       18.9 secs

     total energy              =     -31.55563227 Ry
     Harris-Foulkes estimate   =     -31.56185593 Ry
     estimated scf accuracy    <       1.11613414 Ry

     iteration # 94     ecut=    30.00 Ry     beta=0.70
     Davidson diagonalization with overlap
     ethr =  1.57E-04,  avg # of iterations =  1.0

     negative rho (up, down):  5.769E-06 0.000E+00

     total cpu time spent up to now is       19.0 secs

     total energy              =     -31.56469179 Ry
     Harris-Foulkes estimate   =     -31.55562180 Ry
     estimated scf accuracy    <       1.13436390 Ry

     iteration # 95     ecut=    30.00 Ry     beta=0.70
     Davidson diagonalization with overlap
     ethr =  1.57E-04,  avg # of iterations =  1.0

     negative rho (up, down):  2.002E-08 0.000E+00

     total cpu time spent up to now is       19.0 secs

     total energy              =     -31.54491495 Ry
     Harris-Foulkes estimate   =     -31.56464055 Ry
     estimated scf accuracy    <       1.11787761 Ry

     iteration # 96     ecut=    30.00 Ry     beta=0.70
     Davidson diagonalization with overlap
     ethr =  1.57E-04,  avg # of iterations =  1.0

     total cpu time spent up to now is       19.0 secs

     total energy              =     -31.51972147 Ry
     Harris-Foulkes estimate   =     -31.54462436 Ry
     estimated scf accuracy    <       1.18028596 Ry

     iteration # 97     ecut=    30.00 Ry     beta=0.70
     Davidson diagonalization with overlap
     ethr =  1.57E-04,  avg # of iterations =  1.0

     negative rho (up, down):  9.310E-08 0.000E+00

     total cpu time spent up to now is       19.1 secs

     total energy              =     -31.63811395 Ry
     Harris-Foulkes estimate   =     -31.51836400 Ry
     estimated scf accuracy    <       1.32339392 Ry

     iteration # 98     ecut=    30.00 Ry     beta=0.70
     Davidson diagonalization with overlap
     ethr =  1.57E-04,  avg # of iterations =  2.0

     total cpu time spent up to now is       19.1 secs

     total energy              =     -31.45413747 Ry
     Harris-Foulkes estimate   =     -31.62804023 Ry
     estimated scf accuracy    <       1.17698715 Ry

     iteration # 99     ecut=    30.00 Ry     beta=0.70
     Davidson diagonalization with overlap
     ethr =  1.57E-04,  avg # of iterations =  2.0

     total cpu time spent up to now is       19.1 secs

     total energy              =     -31.46048937 Ry
     Harris-Foulkes estimate   =     -31.50322408 Ry
     estimated scf accuracy    <       0.53659220 Ry

     iteration #100     ecut=    30.00 Ry     beta=0.70
     Davidson diagonalization with overlap
     ethr =  1.57E-04,  avg # of iterations =  1.0

     total cpu time spent up to now is       19.2 secs

     total energy              =     -31.52654578 Ry
     Harris-Foulkes estimate   =     -31.51124922 Ry
     estimated scf accuracy    <       1.17942235 Ry

     End of self-consistent calculation

     convergence NOT achieved after 100 iterations: stopping

     Writing output data file pwscf.save
 
     init_run     :      0.09s CPU      0.11s WALL (       1 calls)
     electrons    :     11.39s CPU     15.26s WALL (      15 calls)
     update_pot   :      1.82s CPU      2.56s WALL (      14 calls)
     forces       :      0.37s CPU      0.39s WALL (      14 calls)

     Called by init_run:
     wfcinit      :      0.01s CPU      0.02s WALL (       1 calls)
     potinit      :      0.02s CPU      0.03s WALL (       1 calls)

     Called by electrons:
     c_bands      :      4.70s CPU      5.28s WALL (     374 calls)
     sum_band     :      1.08s CPU      1.18s WALL (     374 calls)
     v_of_rho     :      2.77s CPU      3.00s WALL (     389 calls)
     mix_rho      :      2.30s CPU      4.11s WALL (     374 calls)

     Called by c_bands:
     init_us_2    :      0.03s CPU      0.04s WALL (     749 calls)
     cegterg      :      4.61s CPU      5.06s WALL (     374 calls)

     Called by sum_band:

     Called by *egterg:
     h_psi        :      3.90s CPU      4.20s WALL (    1347 calls)
     g_psi        :      0.03s CPU      0.03s WALL (     972 calls)
     cdiaghg      :      0.28s CPU      0.39s WALL (    1332 calls)

     Called by h_psi:
     h_psi:pot    :      3.87s CPU      4.18s WALL (    1347 calls)
     h_psi:calbec :      0.18s CPU      0.22s WALL (    1347 calls)
     vloc_psi     :      3.67s CPU      3.94s WALL (    1347 calls)
     add_vuspsi   :      0.01s CPU      0.01s WALL (    1347 calls)

     General routines
     calbec       :      0.30s CPU      0.38s WALL (    1416 calls)
     fft          :      1.81s CPU      1.92s WALL (    4307 calls)
     fftw         :      3.98s CPU      4.30s WALL (   17688 calls)
     davcio       :      0.37s CPU      1.54s WALL (    6158 calls)
 
     Parallel routines
     fft_scatter  :      2.39s CPU      2.71s WALL (   21995 calls)
 
     PWSCF        :    14.08s CPU        19.28s WALL

 
   This run was terminated on:   2:55:59  11Feb2018            

=------------------------------------------------------------------------------=
   JOB DONE.
=------------------------------------------------------------------------------=
