
     Program PWSCF v.6.0 (svn rev. 13079) starts on 11Feb2018 at  2:56: 0 

     This program is part of the open-source Quantum ESPRESSO suite
     for quantum simulation of materials; please cite
         "P. Giannozzi et al., J. Phys.:Condens. Matter 21 395502 (2009);
          URL http://www.quantum-espresso.org", 
     in publications or presentations arising from this work. More details at
     http://www.quantum-espresso.org/quote

     Parallel version (MPI), running on    28 processors
     R & G space division:  proc/nbgrp/npool/nimage =      28
     Reading input from inputs/water-1-md/573.in

     Current dimensions of program PWSCF are:
     Max number of different atomic species (ntypx) = 10
     Max number of k-points (npk) =  40000
     Max angular momentum in pseudopotentials (lmaxx) =  3

     Subspace diagonalization in iterative solution of the eigenvalue problem:
     a serial algorithm will be used

 
     Parallelization info
     --------------------
     sticks:   dense  smooth     PW     G-vecs:    dense   smooth      PW
     Min         136     136     33                 6338     6338     787
     Max         137     137     34                 6341     6341     792
     Sum        3809    3809    949               177509   177509   22119
 


     bravais-lattice index     =            1
     lattice parameter (alat)  =      20.0000  a.u.
     unit-cell volume          =    8000.0000 (a.u.)^3
     number of atoms/cell      =            3
     number of atomic types    =            2
     number of electrons       =         8.00
     number of Kohn-Sham states=            8
     kinetic-energy cutoff     =      30.0000  Ry
     charge density cutoff     =     120.0000  Ry
     convergence threshold     =      1.0E-08
     mixing beta               =       0.7000
     number of iterations used =            8  plain     mixing
     Exchange-correlation      = BLYP ( 1  3  1  3 0 0)
     nstep                     =         5000


     celldm(1)=  20.000000  celldm(2)=   0.000000  celldm(3)=   0.000000
     celldm(4)=   0.000000  celldm(5)=   0.000000  celldm(6)=   0.000000

     crystal axes: (cart. coord. in units of alat)
               a(1) = (   1.000000   0.000000   0.000000 )  
               a(2) = (   0.000000   1.000000   0.000000 )  
               a(3) = (   0.000000   0.000000   1.000000 )  

     reciprocal axes: (cart. coord. in units 2 pi/alat)
               b(1) = (  1.000000  0.000000  0.000000 )  
               b(2) = (  0.000000  1.000000  0.000000 )  
               b(3) = (  0.000000  0.000000  1.000000 )  


     PseudoPot. # 1 for  H read from file:
     ./H.blyp-hgh.UPF
     MD5 check sum: c576e69559cde411e611be972c763230
     Pseudo is Norm-conserving, Zval =  1.0
     Generated in analytical, separable form
     Using radial grid of  929 points,  0 beta functions with: 

     PseudoPot. # 2 for  O read from file:
     ./O.blyp-hgh.UPF
     MD5 check sum: d0b7156309aa9befef28faac7bc56342
     Pseudo is Norm-conserving, Zval =  6.0
     Generated in analytical, separable form
     Using radial grid of 1095 points,  1 beta functions with: 
                l(1) =   0

     atomic species   valence    mass     pseudopotential
        H              1.00     1.01000      H( 1.00)
        O              6.00    16.00000      O( 1.00)

     No symmetry found



   Cartesian axes

     site n.     atom                  positions (alat units)
         1           H   tau(   1) = (   0.4515650   0.1070129   0.1833821  )
         2           H   tau(   2) = (   0.0194494   0.8308915   0.0677670  )
         3           O   tau(   3) = (   0.8725956   0.5261579   0.7151611  )

     number of k points=     1  Marzari-Vanderbilt smearing, width (Ry)=  0.0250
                       cart. coord. in units 2pi/alat
        k(    1) = (   0.0000000   0.0000000   0.0000000), wk =   2.0000000

     Dense  grid:   177509 G-vectors     FFT dimensions: (  72,  72,  72)

     Estimated max dynamical RAM per process >       6.09Mb

     Estimated total allocated dynamical RAM >     170.64Mb

     Initial potential from superposition of free atoms
     Check: negative starting charge=   -0.351854

     starting charge    7.99998, renormalised to    8.00000

     negative rho (up, down):  3.519E-01 0.000E+00
     Starting wfc are    6 randomized atomic wfcs +    2 random wfc

     total cpu time spent up to now is        0.2 secs

     per-process dynamical memory:    18.8 Mb

     Self-consistent Calculation

     iteration #  1     ecut=    30.00 Ry     beta=0.70
     Davidson diagonalization with overlap
     ethr =  1.00E-02,  avg # of iterations =  8.0

     negative rho (up, down):  8.460E-02 0.000E+00

     total cpu time spent up to now is        0.3 secs

     total energy              =     -28.01884130 Ry
     Harris-Foulkes estimate   =     -32.08899402 Ry
     estimated scf accuracy    <       4.65945166 Ry

     iteration #  2     ecut=    30.00 Ry     beta=0.70
     Davidson diagonalization with overlap
     ethr =  1.00E-02,  avg # of iterations =  4.0

     negative rho (up, down):  6.198E-02 0.000E+00

     total cpu time spent up to now is        0.3 secs

     total energy              =     -32.68554268 Ry
     Harris-Foulkes estimate   =     -38.06368789 Ry
     estimated scf accuracy    <      13.08706261 Ry

     iteration #  3     ecut=    30.00 Ry     beta=0.70
     Davidson diagonalization with overlap
     ethr =  1.00E-02,  avg # of iterations =  2.0

     negative rho (up, down):  6.394E-02 0.000E+00

     total cpu time spent up to now is        0.4 secs

     total energy              =     -33.24077321 Ry
     Harris-Foulkes estimate   =     -33.02524022 Ry
     estimated scf accuracy    <       5.08990596 Ry

     iteration #  4     ecut=    30.00 Ry     beta=0.70
     Davidson diagonalization with overlap
     ethr =  1.00E-02,  avg # of iterations =  1.0

     negative rho (up, down):  2.564E-02 0.000E+00

     total cpu time spent up to now is        0.4 secs

     total energy              =     -30.17811052 Ry
     Harris-Foulkes estimate   =     -33.24135115 Ry
     estimated scf accuracy    <       5.40519568 Ry

     iteration #  5     ecut=    30.00 Ry     beta=0.70
     Davidson diagonalization with overlap
     ethr =  1.00E-02,  avg # of iterations =  7.0

     negative rho (up, down):  2.389E-02 0.000E+00

     total cpu time spent up to now is        0.4 secs

     total energy              =     -33.30073058 Ry
     Harris-Foulkes estimate   =     -33.33416332 Ry
     estimated scf accuracy    <      13.91474960 Ry

     iteration #  6     ecut=    30.00 Ry     beta=0.70
     Davidson diagonalization with overlap
     ethr =  1.00E-02,  avg # of iterations =  1.0

     negative rho (up, down):  3.910E-02 0.000E+00

     total cpu time spent up to now is        0.5 secs

     total energy              =     -33.19185212 Ry
     Harris-Foulkes estimate   =     -33.30381510 Ry
     estimated scf accuracy    <      13.85260353 Ry

     iteration #  7     ecut=    30.00 Ry     beta=0.70
     Davidson diagonalization with overlap
     ethr =  1.00E-02,  avg # of iterations =  1.0

     negative rho (up, down):  9.764E-02 0.000E+00

     total cpu time spent up to now is        0.5 secs

     total energy              =     -32.41436267 Ry
     Harris-Foulkes estimate   =     -33.19652462 Ry
     estimated scf accuracy    <      12.61227548 Ry

     iteration #  8     ecut=    30.00 Ry     beta=0.70
     Davidson diagonalization with overlap
     ethr =  1.00E-02,  avg # of iterations =  2.0

     negative rho (up, down):  3.684E-02 0.000E+00

     total cpu time spent up to now is        0.5 secs

     total energy              =     -32.39009440 Ry
     Harris-Foulkes estimate   =     -32.63348684 Ry
     estimated scf accuracy    <       5.53472015 Ry

     iteration #  9     ecut=    30.00 Ry     beta=0.70
     Davidson diagonalization with overlap
     ethr =  1.00E-02,  avg # of iterations =  1.0

     negative rho (up, down):  6.014E-03 0.000E+00

     total cpu time spent up to now is        0.5 secs

     total energy              =     -31.52740085 Ry
     Harris-Foulkes estimate   =     -32.39361469 Ry
     estimated scf accuracy    <       5.11535403 Ry

     iteration # 10     ecut=    30.00 Ry     beta=0.70
     Davidson diagonalization with overlap
     ethr =  1.00E-02,  avg # of iterations =  1.0

     negative rho (up, down):  1.184E-02 0.000E+00

     total cpu time spent up to now is        0.6 secs

     total energy              =     -31.61145835 Ry
     Harris-Foulkes estimate   =     -31.54176581 Ry
     estimated scf accuracy    <       4.49019204 Ry

     iteration # 11     ecut=    30.00 Ry     beta=0.70
     Davidson diagonalization with overlap
     ethr =  1.00E-02,  avg # of iterations =  1.0

     negative rho (up, down):  1.535E-02 0.000E+00

     total cpu time spent up to now is        0.6 secs

     total energy              =     -31.47955920 Ry
     Harris-Foulkes estimate   =     -31.61291943 Ry
     estimated scf accuracy    <       4.03435662 Ry

     iteration # 12     ecut=    30.00 Ry     beta=0.70
     Davidson diagonalization with overlap
     ethr =  1.00E-02,  avg # of iterations =  1.0

     negative rho (up, down):  1.163E-01 0.000E+00

     total cpu time spent up to now is        0.6 secs

     total energy              =     -31.38189867 Ry
     Harris-Foulkes estimate   =     -31.49001786 Ry
     estimated scf accuracy    <       0.54481689 Ry

     iteration # 13     ecut=    30.00 Ry     beta=0.70
     Davidson diagonalization with overlap
     ethr =  6.81E-03,  avg # of iterations =  1.0

     negative rho (up, down):  8.153E-02 0.000E+00

     total cpu time spent up to now is        0.7 secs

     total energy              =     -31.41512059 Ry
     Harris-Foulkes estimate   =     -31.66688983 Ry
     estimated scf accuracy    <       2.98783360 Ry

     iteration # 14     ecut=    30.00 Ry     beta=0.70
     Davidson diagonalization with overlap
     ethr =  6.81E-03,  avg # of iterations =  1.0

     negative rho (up, down):  5.001E-02 0.000E+00

     total cpu time spent up to now is        0.7 secs

     total energy              =     -31.75834345 Ry
     Harris-Foulkes estimate   =     -31.49478020 Ry
     estimated scf accuracy    <       1.32324669 Ry

     iteration # 15     ecut=    30.00 Ry     beta=0.70
     Davidson diagonalization with overlap
     ethr =  6.81E-03,  avg # of iterations =  1.0

     negative rho (up, down):  3.044E-02 0.000E+00

     total cpu time spent up to now is        0.7 secs

     total energy              =     -31.79781354 Ry
     Harris-Foulkes estimate   =     -31.92677783 Ry
     estimated scf accuracy    <       4.26128779 Ry

     iteration # 16     ecut=    30.00 Ry     beta=0.70
     Davidson diagonalization with overlap
     ethr =  6.81E-03,  avg # of iterations =  1.0

     negative rho (up, down):  6.629E-03 0.000E+00

     total cpu time spent up to now is        0.8 secs

     total energy              =     -31.78752238 Ry
     Harris-Foulkes estimate   =     -31.79818738 Ry
     estimated scf accuracy    <       4.08232673 Ry

     iteration # 17     ecut=    30.00 Ry     beta=0.70
     Davidson diagonalization with overlap
     ethr =  6.81E-03,  avg # of iterations =  1.0

     negative rho (up, down):  5.346E-03 0.000E+00

     total cpu time spent up to now is        0.8 secs

     total energy              =     -31.71726879 Ry
     Harris-Foulkes estimate   =     -31.78756289 Ry
     estimated scf accuracy    <       4.06516990 Ry

     iteration # 18     ecut=    30.00 Ry     beta=0.70
     Davidson diagonalization with overlap
     ethr =  6.81E-03,  avg # of iterations =  1.0

     negative rho (up, down):  7.930E-03 0.000E+00

     total cpu time spent up to now is        0.8 secs

     total energy              =     -31.52287369 Ry
     Harris-Foulkes estimate   =     -31.71741695 Ry
     estimated scf accuracy    <       3.95683411 Ry

     iteration # 19     ecut=    30.00 Ry     beta=0.70
     Davidson diagonalization with overlap
     ethr =  6.81E-03,  avg # of iterations =  1.0

     negative rho (up, down):  3.303E-03 0.000E+00

     total cpu time spent up to now is        0.9 secs

     total energy              =     -31.54396053 Ry
     Harris-Foulkes estimate   =     -31.51868418 Ry
     estimated scf accuracy    <       2.51955513 Ry

     iteration # 20     ecut=    30.00 Ry     beta=0.70
     Davidson diagonalization with overlap
     ethr =  6.81E-03,  avg # of iterations =  1.0

     negative rho (up, down):  2.890E-03 0.000E+00

     total cpu time spent up to now is        0.9 secs

     total energy              =     -31.41955501 Ry
     Harris-Foulkes estimate   =     -31.55131038 Ry
     estimated scf accuracy    <       4.68195777 Ry

     iteration # 21     ecut=    30.00 Ry     beta=0.70
     Davidson diagonalization with overlap
     ethr =  6.81E-03,  avg # of iterations =  1.0

     negative rho (up, down):  1.305E-03 0.000E+00

     total cpu time spent up to now is        0.9 secs

     total energy              =     -31.46279034 Ry
     Harris-Foulkes estimate   =     -31.49501197 Ry
     estimated scf accuracy    <       0.42868980 Ry

     iteration # 22     ecut=    30.00 Ry     beta=0.70
     Davidson diagonalization with overlap
     ethr =  5.36E-03,  avg # of iterations =  1.0

     negative rho (up, down):  2.493E-03 0.000E+00

     total cpu time spent up to now is        1.0 secs

     total energy              =     -31.53307320 Ry
     Harris-Foulkes estimate   =     -31.52958163 Ry
     estimated scf accuracy    <       3.70113180 Ry

     iteration # 23     ecut=    30.00 Ry     beta=0.70
     Davidson diagonalization with overlap
     ethr =  5.36E-03,  avg # of iterations =  1.0

     negative rho (up, down):  1.562E-03 0.000E+00

     total cpu time spent up to now is        1.0 secs

     total energy              =     -31.48089068 Ry
     Harris-Foulkes estimate   =     -31.53339874 Ry
     estimated scf accuracy    <       3.92550751 Ry

     iteration # 24     ecut=    30.00 Ry     beta=0.70
     Davidson diagonalization with overlap
     ethr =  5.36E-03,  avg # of iterations =  1.0

     negative rho (up, down):  3.196E-04 0.000E+00

     total cpu time spent up to now is        1.0 secs

     total energy              =     -31.48762237 Ry
     Harris-Foulkes estimate   =     -31.49548274 Ry
     estimated scf accuracy    <       0.58704807 Ry

     iteration # 25     ecut=    30.00 Ry     beta=0.70
     Davidson diagonalization with overlap
     ethr =  5.36E-03,  avg # of iterations =  1.0

     negative rho (up, down):  8.361E-05 0.000E+00

     total cpu time spent up to now is        1.1 secs

     total energy              =     -31.49104642 Ry
     Harris-Foulkes estimate   =     -31.49055531 Ry
     estimated scf accuracy    <       0.03777281 Ry

     iteration # 26     ecut=    30.00 Ry     beta=0.70
     Davidson diagonalization with overlap
     ethr =  4.72E-04,  avg # of iterations =  1.0

     negative rho (up, down):  4.559E-06 0.000E+00

     total cpu time spent up to now is        1.1 secs

     total energy              =     -31.48677849 Ry
     Harris-Foulkes estimate   =     -31.49131661 Ry
     estimated scf accuracy    <       0.12613465 Ry

     iteration # 27     ecut=    30.00 Ry     beta=0.70
     Davidson diagonalization with overlap
     ethr =  4.72E-04,  avg # of iterations =  1.0

     negative rho (up, down):  3.941E-06 0.000E+00

     total cpu time spent up to now is        1.1 secs

     total energy              =     -31.48911288 Ry
     Harris-Foulkes estimate   =     -31.49137621 Ry
     estimated scf accuracy    <       0.12418639 Ry

     iteration # 28     ecut=    30.00 Ry     beta=0.70
     Davidson diagonalization with overlap
     ethr =  4.72E-04,  avg # of iterations =  1.0

     negative rho (up, down):  2.510E-08 0.000E+00

     total cpu time spent up to now is        1.2 secs

     total energy              =     -31.49018795 Ry
     Harris-Foulkes estimate   =     -31.49019858 Ry
     estimated scf accuracy    <       0.00048491 Ry

     iteration # 29     ecut=    30.00 Ry     beta=0.70
     Davidson diagonalization with overlap
     ethr =  6.06E-06,  avg # of iterations = 16.0

     negative rho (up, down):  1.905E-07 0.000E+00

     total cpu time spent up to now is        1.2 secs

     total energy              =     -31.49019185 Ry
     Harris-Foulkes estimate   =     -31.49019286 Ry
     estimated scf accuracy    <       0.00013149 Ry

     iteration # 30     ecut=    30.00 Ry     beta=0.70
     Davidson diagonalization with overlap
     ethr =  1.64E-06,  avg # of iterations =  1.0

     negative rho (up, down):  7.463E-08 0.000E+00

     total cpu time spent up to now is        1.2 secs

     total energy              =     -31.49019010 Ry
     Harris-Foulkes estimate   =     -31.49019376 Ry
     estimated scf accuracy    <       0.00027763 Ry

     iteration # 31     ecut=    30.00 Ry     beta=0.70
     Davidson diagonalization with overlap
     ethr =  1.64E-06,  avg # of iterations =  1.0

     negative rho (up, down):  1.286E-08 0.000E+00

     total cpu time spent up to now is        1.3 secs

     total energy              =     -31.49019171 Ry
     Harris-Foulkes estimate   =     -31.49019166 Ry
     estimated scf accuracy    <       0.00001518 Ry

     iteration # 32     ecut=    30.00 Ry     beta=0.70
     Davidson diagonalization with overlap
     ethr =  1.90E-07,  avg # of iterations =  1.0

     total cpu time spent up to now is        1.3 secs

     total energy              =     -31.49019200 Ry
     Harris-Foulkes estimate   =     -31.49019185 Ry
     estimated scf accuracy    <       0.00000017 Ry

     iteration # 33     ecut=    30.00 Ry     beta=0.70
     Davidson diagonalization with overlap
     ethr =  2.13E-09,  avg # of iterations =  1.0

     total cpu time spent up to now is        1.3 secs

     End of self-consistent calculation

          k = 0.0000 0.0000 0.0000 ( 22119 PWs)   bands (ev):

   -23.6236  -7.0343  -7.0317  -7.0311  -6.9359  -6.9169  -0.2370   0.5769

     the Fermi energy is    -6.8974 ev

!    total energy              =     -31.49019197 Ry
     Harris-Foulkes estimate   =     -31.49019200 Ry
     estimated scf accuracy    <          3.7E-09 Ry

     convergence has been achieved in  33 iterations

     Forces acting on atoms (Ry/au):

     atom    1 type  1   force =     0.00034987    0.00024480   -0.00000754
     atom    2 type  1   force =     0.00024950    0.00004650   -0.00014087
     atom    3 type  2   force =    -0.00059937   -0.00029130    0.00014841

     Total force =     0.000856     Total SCF correction =     0.000077

     Molecular Dynamics Calculation

     Starting temperature  =  1000.00 K

     temperature is controlled by Andersen thermostat
     Collision frequency = 1.0000/timestep
     mass H                =     1.01
     mass O                =    16.00
     Time step             =   100.00 a.u.,  4.8378 femto-seconds

     Entering Dynamics:    iteration =     1
                           time      =   0.0048 pico-seconds


     Andersen thermostat:    3 collisions

ATOMIC_POSITIONS (bohr)
H        9.264758376   2.418127758   3.469473193
H        0.396874556  16.847096579   1.165678715
O       17.436677101  10.491145019  14.327703775


     kinetic energy (Ekin) =     0.01319564 Ry
     temperature           =   694.47456190 K 
     Ekin + Etot (const)   =   -31.47699634 Ry

     Linear momentum :   -0.0000000000    0.0000000000    0.0000000000

     Writing output data file pwscf.save
     Check: negative starting charge=   -0.351854
     NEW-OLD atomic charge density approx. for the potential
     Check: negative starting charge=   -0.352072

     negative rho (up, down):  8.122E-02 0.000E+00

     total cpu time spent up to now is        1.6 secs

     per-process dynamical memory:    20.4 Mb

     Self-consistent Calculation

     iteration #  1     ecut=    30.00 Ry     beta=0.70
     Davidson diagonalization with overlap
     c_bands:  1 eigenvalues not converged
     ethr =  1.00E-06,  avg # of iterations = 20.0

     negative rho (up, down):  1.867E-02 0.000E+00

     total cpu time spent up to now is        1.7 secs

     total energy              =     -31.44422876 Ry
     Harris-Foulkes estimate   =     -31.42798201 Ry
     estimated scf accuracy    <       0.03604175 Ry

     iteration #  2     ecut=    30.00 Ry     beta=0.70
     Davidson diagonalization with overlap
     ethr =  4.51E-04,  avg # of iterations =  2.0

     negative rho (up, down):  1.732E-02 0.000E+00

     total cpu time spent up to now is        1.7 secs

     total energy              =     -31.46940544 Ry
     Harris-Foulkes estimate   =     -31.88847578 Ry
     estimated scf accuracy    <       4.27562204 Ry

     iteration #  3     ecut=    30.00 Ry     beta=0.70
     Davidson diagonalization with overlap
     ethr =  4.51E-04,  avg # of iterations =  2.0

     negative rho (up, down):  1.689E-02 0.000E+00

     total cpu time spent up to now is        1.8 secs

     total energy              =     -31.46505264 Ry
     Harris-Foulkes estimate   =     -31.50202316 Ry
     estimated scf accuracy    <       1.17901209 Ry

     iteration #  4     ecut=    30.00 Ry     beta=0.70
     Davidson diagonalization with overlap
     ethr =  4.51E-04,  avg # of iterations =  1.0

     negative rho (up, down):  6.660E-03 0.000E+00

     total cpu time spent up to now is        1.8 secs

     total energy              =     -31.43040390 Ry
     Harris-Foulkes estimate   =     -31.47853086 Ry
     estimated scf accuracy    <       0.51292766 Ry

     iteration #  5     ecut=    30.00 Ry     beta=0.70
     Davidson diagonalization with overlap
     ethr =  4.51E-04,  avg # of iterations =  1.0

     negative rho (up, down):  2.814E-03 0.000E+00

     total cpu time spent up to now is        1.8 secs

     total energy              =     -31.46004577 Ry
     Harris-Foulkes estimate   =     -31.56844572 Ry
     estimated scf accuracy    <       2.82471784 Ry

     iteration #  6     ecut=    30.00 Ry     beta=0.70
     Davidson diagonalization with overlap
     ethr =  4.51E-04,  avg # of iterations =  1.0

     negative rho (up, down):  7.159E-04 0.000E+00

     total cpu time spent up to now is        1.9 secs

     total energy              =     -31.49031897 Ry
     Harris-Foulkes estimate   =     -31.48853485 Ry
     estimated scf accuracy    <       0.02958019 Ry

     iteration #  7     ecut=    30.00 Ry     beta=0.70
     Davidson diagonalization with overlap
     ethr =  3.70E-04,  avg # of iterations =  3.0

     negative rho (up, down):  3.877E-04 0.000E+00

     total cpu time spent up to now is        1.9 secs

     total energy              =     -31.49017744 Ry
     Harris-Foulkes estimate   =     -31.49054847 Ry
     estimated scf accuracy    <       0.04430139 Ry

     iteration #  8     ecut=    30.00 Ry     beta=0.70
     Davidson diagonalization with overlap
     ethr =  3.70E-04,  avg # of iterations =  1.0

     negative rho (up, down):  3.028E-06 0.000E+00

     total cpu time spent up to now is        1.9 secs

     total energy              =     -31.49013262 Ry
     Harris-Foulkes estimate   =     -31.49030001 Ry
     estimated scf accuracy    <       0.01024534 Ry

     iteration #  9     ecut=    30.00 Ry     beta=0.70
     Davidson diagonalization with overlap
     ethr =  1.28E-04,  avg # of iterations =  1.0

     negative rho (up, down):  1.358E-08 0.000E+00

     total cpu time spent up to now is        2.0 secs

     total energy              =     -31.49022924 Ry
     Harris-Foulkes estimate   =     -31.49023383 Ry
     estimated scf accuracy    <       0.00015113 Ry

     iteration # 10     ecut=    30.00 Ry     beta=0.70
     Davidson diagonalization with overlap
     ethr =  1.89E-06,  avg # of iterations = 13.0

     negative rho (up, down):  1.060E-08 0.000E+00

     total cpu time spent up to now is        2.0 secs

     total energy              =     -31.49023246 Ry
     Harris-Foulkes estimate   =     -31.49025102 Ry
     estimated scf accuracy    <       0.00148629 Ry

     iteration # 11     ecut=    30.00 Ry     beta=0.70
     Davidson diagonalization with overlap
     ethr =  1.89E-06,  avg # of iterations =  1.0

     total cpu time spent up to now is        2.0 secs

     total energy              =     -31.49022734 Ry
     Harris-Foulkes estimate   =     -31.49023846 Ry
     estimated scf accuracy    <       0.00020293 Ry

     iteration # 12     ecut=    30.00 Ry     beta=0.70
     Davidson diagonalization with overlap
     ethr =  1.89E-06,  avg # of iterations =  1.0

     total cpu time spent up to now is        2.1 secs

     total energy              =     -31.49023060 Ry
     Harris-Foulkes estimate   =     -31.49024571 Ry
     estimated scf accuracy    <       0.00085680 Ry

     iteration # 13     ecut=    30.00 Ry     beta=0.70
     Davidson diagonalization with overlap
     ethr =  1.89E-06,  avg # of iterations =  1.0

     total cpu time spent up to now is        2.1 secs

     total energy              =     -31.49023735 Ry
     Harris-Foulkes estimate   =     -31.49023739 Ry
     estimated scf accuracy    <       0.00000863 Ry

     iteration # 14     ecut=    30.00 Ry     beta=0.70
     Davidson diagonalization with overlap
     ethr =  1.08E-07,  avg # of iterations =  1.0

     total cpu time spent up to now is        2.2 secs

     total energy              =     -31.49023734 Ry
     Harris-Foulkes estimate   =     -31.49023738 Ry
     estimated scf accuracy    <       0.00000128 Ry

     iteration # 15     ecut=    30.00 Ry     beta=0.70
     Davidson diagonalization with overlap
     ethr =  1.60E-08,  avg # of iterations =  1.0

     total cpu time spent up to now is        2.2 secs

     End of self-consistent calculation

          k = 0.0000 0.0000 0.0000 ( 22119 PWs)   bands (ev):

   -23.6219  -7.0329  -7.0303  -7.0298  -6.9337  -6.9165  -0.2377   0.5709

     the Fermi energy is    -6.8960 ev

!    total energy              =     -31.49023732 Ry
     Harris-Foulkes estimate   =     -31.49023736 Ry
     estimated scf accuracy    <          4.4E-10 Ry

     convergence has been achieved in  15 iterations

     Forces acting on atoms (Ry/au):

     atom    1 type  1   force =     0.00034293    0.00035531    0.00020892
     atom    2 type  1   force =     0.00022768    0.00014281    0.00006254
     atom    3 type  2   force =    -0.00057061   -0.00049812   -0.00027146

     Total force =     0.001006     Total SCF correction =     0.000029

     Entering Dynamics:    iteration =     2
                           time      =   0.0097 pico-seconds


     Andersen thermostat:    3 collisions

ATOMIC_POSITIONS (bohr)
H        9.320897334   2.598137378   3.616873376
H        0.462604237  16.694797264   1.342599314
O       17.428984143  10.489395806  14.307231025


     kinetic energy (Ekin) =     0.00853670 Ry
     temperature           =   449.27895686 K 
     Ekin + Etot (const)   =   -31.48170062 Ry
     Message from routine dynamics:
     Total linear momentum <> 0

     Linear momentum :   -0.0482643422    0.4839037204    0.0463385468

     Writing output data file pwscf.save

     first order wave-functions extrapolation
     Check: negative starting charge=   -0.352072
     first order charge density extrapolation
     Check: negative starting charge=   -0.352405

     negative rho (up, down):  1.117E-01 0.000E+00

     total cpu time spent up to now is        2.5 secs

     per-process dynamical memory:    20.4 Mb

     Self-consistent Calculation

     iteration #  1     ecut=    30.00 Ry     beta=0.70
     Davidson diagonalization with overlap
     c_bands:  1 eigenvalues not converged
     ethr =  1.00E-06,  avg # of iterations = 20.0

     negative rho (up, down):  2.633E-02 0.000E+00

     total cpu time spent up to now is        2.6 secs

     total energy              =     -31.41141473 Ry
     Harris-Foulkes estimate   =     -31.41466869 Ry
     estimated scf accuracy    <       0.06847378 Ry

     iteration #  2     ecut=    30.00 Ry     beta=0.70
     Davidson diagonalization with overlap
     ethr =  8.56E-04,  avg # of iterations =  2.0

     negative rho (up, down):  2.384E-02 0.000E+00

     total cpu time spent up to now is        2.6 secs

     total energy              =     -31.48017344 Ry
     Harris-Foulkes estimate   =     -32.05358881 Ry
     estimated scf accuracy    <       4.57080213 Ry

     iteration #  3     ecut=    30.00 Ry     beta=0.70
     Davidson diagonalization with overlap
     ethr =  8.56E-04,  avg # of iterations =  2.0

     negative rho (up, down):  2.282E-02 0.000E+00

     total cpu time spent up to now is        2.7 secs

     total energy              =     -31.46895825 Ry
     Harris-Foulkes estimate   =     -31.52510955 Ry
     estimated scf accuracy    <       1.02749068 Ry

     iteration #  4     ecut=    30.00 Ry     beta=0.70
     Davidson diagonalization with overlap
     ethr =  8.56E-04,  avg # of iterations =  1.0

     negative rho (up, down):  1.993E-02 0.000E+00

     total cpu time spent up to now is        2.7 secs

     total energy              =     -31.37236604 Ry
     Harris-Foulkes estimate   =     -31.48632738 Ry
     estimated scf accuracy    <       1.91445881 Ry

     iteration #  5     ecut=    30.00 Ry     beta=0.70
     Davidson diagonalization with overlap
     ethr =  8.56E-04,  avg # of iterations =  1.0

     negative rho (up, down):  7.216E-03 0.000E+00

     total cpu time spent up to now is        2.7 secs

     total energy              =     -31.46173913 Ry
     Harris-Foulkes estimate   =     -31.53649210 Ry
     estimated scf accuracy    <       2.71317707 Ry

     iteration #  6     ecut=    30.00 Ry     beta=0.70
     Davidson diagonalization with overlap
     ethr =  8.56E-04,  avg # of iterations =  1.0

     negative rho (up, down):  1.895E-03 0.000E+00

     total cpu time spent up to now is        2.8 secs

     total energy              =     -31.48858777 Ry
     Harris-Foulkes estimate   =     -31.48489810 Ry
     estimated scf accuracy    <       0.10435883 Ry

     iteration #  7     ecut=    30.00 Ry     beta=0.70
     Davidson diagonalization with overlap
     ethr =  8.56E-04,  avg # of iterations =  1.0

     negative rho (up, down):  4.078E-04 0.000E+00

     total cpu time spent up to now is        2.8 secs

     total energy              =     -31.49097012 Ry
     Harris-Foulkes estimate   =     -31.48934588 Ry
     estimated scf accuracy    <       0.02047027 Ry

     iteration #  8     ecut=    30.00 Ry     beta=0.70
     Davidson diagonalization with overlap
     ethr =  2.56E-04,  avg # of iterations =  3.0

     negative rho (up, down):  4.243E-06 0.000E+00

     total cpu time spent up to now is        2.8 secs

     total energy              =     -31.48902052 Ry
     Harris-Foulkes estimate   =     -31.49137227 Ry
     estimated scf accuracy    <       0.11830272 Ry

     iteration #  9     ecut=    30.00 Ry     beta=0.70
     Davidson diagonalization with overlap
     ethr =  2.56E-04,  avg # of iterations =  1.0

     negative rho (up, down):  7.393E-08 0.000E+00

     total cpu time spent up to now is        2.9 secs

     total energy              =     -31.49030664 Ry
     Harris-Foulkes estimate   =     -31.49026443 Ry
     estimated scf accuracy    <       0.00056529 Ry

     iteration # 10     ecut=    30.00 Ry     beta=0.70
     Davidson diagonalization with overlap
     ethr =  7.07E-06,  avg # of iterations = 13.0

     negative rho (up, down):  2.192E-08 0.000E+00

     total cpu time spent up to now is        2.9 secs

     total energy              =     -31.49036884 Ry
     Harris-Foulkes estimate   =     -31.49038512 Ry
     estimated scf accuracy    <       0.01323106 Ry

     iteration # 11     ecut=    30.00 Ry     beta=0.70
     Davidson diagonalization with overlap
     ethr =  7.07E-06,  avg # of iterations =  1.0

     total cpu time spent up to now is        3.0 secs

     total energy              =     -31.49029447 Ry
     Harris-Foulkes estimate   =     -31.49036956 Ry
     estimated scf accuracy    <       0.01163615 Ry

     iteration # 12     ecut=    30.00 Ry     beta=0.70
     Davidson diagonalization with overlap
     ethr =  7.07E-06,  avg # of iterations =  1.0

     total cpu time spent up to now is        3.0 secs

     total energy              =     -31.49026180 Ry
     Harris-Foulkes estimate   =     -31.49030730 Ry
     estimated scf accuracy    <       0.00496023 Ry

     iteration # 13     ecut=    30.00 Ry     beta=0.70
     Davidson diagonalization with overlap
     ethr =  7.07E-06,  avg # of iterations =  1.0

     total cpu time spent up to now is        3.0 secs

     total energy              =     -31.49024611 Ry
     Harris-Foulkes estimate   =     -31.49027279 Ry
     estimated scf accuracy    <       0.00132368 Ry

     iteration # 14     ecut=    30.00 Ry     beta=0.70
     Davidson diagonalization with overlap
     ethr =  7.07E-06,  avg # of iterations =  1.0

     total cpu time spent up to now is        3.1 secs

     total energy              =     -31.49025899 Ry
     Harris-Foulkes estimate   =     -31.49025893 Ry
     estimated scf accuracy    <       0.00000018 Ry

     iteration # 15     ecut=    30.00 Ry     beta=0.70
     Davidson diagonalization with overlap
     ethr =  2.25E-09,  avg # of iterations =  1.0

     total cpu time spent up to now is        3.1 secs

     total energy              =     -31.49025893 Ry
     Harris-Foulkes estimate   =     -31.49025899 Ry
     estimated scf accuracy    <       0.00000014 Ry

     iteration # 16     ecut=    30.00 Ry     beta=0.70
     Davidson diagonalization with overlap
     ethr =  1.75E-09,  avg # of iterations =  1.0

     total cpu time spent up to now is        3.1 secs

     total energy              =     -31.49025891 Ry
     Harris-Foulkes estimate   =     -31.49025893 Ry
     estimated scf accuracy    <       0.00000030 Ry

     iteration # 17     ecut=    30.00 Ry     beta=0.70
     Davidson diagonalization with overlap
     ethr =  1.75E-09,  avg # of iterations =  1.0

     total cpu time spent up to now is        3.2 secs

     total energy              =     -31.49025893 Ry
     Harris-Foulkes estimate   =     -31.49025891 Ry
     estimated scf accuracy    <       0.00000021 Ry

     iteration # 18     ecut=    30.00 Ry     beta=0.70
     Davidson diagonalization with overlap
     ethr =  1.75E-09,  avg # of iterations =  1.0

     total cpu time spent up to now is        3.2 secs

     total energy              =     -31.49025890 Ry
     Harris-Foulkes estimate   =     -31.49025893 Ry
     estimated scf accuracy    <       0.00000003 Ry

     iteration # 19     ecut=    30.00 Ry     beta=0.70
     Davidson diagonalization with overlap
     ethr =  3.45E-10,  avg # of iterations =  1.0

     total cpu time spent up to now is        3.2 secs

     End of self-consistent calculation

          k = 0.0000 0.0000 0.0000 ( 22119 PWs)   bands (ev):

   -23.6202  -7.0313  -7.0288  -7.0282  -6.9314  -6.9156  -0.2386   0.5736

     the Fermi energy is    -6.8944 ev

!    total energy              =     -31.49025880 Ry
     Harris-Foulkes estimate   =     -31.49025890 Ry
     estimated scf accuracy    <          5.4E-09 Ry

     convergence has been achieved in  19 iterations

     Forces acting on atoms (Ry/au):

     atom    1 type  1   force =     0.00030657    0.00021177    0.00023636
     atom    2 type  1   force =     0.00019215   -0.00000754    0.00011359
     atom    3 type  2   force =    -0.00049871   -0.00020423   -0.00034995

     Total force =     0.000811     Total SCF correction =     0.000754
     SCF correction compared to forces is large: reduce conv_thr to get better values

     Entering Dynamics:    iteration =     3
                           time      =   0.0145 pico-seconds


     Andersen thermostat:    3 collisions

ATOMIC_POSITIONS (bohr)
H        9.545840116   2.317718643   3.707888614
H        0.608048630  16.767272424   1.682783451
O       17.405603453  10.502522244  14.280011565


     kinetic energy (Ekin) =     0.01673033 Ry
     temperature           =   880.50238900 K 
     Ekin + Etot (const)   =   -31.47352847 Ry
     Message from routine dynamics:
     Total linear momentum <> 0

     Linear momentum :    0.3047675616   -0.3500624036   -0.1369358232

     Writing output data file pwscf.save

     second order wave-functions extrapolation
     Check: negative starting charge=   -0.352405
     second order charge density extrapolation
     Check: negative starting charge=   -0.352866

     negative rho (up, down):  6.475E-02 0.000E+00

     total cpu time spent up to now is        3.5 secs

     per-process dynamical memory:    20.4 Mb

     Self-consistent Calculation

     iteration #  1     ecut=    30.00 Ry     beta=0.70
     Davidson diagonalization with overlap
     c_bands:  1 eigenvalues not converged
     ethr =  1.00E-06,  avg # of iterations = 20.0

     negative rho (up, down):  1.450E-02 0.000E+00

     total cpu time spent up to now is        3.7 secs

     total energy              =     -31.43779360 Ry
     Harris-Foulkes estimate   =     -31.43358145 Ry
     estimated scf accuracy    <       0.04744430 Ry

     iteration #  2     ecut=    30.00 Ry     beta=0.70
     Davidson diagonalization with overlap
     ethr =  5.93E-04,  avg # of iterations =  2.0

     negative rho (up, down):  1.329E-02 0.000E+00

     total cpu time spent up to now is        3.7 secs

     total energy              =     -31.48737735 Ry
     Harris-Foulkes estimate   =     -31.98469550 Ry
     estimated scf accuracy    <       4.43933605 Ry

     iteration #  3     ecut=    30.00 Ry     beta=0.70
     Davidson diagonalization with overlap
     ethr =  5.93E-04,  avg # of iterations =  2.0

     negative rho (up, down):  1.308E-02 0.000E+00

     total cpu time spent up to now is        3.8 secs

     total energy              =     -31.48196533 Ry
     Harris-Foulkes estimate   =     -31.49604892 Ry
     estimated scf accuracy    <       1.57238498 Ry

     iteration #  4     ecut=    30.00 Ry     beta=0.70
     Davidson diagonalization with overlap
     ethr =  5.93E-04,  avg # of iterations =  1.0

     negative rho (up, down):  9.029E-03 0.000E+00

     total cpu time spent up to now is        3.8 secs

     total energy              =     -31.41472726 Ry
     Harris-Foulkes estimate   =     -31.48615415 Ry
     estimated scf accuracy    <       0.98121779 Ry

     iteration #  5     ecut=    30.00 Ry     beta=0.70
     Davidson diagonalization with overlap
     ethr =  5.93E-04,  avg # of iterations =  1.0

     negative rho (up, down):  2.660E-03 0.000E+00

     total cpu time spent up to now is        3.8 secs

     total energy              =     -31.45426910 Ry
     Harris-Foulkes estimate   =     -31.55016940 Ry
     estimated scf accuracy    <       2.79184440 Ry

     iteration #  6     ecut=    30.00 Ry     beta=0.70
     Davidson diagonalization with overlap
     ethr =  5.93E-04,  avg # of iterations =  1.0

     negative rho (up, down):  5.724E-04 0.000E+00

     total cpu time spent up to now is        3.9 secs

     total energy              =     -31.48976608 Ry
     Harris-Foulkes estimate   =     -31.48833131 Ry
     estimated scf accuracy    <       0.00720979 Ry

     iteration #  7     ecut=    30.00 Ry     beta=0.70
     Davidson diagonalization with overlap
     ethr =  9.01E-05,  avg # of iterations =  5.0

     negative rho (up, down):  2.614E-04 0.000E+00

     total cpu time spent up to now is        3.9 secs

     total energy              =     -31.49102143 Ry
     Harris-Foulkes estimate   =     -31.49054300 Ry
     estimated scf accuracy    <       0.04184681 Ry

     iteration #  8     ecut=    30.00 Ry     beta=0.70
     Davidson diagonalization with overlap
     ethr =  9.01E-05,  avg # of iterations =  1.0

     negative rho (up, down):  1.623E-06 0.000E+00

     total cpu time spent up to now is        3.9 secs

     total energy              =     -31.48961652 Ry
     Harris-Foulkes estimate   =     -31.49116113 Ry
     estimated scf accuracy    <       0.10439119 Ry

     iteration #  9     ecut=    30.00 Ry     beta=0.70
     Davidson diagonalization with overlap
     ethr =  9.01E-05,  avg # of iterations =  1.0

     total cpu time spent up to now is        4.0 secs

     total energy              =     -31.48989152 Ry
     Harris-Foulkes estimate   =     -31.49023868 Ry
     estimated scf accuracy    <       0.00496951 Ry

     iteration # 10     ecut=    30.00 Ry     beta=0.70
     Davidson diagonalization with overlap
     ethr =  6.21E-05,  avg # of iterations =  1.0

     total cpu time spent up to now is        4.0 secs

     total energy              =     -31.49032558 Ry
     Harris-Foulkes estimate   =     -31.49061804 Ry
     estimated scf accuracy    <       0.04768578 Ry

     iteration # 11     ecut=    30.00 Ry     beta=0.70
     Davidson diagonalization with overlap
     ethr =  6.21E-05,  avg # of iterations =  1.0

     total cpu time spent up to now is        4.0 secs

     total energy              =     -31.49001305 Ry
     Harris-Foulkes estimate   =     -31.49037518 Ry
     estimated scf accuracy    <       0.02070785 Ry

     iteration # 12     ecut=    30.00 Ry     beta=0.70
     Davidson diagonalization with overlap
     ethr =  6.21E-05,  avg # of iterations =  1.0

     total cpu time spent up to now is        4.1 secs

     total energy              =     -31.49018496 Ry
     Harris-Foulkes estimate   =     -31.49018800 Ry
     estimated scf accuracy    <       0.00001925 Ry

     iteration # 13     ecut=    30.00 Ry     beta=0.70
     Davidson diagonalization with overlap
     ethr =  2.41E-07,  avg # of iterations =  8.0

     total cpu time spent up to now is        4.1 secs

     total energy              =     -31.49017804 Ry
     Harris-Foulkes estimate   =     -31.49020155 Ry
     estimated scf accuracy    <       0.00146953 Ry

     iteration # 14     ecut=    30.00 Ry     beta=0.70
     Davidson diagonalization with overlap
     ethr =  2.41E-07,  avg # of iterations =  1.0

     total cpu time spent up to now is        4.2 secs

     total energy              =     -31.49018773 Ry
     Harris-Foulkes estimate   =     -31.49018820 Ry
     estimated scf accuracy    <       0.00002418 Ry

     iteration # 15     ecut=    30.00 Ry     beta=0.70
     Davidson diagonalization with overlap
     ethr =  2.41E-07,  avg # of iterations =  1.0

     total cpu time spent up to now is        4.2 secs

     total energy              =     -31.49018782 Ry
     Harris-Foulkes estimate   =     -31.49018790 Ry
     estimated scf accuracy    <       0.00000032 Ry

     iteration # 16     ecut=    30.00 Ry     beta=0.70
     Davidson diagonalization with overlap
     ethr =  4.06E-09,  avg # of iterations =  1.0

     total cpu time spent up to now is        4.2 secs

     End of self-consistent calculation

          k = 0.0000 0.0000 0.0000 ( 22119 PWs)   bands (ev):

   -23.6239  -7.0338  -7.0319  -7.0315  -6.9357  -6.9183  -0.2403   0.5663

     the Fermi energy is    -6.8976 ev

!    total energy              =     -31.49018777 Ry
     Harris-Foulkes estimate   =     -31.49018782 Ry
     estimated scf accuracy    <          2.4E-09 Ry

     convergence has been achieved in  16 iterations

     Forces acting on atoms (Ry/au):

     atom    1 type  1   force =     0.00035481    0.00028291   -0.00016463
     atom    2 type  1   force =     0.00018666    0.00005190   -0.00032045
     atom    3 type  2   force =    -0.00054147   -0.00033481    0.00048508

     Total force =     0.001007     Total SCF correction =     0.000132
     SCF correction compared to forces is large: reduce conv_thr to get better values

     Entering Dynamics:    iteration =     4
                           time      =   0.0194 pico-seconds


     Andersen thermostat:    3 collisions

ATOMIC_POSITIONS (bohr)
H        9.538111735   2.184656011   3.615155475
H        0.413239139  16.433016694   1.483801773
O       17.418388656  10.532021716  14.298426062


     kinetic energy (Ekin) =     0.01979931 Ry
     temperature           =  1042.02005506 K 
     Ekin + Etot (const)   =   -31.47038846 Ry
     Message from routine dynamics:
     Total linear momentum <> 0

     Linear momentum :    0.6585480540    0.4524520681   -0.2987964083

     Writing output data file pwscf.save

     second order wave-functions extrapolation
     Check: negative starting charge=   -0.352866
     second order charge density extrapolation
     Check: negative starting charge=   -0.351834

     negative rho (up, down):  5.965E-02 0.000E+00

     total cpu time spent up to now is        4.5 secs

     per-process dynamical memory:    20.4 Mb

     Self-consistent Calculation

     iteration #  1     ecut=    30.00 Ry     beta=0.70
     Davidson diagonalization with overlap
     c_bands:  1 eigenvalues not converged
     ethr =  1.00E-06,  avg # of iterations = 20.0

     negative rho (up, down):  1.324E-02 0.000E+00

     total cpu time spent up to now is        4.7 secs

     total energy              =     -31.45570743 Ry
     Harris-Foulkes estimate   =     -31.44082605 Ry
     estimated scf accuracy    <       0.02848902 Ry

     iteration #  2     ecut=    30.00 Ry     beta=0.70
     Davidson diagonalization with overlap
     ethr =  3.56E-04,  avg # of iterations =  2.0

     negative rho (up, down):  1.241E-02 0.000E+00

     total cpu time spent up to now is        4.7 secs

     total energy              =     -31.45867534 Ry
     Harris-Foulkes estimate   =     -31.80895437 Ry
     estimated scf accuracy    <       4.14087647 Ry

     iteration #  3     ecut=    30.00 Ry     beta=0.70
     Davidson diagonalization with overlap
     ethr =  3.56E-04,  avg # of iterations =  2.0

     negative rho (up, down):  1.188E-02 0.000E+00

     total cpu time spent up to now is        4.8 secs

     total energy              =     -31.46328636 Ry
     Harris-Foulkes estimate   =     -31.53729767 Ry
     estimated scf accuracy    <       1.26102407 Ry

     iteration #  4     ecut=    30.00 Ry     beta=0.70
     Davidson diagonalization with overlap
     ethr =  3.56E-04,  avg # of iterations =  1.0

     negative rho (up, down):  3.501E-03 0.000E+00

     total cpu time spent up to now is        4.8 secs

     total energy              =     -31.46489951 Ry
     Harris-Foulkes estimate   =     -31.48111336 Ry
     estimated scf accuracy    <       0.22831575 Ry

     iteration #  5     ecut=    30.00 Ry     beta=0.70
     Davidson diagonalization with overlap
     ethr =  3.56E-04,  avg # of iterations =  1.0

     negative rho (up, down):  1.566E-03 0.000E+00

     total cpu time spent up to now is        4.8 secs

     total energy              =     -31.47264030 Ry
     Harris-Foulkes estimate   =     -31.52023151 Ry
     estimated scf accuracy    <       1.63487849 Ry

     iteration #  6     ecut=    30.00 Ry     beta=0.70
     Davidson diagonalization with overlap
     ethr =  3.56E-04,  avg # of iterations =  3.0

     negative rho (up, down):  1.013E-04 0.000E+00

     total cpu time spent up to now is        4.9 secs

     total energy              =     -31.48883323 Ry
     Harris-Foulkes estimate   =     -31.49003889 Ry
     estimated scf accuracy    <       0.03301869 Ry

     iteration #  7     ecut=    30.00 Ry     beta=0.70
     Davidson diagonalization with overlap
     ethr =  3.56E-04,  avg # of iterations =  3.0

     negative rho (up, down):  4.931E-05 0.000E+00

     total cpu time spent up to now is        4.9 secs

     total energy              =     -31.48993805 Ry
     Harris-Foulkes estimate   =     -31.49162727 Ry
     estimated scf accuracy    <       0.13240457 Ry

     iteration #  8     ecut=    30.00 Ry     beta=0.70
     Davidson diagonalization with overlap
     ethr =  3.56E-04,  avg # of iterations =  1.0

     negative rho (up, down):  3.631E-05 0.000E+00

     total cpu time spent up to now is        4.9 secs

     total energy              =     -31.49004974 Ry
     Harris-Foulkes estimate   =     -31.49055903 Ry
     estimated scf accuracy    <       0.02197501 Ry

     iteration #  9     ecut=    30.00 Ry     beta=0.70
     Davidson diagonalization with overlap
     ethr =  2.75E-04,  avg # of iterations =  1.0

     negative rho (up, down):  8.128E-08 0.000E+00

     total cpu time spent up to now is        5.0 secs

     total energy              =     -31.49024508 Ry
     Harris-Foulkes estimate   =     -31.49024548 Ry
     estimated scf accuracy    <       0.00148891 Ry

     iteration # 10     ecut=    30.00 Ry     beta=0.70
     Davidson diagonalization with overlap
     ethr =  1.86E-05,  avg # of iterations = 13.0

     total cpu time spent up to now is        5.0 secs

     total energy              =     -31.49023689 Ry
     Harris-Foulkes estimate   =     -31.49038054 Ry
     estimated scf accuracy    <       0.01110377 Ry

     iteration # 11     ecut=    30.00 Ry     beta=0.70
     Davidson diagonalization with overlap
     ethr =  1.86E-05,  avg # of iterations =  1.0

     total cpu time spent up to now is        5.0 secs

     total energy              =     -31.49020461 Ry
     Harris-Foulkes estimate   =     -31.49028704 Ry
     estimated scf accuracy    <       0.00366962 Ry

     iteration # 12     ecut=    30.00 Ry     beta=0.70
     Davidson diagonalization with overlap
     ethr =  1.86E-05,  avg # of iterations =  1.0

     total cpu time spent up to now is        5.1 secs

     total energy              =     -31.49025391 Ry
     Harris-Foulkes estimate   =     -31.49025583 Ry
     estimated scf accuracy    <       0.00022036 Ry

     iteration # 13     ecut=    30.00 Ry     beta=0.70
     Davidson diagonalization with overlap
     ethr =  2.75E-06,  avg # of iterations =  1.0

     total cpu time spent up to now is        5.1 secs

     total energy              =     -31.49025278 Ry
     Harris-Foulkes estimate   =     -31.49025434 Ry
     estimated scf accuracy    <       0.00007662 Ry

     iteration # 14     ecut=    30.00 Ry     beta=0.70
     Davidson diagonalization with overlap
     ethr =  9.58E-07,  avg # of iterations =  1.0

     total cpu time spent up to now is        5.1 secs

     total energy              =     -31.49025375 Ry
     Harris-Foulkes estimate   =     -31.49025381 Ry
     estimated scf accuracy    <       0.00000202 Ry

     iteration # 15     ecut=    30.00 Ry     beta=0.70
     Davidson diagonalization with overlap
     ethr =  2.53E-08,  avg # of iterations =  1.0

     total cpu time spent up to now is        5.2 secs

     total energy              =     -31.49025377 Ry
     Harris-Foulkes estimate   =     -31.49025376 Ry
     estimated scf accuracy    <       0.00000007 Ry

     iteration # 16     ecut=    30.00 Ry     beta=0.70
     Davidson diagonalization with overlap
     ethr =  9.18E-10,  avg # of iterations =  1.0

     total cpu time spent up to now is        5.2 secs

     End of self-consistent calculation

          k = 0.0000 0.0000 0.0000 ( 22119 PWs)   bands (ev):

   -23.6205  -7.0318  -7.0290  -7.0286  -6.9314  -6.9158  -0.2378   0.5697

     the Fermi energy is    -6.8947 ev

!    total energy              =     -31.49025377 Ry
     Harris-Foulkes estimate   =     -31.49025377 Ry
     estimated scf accuracy    <          1.6E-09 Ry

     convergence has been achieved in  16 iterations

     Forces acting on atoms (Ry/au):

     atom    1 type  1   force =     0.00037152    0.00018719   -0.00007536
     atom    2 type  1   force =     0.00025547   -0.00001127   -0.00017745
     atom    3 type  2   force =    -0.00062699   -0.00017592    0.00025281

     Total force =     0.000874     Total SCF correction =     0.000029

     Entering Dynamics:    iteration =     5
                           time      =   0.0242 pico-seconds


     Andersen thermostat:    3 collisions

ATOMIC_POSITIONS (bohr)
H        9.358836998   2.480084765   3.919258740
H       -0.118639915  16.648379602   1.203289787
O       17.463280239  10.499777992  14.296936863


     kinetic energy (Ekin) =     0.03193762 Ry
     temperature           =  1680.84843950 K 
     Ekin + Etot (const)   =   -31.45831615 Ry
     Message from routine dynamics:
     Total linear momentum <> 0

     Linear momentum :    0.2555715914    0.0401351917   -0.1541686132

     Writing output data file pwscf.save

     second order wave-functions extrapolation
     Check: negative starting charge=   -0.351834
     second order charge density extrapolation
     Check: negative starting charge=   -0.351458

     negative rho (up, down):  6.963E-02 0.000E+00

     total cpu time spent up to now is        5.6 secs

     per-process dynamical memory:    20.4 Mb

     Self-consistent Calculation

     iteration #  1     ecut=    30.00 Ry     beta=0.70
     Davidson diagonalization with overlap
     c_bands:  1 eigenvalues not converged
     ethr =  1.00E-06,  avg # of iterations = 20.0

     negative rho (up, down):  1.569E-02 0.000E+00

     total cpu time spent up to now is        5.7 secs

     total energy              =     -31.42286197 Ry
     Harris-Foulkes estimate   =     -31.44106817 Ry
     estimated scf accuracy    <       0.07015500 Ry

     iteration #  2     ecut=    30.00 Ry     beta=0.70
     Davidson diagonalization with overlap
     ethr =  8.77E-04,  avg # of iterations =  2.0

     negative rho (up, down):  1.349E-02 0.000E+00

     total cpu time spent up to now is        5.7 secs

     total energy              =     -31.48542544 Ry
     Harris-Foulkes estimate   =     -31.74323302 Ry
     estimated scf accuracy    <       1.45646022 Ry

     iteration #  3     ecut=    30.00 Ry     beta=0.70
     Davidson diagonalization with overlap
     ethr =  8.77E-04,  avg # of iterations =  2.0

     negative rho (up, down):  1.296E-02 0.000E+00

     total cpu time spent up to now is        5.8 secs

     total energy              =     -31.47920833 Ry
     Harris-Foulkes estimate   =     -31.65611859 Ry
     estimated scf accuracy    <       3.02055284 Ry

     iteration #  4     ecut=    30.00 Ry     beta=0.70
     Davidson diagonalization with overlap
     ethr =  8.77E-04,  avg # of iterations =  1.0

     negative rho (up, down):  1.227E-02 0.000E+00

     total cpu time spent up to now is        5.8 secs

     total energy              =     -31.47371136 Ry
     Harris-Foulkes estimate   =     -31.50589952 Ry
     estimated scf accuracy    <       0.64028127 Ry

     iteration #  5     ecut=    30.00 Ry     beta=0.70
     Davidson diagonalization with overlap
     ethr =  8.77E-04,  avg # of iterations =  1.0

     negative rho (up, down):  2.653E-03 0.000E+00

     total cpu time spent up to now is        5.8 secs

     total energy              =     -31.47901980 Ry
     Harris-Foulkes estimate   =     -31.47989168 Ry
     estimated scf accuracy    <       0.08404975 Ry

     iteration #  6     ecut=    30.00 Ry     beta=0.70
     Davidson diagonalization with overlap
     ethr =  8.77E-04,  avg # of iterations =  1.0

     negative rho (up, down):  1.216E-03 0.000E+00

     total cpu time spent up to now is        5.9 secs

     total energy              =     -31.48036966 Ry
     Harris-Foulkes estimate   =     -31.50061392 Ry
     estimated scf accuracy    <       0.72644253 Ry

     iteration #  7     ecut=    30.00 Ry     beta=0.70
     Davidson diagonalization with overlap
     ethr =  8.77E-04,  avg # of iterations =  1.0

     negative rho (up, down):  4.382E-04 0.000E+00

     total cpu time spent up to now is        5.9 secs

     total energy              =     -31.48963112 Ry
     Harris-Foulkes estimate   =     -31.49003567 Ry
     estimated scf accuracy    <       0.01137124 Ry

     iteration #  8     ecut=    30.00 Ry     beta=0.70
     Davidson diagonalization with overlap
     ethr =  1.42E-04,  avg # of iterations =  9.0

     negative rho (up, down):  1.991E-05 0.000E+00

     total cpu time spent up to now is        5.9 secs

     total energy              =     -31.48841912 Ry
     Harris-Foulkes estimate   =     -31.49178305 Ry
     estimated scf accuracy    <       0.08965479 Ry

     iteration #  9     ecut=    30.00 Ry     beta=0.70
     Davidson diagonalization with overlap
     ethr =  1.42E-04,  avg # of iterations =  1.0

     negative rho (up, down):  8.871E-08 0.000E+00

     total cpu time spent up to now is        6.0 secs

     total energy              =     -31.49010669 Ry
     Harris-Foulkes estimate   =     -31.49031114 Ry
     estimated scf accuracy    <       0.00289936 Ry

     iteration # 10     ecut=    30.00 Ry     beta=0.70
     Davidson diagonalization with overlap
     ethr =  3.62E-05,  avg # of iterations =  1.0

     total cpu time spent up to now is        6.0 secs

     total energy              =     -31.49019241 Ry
     Harris-Foulkes estimate   =     -31.49041082 Ry
     estimated scf accuracy    <       0.00874754 Ry

     iteration # 11     ecut=    30.00 Ry     beta=0.70
     Davidson diagonalization with overlap
     ethr =  3.62E-05,  avg # of iterations =  1.0

     total cpu time spent up to now is        6.0 secs

     total energy              =     -31.49028011 Ry
     Harris-Foulkes estimate   =     -31.49028612 Ry
     estimated scf accuracy    <       0.00015222 Ry

     iteration # 12     ecut=    30.00 Ry     beta=0.70
     Davidson diagonalization with overlap
     ethr =  1.90E-06,  avg # of iterations = 14.0

     total cpu time spent up to now is        6.1 secs

     total energy              =     -31.49028286 Ry
     Harris-Foulkes estimate   =     -31.49028485 Ry
     estimated scf accuracy    <       0.00008097 Ry

     iteration # 13     ecut=    30.00 Ry     beta=0.70
     Davidson diagonalization with overlap
     ethr =  1.01E-06,  avg # of iterations =  1.0

     total cpu time spent up to now is        6.1 secs

     total energy              =     -31.49028386 Ry
     Harris-Foulkes estimate   =     -31.49028416 Ry
     estimated scf accuracy    <       0.00000772 Ry

     iteration # 14     ecut=    30.00 Ry     beta=0.70
     Davidson diagonalization with overlap
     ethr =  9.65E-08,  avg # of iterations =  1.0

     total cpu time spent up to now is        6.1 secs

     total energy              =     -31.49028404 Ry
     Harris-Foulkes estimate   =     -31.49028400 Ry
     estimated scf accuracy    <       0.00000014 Ry

     iteration # 15     ecut=    30.00 Ry     beta=0.70
     Davidson diagonalization with overlap
     ethr =  1.73E-09,  avg # of iterations =  1.0

     total cpu time spent up to now is        6.2 secs

     End of self-consistent calculation

          k = 0.0000 0.0000 0.0000 ( 22119 PWs)   bands (ev):

   -23.6169  -7.0288  -7.0260  -7.0252  -6.9266  -6.9143  -0.2373   0.5788

     the Fermi energy is    -6.8915 ev

!    total energy              =     -31.49028406 Ry
     Harris-Foulkes estimate   =     -31.49028404 Ry
     estimated scf accuracy    <          7.3E-10 Ry

     convergence has been achieved in  15 iterations

     Forces acting on atoms (Ry/au):

     atom    1 type  1   force =     0.00024810    0.00037929   -0.00007695
     atom    2 type  1   force =     0.00012492    0.00014217   -0.00028134
     atom    3 type  2   force =    -0.00037302   -0.00052146    0.00035829

     Total force =     0.000930     Total SCF correction =     0.000040

     Entering Dynamics:    iteration =     6
                           time      =   0.0290 pico-seconds


     Andersen thermostat:    3 collisions

ATOMIC_POSITIONS (bohr)
H        9.336086957   1.896886283   3.800039285
H       -0.484062663  16.432818374   1.550633870
O       17.487783646  10.550199699  14.282536496


     kinetic energy (Ekin) =     0.03345765 Ry
     temperature           =  1760.84605767 K 
     Ekin + Etot (const)   =   -31.45682641 Ry
     Message from routine dynamics:
     Total linear momentum <> 0

     Linear momentum :    0.0271839412   -0.0722010692   -0.2133873842

     Writing output data file pwscf.save

     second order wave-functions extrapolation
     Check: negative starting charge=   -0.351458
     second order charge density extrapolation
     Check: negative starting charge=   -0.350861

     negative rho (up, down):  8.907E-02 0.000E+00

     total cpu time spent up to now is        6.5 secs

     per-process dynamical memory:    20.4 Mb

     Self-consistent Calculation

     iteration #  1     ecut=    30.00 Ry     beta=0.70
     Davidson diagonalization with overlap
     c_bands:  1 eigenvalues not converged
     ethr =  1.00E-06,  avg # of iterations = 20.0

     negative rho (up, down):  2.140E-02 0.000E+00

     total cpu time spent up to now is        6.6 secs

     total energy              =     -30.50972164 Ry
     Harris-Foulkes estimate   =     -31.69460788 Ry
     estimated scf accuracy    <       1.05517766 Ry

     iteration #  2     ecut=    30.00 Ry     beta=0.70
     Davidson diagonalization with overlap
     ethr =  1.00E-02,  avg # of iterations =  3.0

     negative rho (up, down):  1.699E-02 0.000E+00

     total cpu time spent up to now is        6.7 secs

     total energy              =     -31.49013222 Ry
     Harris-Foulkes estimate   =     -33.33442849 Ry
     estimated scf accuracy    <       5.75746894 Ry

     iteration #  3     ecut=    30.00 Ry     beta=0.70
     Davidson diagonalization with overlap
     ethr =  1.00E-02,  avg # of iterations =  2.0

     negative rho (up, down):  1.404E-02 0.000E+00

     total cpu time spent up to now is        6.7 secs

     total energy              =     -31.77230728 Ry
     Harris-Foulkes estimate   =     -32.29564117 Ry
     estimated scf accuracy    <       2.18464992 Ry

     iteration #  4     ecut=    30.00 Ry     beta=0.70
     Davidson diagonalization with overlap
     ethr =  1.00E-02,  avg # of iterations =  1.0

     negative rho (up, down):  1.331E-02 0.000E+00

     total cpu time spent up to now is        6.8 secs

     total energy              =     -31.68584962 Ry
     Harris-Foulkes estimate   =     -31.78078606 Ry
     estimated scf accuracy    <       1.49115942 Ry

     iteration #  5     ecut=    30.00 Ry     beta=0.70
     Davidson diagonalization with overlap
     ethr =  1.00E-02,  avg # of iterations =  3.0

     negative rho (up, down):  1.036E-02 0.000E+00

     total cpu time spent up to now is        6.8 secs

     total energy              =     -31.57779304 Ry
     Harris-Foulkes estimate   =     -31.75522445 Ry
     estimated scf accuracy    <       2.86242896 Ry

     iteration #  6     ecut=    30.00 Ry     beta=0.70
     Davidson diagonalization with overlap
     ethr =  1.00E-02,  avg # of iterations =  1.0

     negative rho (up, down):  1.273E-03 0.000E+00

     total cpu time spent up to now is        6.9 secs

     total energy              =     -31.32085733 Ry
     Harris-Foulkes estimate   =     -31.57974116 Ry
     estimated scf accuracy    <       2.85313969 Ry

     iteration #  7     ecut=    30.00 Ry     beta=0.70
     Davidson diagonalization with overlap
     ethr =  1.00E-02,  avg # of iterations =  2.0

     negative rho (up, down):  2.400E-03 0.000E+00

     total cpu time spent up to now is        6.9 secs

     total energy              =     -32.12202491 Ry
     Harris-Foulkes estimate   =     -32.56997711 Ry
     estimated scf accuracy    <       2.76260996 Ry

     iteration #  8     ecut=    30.00 Ry     beta=0.70
     Davidson diagonalization with overlap
     ethr =  1.00E-02,  avg # of iterations =  1.0

     negative rho (up, down):  3.655E-03 0.000E+00

     total cpu time spent up to now is        7.0 secs

     total energy              =     -31.80162863 Ry
     Harris-Foulkes estimate   =     -32.12638258 Ry
     estimated scf accuracy    <       1.99266435 Ry

     iteration #  9     ecut=    30.00 Ry     beta=0.70
     Davidson diagonalization with overlap
     ethr =  1.00E-02,  avg # of iterations =  1.0

     negative rho (up, down):  3.393E-03 0.000E+00

     total cpu time spent up to now is        7.0 secs

     total energy              =     -31.86809183 Ry
     Harris-Foulkes estimate   =     -31.80668894 Ry
     estimated scf accuracy    <       1.47371144 Ry

     iteration # 10     ecut=    30.00 Ry     beta=0.70
     Davidson diagonalization with overlap
     ethr =  1.00E-02,  avg # of iterations =  1.0

     negative rho (up, down):  8.689E-04 0.000E+00

     total cpu time spent up to now is        7.1 secs

     total energy              =     -32.69923138 Ry
     Harris-Foulkes estimate   =     -31.86839522 Ry
     estimated scf accuracy    <       1.57210069 Ry

     iteration # 11     ecut=    30.00 Ry     beta=0.70
     Davidson diagonalization with overlap
     ethr =  1.00E-02,  avg # of iterations =  1.0

     negative rho (up, down):  5.281E-01 0.000E+00

     total cpu time spent up to now is        7.1 secs

     total energy              =     -33.92494649 Ry
     Harris-Foulkes estimate   =     -32.72089053 Ry
     estimated scf accuracy    <       3.10389054 Ry

     iteration # 12     ecut=    30.00 Ry     beta=0.70
     Davidson diagonalization with overlap
     ethr =  1.00E-02,  avg # of iterations =  4.0

     negative rho (up, down):  3.081E-02 0.000E+00

     total cpu time spent up to now is        7.2 secs

     total energy              =     -30.89652077 Ry
     Harris-Foulkes estimate   =     -35.63383092 Ry
     estimated scf accuracy    <       5.60315119 Ry

     iteration # 13     ecut=    30.00 Ry     beta=0.70
     Davidson diagonalization with overlap
     ethr =  1.00E-02,  avg # of iterations =  3.0

     negative rho (up, down):  5.031E-02 0.000E+00

     total cpu time spent up to now is        7.2 secs

     total energy              =     -30.58328286 Ry
     Harris-Foulkes estimate   =     -32.21351056 Ry
     estimated scf accuracy    <       2.12819650 Ry

     iteration # 14     ecut=    30.00 Ry     beta=0.70
     Davidson diagonalization with overlap
     ethr =  1.00E-02,  avg # of iterations =  4.0

     negative rho (up, down):  2.743E-04 0.000E+00

     total cpu time spent up to now is        7.3 secs

     total energy              =     -31.80219010 Ry
     Harris-Foulkes estimate   =     -33.51381426 Ry
     estimated scf accuracy    <       3.92783976 Ry

     iteration # 15     ecut=    30.00 Ry     beta=0.70
     Davidson diagonalization with overlap
     ethr =  1.00E-02,  avg # of iterations =  2.0

     negative rho (up, down):  1.547E-04 0.000E+00

     total cpu time spent up to now is        7.4 secs

     total energy              =     -31.92077881 Ry
     Harris-Foulkes estimate   =     -31.94912411 Ry
     estimated scf accuracy    <       3.38300719 Ry

     iteration # 16     ecut=    30.00 Ry     beta=0.70
     Davidson diagonalization with overlap
     ethr =  1.00E-02,  avg # of iterations =  1.0

     negative rho (up, down):  1.595E-04 0.000E+00

     total cpu time spent up to now is        7.4 secs

     total energy              =     -31.92629118 Ry
     Harris-Foulkes estimate   =     -31.92089877 Ry
     estimated scf accuracy    <       3.34367684 Ry

     iteration # 17     ecut=    30.00 Ry     beta=0.70
     Davidson diagonalization with overlap
     ethr =  1.00E-02,  avg # of iterations =  1.0

     negative rho (up, down):  3.335E-04 0.000E+00

     total cpu time spent up to now is        7.4 secs

     total energy              =     -31.92921067 Ry
     Harris-Foulkes estimate   =     -31.92631270 Ry
     estimated scf accuracy    <       3.35595993 Ry

     iteration # 18     ecut=    30.00 Ry     beta=0.70
     Davidson diagonalization with overlap
     ethr =  1.00E-02,  avg # of iterations =  3.0

     negative rho (up, down):  3.538E-03 0.000E+00

     total cpu time spent up to now is        7.5 secs

     total energy              =     -31.84470727 Ry
     Harris-Foulkes estimate   =     -31.92921309 Ry
     estimated scf accuracy    <       3.36140263 Ry

     iteration # 19     ecut=    30.00 Ry     beta=0.70
     Davidson diagonalization with overlap
     ethr =  1.00E-02,  avg # of iterations =  1.0

     negative rho (up, down):  5.032E-04 0.000E+00

     total cpu time spent up to now is        7.5 secs

     total energy              =     -32.01996877 Ry
     Harris-Foulkes estimate   =     -31.84490080 Ry
     estimated scf accuracy    <       3.23195416 Ry

     iteration # 20     ecut=    30.00 Ry     beta=0.70
     Davidson diagonalization with overlap
     ethr =  1.00E-02,  avg # of iterations =  1.0

     negative rho (up, down):  5.563E-05 0.000E+00

     total cpu time spent up to now is        7.6 secs

     total energy              =     -31.52353215 Ry
     Harris-Foulkes estimate   =     -32.02282904 Ry
     estimated scf accuracy    <       2.83342924 Ry

     iteration # 21     ecut=    30.00 Ry     beta=0.70
     Davidson diagonalization with overlap
     ethr =  1.00E-02,  avg # of iterations =  2.0

     negative rho (up, down):  6.985E-05 0.000E+00

     total cpu time spent up to now is        7.6 secs

     total energy              =     -31.47823593 Ry
     Harris-Foulkes estimate   =     -31.55116563 Ry
     estimated scf accuracy    <       0.96190852 Ry

     iteration # 22     ecut=    30.00 Ry     beta=0.70
     Davidson diagonalization with overlap
     ethr =  1.00E-02,  avg # of iterations =  1.0

     negative rho (up, down):  5.882E-05 0.000E+00

     total cpu time spent up to now is        7.6 secs

     total energy              =     -31.48039574 Ry
     Harris-Foulkes estimate   =     -31.53588495 Ry
     estimated scf accuracy    <       0.79375573 Ry

     iteration # 23     ecut=    30.00 Ry     beta=0.70
     Davidson diagonalization with overlap
     ethr =  9.92E-03,  avg # of iterations =  1.0

     negative rho (up, down):  4.080E-05 0.000E+00

     total cpu time spent up to now is        7.7 secs

     total energy              =     -31.66594169 Ry
     Harris-Foulkes estimate   =     -31.49085819 Ry
     estimated scf accuracy    <       0.04926352 Ry

     iteration # 24     ecut=    30.00 Ry     beta=0.70
     Davidson diagonalization with overlap
     ethr =  6.16E-04,  avg # of iterations =  3.0

     negative rho (up, down):  1.516E-05 0.000E+00

     total cpu time spent up to now is        7.7 secs

     total energy              =     -31.83772478 Ry
     Harris-Foulkes estimate   =     -32.02369916 Ry
     estimated scf accuracy    <       1.53836702 Ry

     iteration # 25     ecut=    30.00 Ry     beta=0.70
     Davidson diagonalization with overlap
     ethr =  6.16E-04,  avg # of iterations =  1.0

     negative rho (up, down):  1.820E-07 0.000E+00

     total cpu time spent up to now is        7.8 secs

     total energy              =     -31.55459544 Ry
     Harris-Foulkes estimate   =     -31.84562193 Ry
     estimated scf accuracy    <       1.22814193 Ry

     iteration # 26     ecut=    30.00 Ry     beta=0.70
     Davidson diagonalization with overlap
     ethr =  6.16E-04,  avg # of iterations =  3.0

     negative rho (up, down):  2.648E-08 0.000E+00

     total cpu time spent up to now is        7.8 secs

     total energy              =     -31.59099987 Ry
     Harris-Foulkes estimate   =     -31.57275350 Ry
     estimated scf accuracy    <       2.39892430 Ry

     iteration # 27     ecut=    30.00 Ry     beta=0.70
     Davidson diagonalization with overlap
     ethr =  6.16E-04,  avg # of iterations =  1.0

     negative rho (up, down):  3.225E-07 0.000E+00

     total cpu time spent up to now is        7.8 secs

     total energy              =     -31.56600418 Ry
     Harris-Foulkes estimate   =     -31.59315471 Ry
     estimated scf accuracy    <       1.65698747 Ry

     iteration # 28     ecut=    30.00 Ry     beta=0.70
     Davidson diagonalization with overlap
     ethr =  6.16E-04,  avg # of iterations =  1.0

     total cpu time spent up to now is        7.9 secs

     total energy              =     -31.56344711 Ry
     Harris-Foulkes estimate   =     -31.56609408 Ry
     estimated scf accuracy    <       1.74821475 Ry

     iteration # 29     ecut=    30.00 Ry     beta=0.70
     Davidson diagonalization with overlap
     ethr =  6.16E-04,  avg # of iterations =  1.0

     total cpu time spent up to now is        7.9 secs

     total energy              =     -31.51435538 Ry
     Harris-Foulkes estimate   =     -31.56613183 Ry
     estimated scf accuracy    <       1.02140864 Ry

     iteration # 30     ecut=    30.00 Ry     beta=0.70
     Davidson diagonalization with overlap
     ethr =  6.16E-04,  avg # of iterations =  1.0

     negative rho (up, down):  1.031E-07 0.000E+00

     total cpu time spent up to now is        7.9 secs

     total energy              =     -31.36500823 Ry
     Harris-Foulkes estimate   =     -31.51461465 Ry
     estimated scf accuracy    <       0.95171190 Ry

     iteration # 31     ecut=    30.00 Ry     beta=0.70
     Davidson diagonalization with overlap
     ethr =  6.16E-04,  avg # of iterations =  2.0

     negative rho (up, down):  2.822E-07 0.000E+00

     total cpu time spent up to now is        8.0 secs

     total energy              =     -31.90234354 Ry
     Harris-Foulkes estimate   =     -31.64020895 Ry
     estimated scf accuracy    <       1.12546634 Ry

     iteration # 32     ecut=    30.00 Ry     beta=0.70
     Davidson diagonalization with overlap
     ethr =  6.16E-04,  avg # of iterations =  3.0

     total cpu time spent up to now is        8.0 secs

     total energy              =     -31.52004226 Ry
     Harris-Foulkes estimate   =     -31.90770844 Ry
     estimated scf accuracy    <       1.61819339 Ry

     iteration # 33     ecut=    30.00 Ry     beta=0.70
     Davidson diagonalization with overlap
     ethr =  6.16E-04,  avg # of iterations =  3.0

     total cpu time spent up to now is        8.0 secs

     total energy              =     -31.53407089 Ry
     Harris-Foulkes estimate   =     -31.52958423 Ry
     estimated scf accuracy    <       1.27189751 Ry

     iteration # 34     ecut=    30.00 Ry     beta=0.70
     Davidson diagonalization with overlap
     ethr =  6.16E-04,  avg # of iterations =  1.0

     total cpu time spent up to now is        8.1 secs

     total energy              =     -31.48338586 Ry
     Harris-Foulkes estimate   =     -31.53411423 Ry
     estimated scf accuracy    <       1.23767855 Ry

     iteration # 35     ecut=    30.00 Ry     beta=0.70
     Davidson diagonalization with overlap
     ethr =  6.16E-04,  avg # of iterations =  1.0

     total cpu time spent up to now is        8.1 secs

     total energy              =     -31.49195704 Ry
     Harris-Foulkes estimate   =     -31.49156606 Ry
     estimated scf accuracy    <       0.11718463 Ry

     iteration # 36     ecut=    30.00 Ry     beta=0.70
     Davidson diagonalization with overlap
     ethr =  6.16E-04,  avg # of iterations =  1.0

     total cpu time spent up to now is        8.1 secs

     total energy              =     -31.48178346 Ry
     Harris-Foulkes estimate   =     -31.49206898 Ry
     estimated scf accuracy    <       0.13949879 Ry

     iteration # 37     ecut=    30.00 Ry     beta=0.70
     Davidson diagonalization with overlap
     ethr =  6.16E-04,  avg # of iterations =  1.0

     total cpu time spent up to now is        8.2 secs

     total energy              =     -31.49300797 Ry
     Harris-Foulkes estimate   =     -31.49568257 Ry
     estimated scf accuracy    <       0.30381327 Ry

     iteration # 38     ecut=    30.00 Ry     beta=0.70
     Davidson diagonalization with overlap
     ethr =  6.16E-04,  avg # of iterations =  1.0

     total cpu time spent up to now is        8.2 secs

     total energy              =     -31.49304436 Ry
     Harris-Foulkes estimate   =     -31.49327798 Ry
     estimated scf accuracy    <       0.18903985 Ry

     iteration # 39     ecut=    30.00 Ry     beta=0.70
     Davidson diagonalization with overlap
     ethr =  6.16E-04,  avg # of iterations =  1.0

     total cpu time spent up to now is        8.3 secs

     total energy              =     -31.49394106 Ry
     Harris-Foulkes estimate   =     -31.49304832 Ry
     estimated scf accuracy    <       0.17660919 Ry

     iteration # 40     ecut=    30.00 Ry     beta=0.70
     Davidson diagonalization with overlap
     ethr =  6.16E-04,  avg # of iterations =  1.0

     total cpu time spent up to now is        8.3 secs

     total energy              =     -31.49418020 Ry
     Harris-Foulkes estimate   =     -31.49399958 Ry
     estimated scf accuracy    <       0.22673363 Ry

     iteration # 41     ecut=    30.00 Ry     beta=0.70
     Davidson diagonalization with overlap
     ethr =  6.16E-04,  avg # of iterations =  1.0

     total cpu time spent up to now is        8.3 secs

     total energy              =     -31.48561497 Ry
     Harris-Foulkes estimate   =     -31.49418201 Ry
     estimated scf accuracy    <       0.23556406 Ry

     iteration # 42     ecut=    30.00 Ry     beta=0.70
     Davidson diagonalization with overlap
     ethr =  6.16E-04,  avg # of iterations =  1.0

     total cpu time spent up to now is        8.4 secs

     total energy              =     -31.49000517 Ry
     Harris-Foulkes estimate   =     -31.49033255 Ry
     estimated scf accuracy    <       0.00882637 Ry

     iteration # 43     ecut=    30.00 Ry     beta=0.70
     Davidson diagonalization with overlap
     ethr =  1.10E-04,  avg # of iterations =  1.0

     total cpu time spent up to now is        8.4 secs

     total energy              =     -31.49018099 Ry
     Harris-Foulkes estimate   =     -31.49023574 Ry
     estimated scf accuracy    <       0.00141843 Ry

     iteration # 44     ecut=    30.00 Ry     beta=0.70
     Davidson diagonalization with overlap
     ethr =  1.77E-05,  avg # of iterations =  1.0

     total cpu time spent up to now is        8.4 secs

     total energy              =     -31.49021579 Ry
     Harris-Foulkes estimate   =     -31.49021902 Ry
     estimated scf accuracy    <       0.00023886 Ry

     iteration # 45     ecut=    30.00 Ry     beta=0.70
     Davidson diagonalization with overlap
     ethr =  2.99E-06,  avg # of iterations =  7.0

     total cpu time spent up to now is        8.5 secs

     total energy              =     -31.49021604 Ry
     Harris-Foulkes estimate   =     -31.49021657 Ry
     estimated scf accuracy    <       0.00006308 Ry

     iteration # 46     ecut=    30.00 Ry     beta=0.70
     Davidson diagonalization with overlap
     ethr =  7.88E-07,  avg # of iterations =  1.0

     total cpu time spent up to now is        8.5 secs

     total energy              =     -31.49021512 Ry
     Harris-Foulkes estimate   =     -31.49021612 Ry
     estimated scf accuracy    <       0.00003026 Ry

     iteration # 47     ecut=    30.00 Ry     beta=0.70
     Davidson diagonalization with overlap
     ethr =  3.78E-07,  avg # of iterations =  1.0

     total cpu time spent up to now is        8.5 secs

     total energy              =     -31.49021567 Ry
     Harris-Foulkes estimate   =     -31.49021572 Ry
     estimated scf accuracy    <       0.00000170 Ry

     iteration # 48     ecut=    30.00 Ry     beta=0.70
     Davidson diagonalization with overlap
     ethr =  2.12E-08,  avg # of iterations =  1.0

     total cpu time spent up to now is        8.6 secs

     total energy              =     -31.49021570 Ry
     Harris-Foulkes estimate   =     -31.49021570 Ry
     estimated scf accuracy    <       0.00000001 Ry
[...]
     Harris-Foulkes estimate   =  -14390.08476620 Ry
     estimated scf accuracy    <      28.03915705 Ry

     iteration # 59     ecut=    30.00 Ry     beta=0.70
     Davidson diagonalization with overlap
     ethr =  9.53E-03,  avg # of iterations =  9.0

     negative rho (up, down):  3.974E-01 0.000E+00

     total cpu time spent up to now is       19.2 secs

     total energy              =     -56.31815894 Ry
     Harris-Foulkes estimate   =   -9213.81324455 Ry
     estimated scf accuracy    <      40.48233761 Ry

     iteration # 60     ecut=    30.00 Ry     beta=0.70
     Davidson diagonalization with overlap
     ethr =  9.53E-03,  avg # of iterations =  6.0

     negative rho (up, down):  6.051E-02 0.000E+00

     total cpu time spent up to now is       19.3 secs

     total energy              =     132.69183737 Ry
     Harris-Foulkes estimate   =   -1718.84331699 Ry
     estimated scf accuracy    <      22.44206419 Ry

     iteration # 61     ecut=    30.00 Ry     beta=0.70
     Davidson diagonalization with overlap
     ethr =  9.53E-03,  avg # of iterations = 11.0

     negative rho (up, down):  1.345E-01 0.000E+00

     total cpu time spent up to now is       19.3 secs

     total energy              =      50.96937002 Ry
     Harris-Foulkes estimate   =    -149.71419549 Ry
     estimated scf accuracy    <      21.89501786 Ry

     iteration # 62     ecut=    30.00 Ry     beta=0.70
     Davidson diagonalization with overlap
     ethr =  9.53E-03,  avg # of iterations =  6.0

     negative rho (up, down):  2.226E-01 0.000E+00

     total cpu time spent up to now is       19.4 secs

     total energy              =      13.18579130 Ry
     Harris-Foulkes estimate   =    -795.23626100 Ry
     estimated scf accuracy    <      27.70474522 Ry

     iteration # 63     ecut=    30.00 Ry     beta=0.70
     Davidson diagonalization with overlap
     ethr =  9.53E-03,  avg # of iterations =  5.0

     negative rho (up, down):  2.676E-01 0.000E+00

     total cpu time spent up to now is       19.4 secs

     total energy              =    -729.66728695 Ry
     Harris-Foulkes estimate   =    -778.99395367 Ry
     estimated scf accuracy    <      28.09188156 Ry

     iteration # 64     ecut=    30.00 Ry     beta=0.70
     Davidson diagonalization with overlap
     ethr =  9.53E-03,  avg # of iterations = 10.0

     negative rho (up, down):  2.504E-01 0.000E+00

     total cpu time spent up to now is       19.5 secs

     total energy              =    -147.95063255 Ry
     Harris-Foulkes estimate   =   -2555.93946548 Ry
     estimated scf accuracy    <      39.30947878 Ry

     iteration # 65     ecut=    30.00 Ry     beta=0.70
     Davidson diagonalization with overlap
     ethr =  9.53E-03,  avg # of iterations =  4.0

     negative rho (up, down):  3.620E-01 0.000E+00

     total cpu time spent up to now is       19.5 secs

     total energy              =      75.10562870 Ry
     Harris-Foulkes estimate   =   -5757.31913180 Ry
     estimated scf accuracy    <      17.90675489 Ry

     iteration # 66     ecut=    30.00 Ry     beta=0.70
     Davidson diagonalization with overlap
     ethr =  9.53E-03,  avg # of iterations =  6.0

     negative rho (up, down):  4.419E-01 0.000E+00

     total cpu time spent up to now is       19.6 secs

     total energy              =      29.56319089 Ry
     Harris-Foulkes estimate   =   -1455.27166673 Ry
     estimated scf accuracy    <      19.71851663 Ry

     iteration # 67     ecut=    30.00 Ry     beta=0.70
     Davidson diagonalization with overlap
     ethr =  9.53E-03,  avg # of iterations =  7.0

     negative rho (up, down):  3.552E-01 0.000E+00

     total cpu time spent up to now is       19.6 secs

     total energy              =      49.63728065 Ry
     Harris-Foulkes estimate   =    -214.59990213 Ry
     estimated scf accuracy    <      24.70302535 Ry

     iteration # 68     ecut=    30.00 Ry     beta=0.70
     Davidson diagonalization with overlap
     ethr =  9.53E-03,  avg # of iterations =  6.0

     negative rho (up, down):  2.892E-02 0.000E+00

     total cpu time spent up to now is       19.7 secs

     total energy              =    -249.77407511 Ry
     Harris-Foulkes estimate   =    -119.32280019 Ry
     estimated scf accuracy    <      32.12852767 Ry

     iteration # 69     ecut=    30.00 Ry     beta=0.70
     Davidson diagonalization with overlap
     ethr =  9.53E-03,  avg # of iterations =  4.0

     negative rho (up, down):  1.983E-01 0.000E+00

     total cpu time spent up to now is       19.7 secs

     total energy              =    -874.11643624 Ry
     Harris-Foulkes estimate   =   -6315.50812822 Ry
     estimated scf accuracy    <      31.91135129 Ry

     iteration # 70     ecut=    30.00 Ry     beta=0.70
     Davidson diagonalization with overlap
     ethr =  9.53E-03,  avg # of iterations =  3.0

     negative rho (up, down):  2.061E-01 0.000E+00

     total cpu time spent up to now is       19.7 secs

     total energy              =      30.49739133 Ry
     Harris-Foulkes estimate   =   -4547.85331167 Ry
     estimated scf accuracy    <      18.37502017 Ry

     iteration # 71     ecut=    30.00 Ry     beta=0.70
     Davidson diagonalization with overlap
     ethr =  9.53E-03,  avg # of iterations =  5.0

     negative rho (up, down):  1.664E-01 0.000E+00

     total cpu time spent up to now is       19.8 secs

     total energy              =      80.21835567 Ry
     Harris-Foulkes estimate   =   -6750.24013346 Ry
     estimated scf accuracy    <      13.25342727 Ry

     iteration # 72     ecut=    30.00 Ry     beta=0.70
     Davidson diagonalization with overlap
     ethr =  9.53E-03,  avg # of iterations =  7.0

     negative rho (up, down):  1.253E-01 0.000E+00

     total cpu time spent up to now is       19.9 secs

     total energy              =     101.07248135 Ry
     Harris-Foulkes estimate   =    -139.57609901 Ry
     estimated scf accuracy    <      29.65026811 Ry

     iteration # 73     ecut=    30.00 Ry     beta=0.70
     Davidson diagonalization with overlap
     ethr =  9.53E-03,  avg # of iterations =  9.0

     negative rho (up, down):  3.908E-02 0.000E+00

     total cpu time spent up to now is       19.9 secs

     total energy              =     -67.73959223 Ry
     Harris-Foulkes estimate   =     -67.98288470 Ry
     estimated scf accuracy    <      49.51460446 Ry

     iteration # 74     ecut=    30.00 Ry     beta=0.70
     Davidson diagonalization with overlap
     ethr =  9.53E-03,  avg # of iterations =  4.0

     negative rho (up, down):  9.069E-02 0.000E+00

     total cpu time spent up to now is       19.9 secs

     total energy              =     -19.91915416 Ry
     Harris-Foulkes estimate   =    -245.09421862 Ry
     estimated scf accuracy    <      24.53367580 Ry

     iteration # 75     ecut=    30.00 Ry     beta=0.70
     Davidson diagonalization with overlap
     ethr =  9.53E-03,  avg # of iterations =  9.0

     negative rho (up, down):  5.231E-02 0.000E+00

     total cpu time spent up to now is       20.0 secs

     total energy              =      44.65234740 Ry
     Harris-Foulkes estimate   =    -188.57602490 Ry
     estimated scf accuracy    <      25.52073422 Ry

     iteration # 76     ecut=    30.00 Ry     beta=0.70
     Davidson diagonalization with overlap
     ethr =  9.53E-03,  avg # of iterations =  7.0

     negative rho (up, down):  2.478E-02 0.000E+00

     total cpu time spent up to now is       20.1 secs

     total energy              =      79.92330174 Ry
     Harris-Foulkes estimate   =    -292.65312507 Ry
     estimated scf accuracy    <      20.17069952 Ry

     iteration # 77     ecut=    30.00 Ry     beta=0.70
     Davidson diagonalization with overlap
     ethr =  9.53E-03,  avg # of iterations =  5.0

     negative rho (up, down):  4.841E-02 0.000E+00

     total cpu time spent up to now is       20.1 secs

     total energy              =     -64.31683902 Ry
     Harris-Foulkes estimate   =     -64.67383468 Ry
     estimated scf accuracy    <      44.08249073 Ry

     iteration # 78     ecut=    30.00 Ry     beta=0.70
     Davidson diagonalization with overlap
     ethr =  9.53E-03,  avg # of iterations =  2.0

     negative rho (up, down):  5.058E-02 0.000E+00

     total cpu time spent up to now is       20.2 secs

     total energy              =     -64.49029299 Ry
     Harris-Foulkes estimate   =     -64.58118834 Ry
     estimated scf accuracy    <      45.48267785 Ry

     iteration # 79     ecut=    30.00 Ry     beta=0.70
     Davidson diagonalization with overlap
     ethr =  9.53E-03,  avg # of iterations =  1.0

     negative rho (up, down):  5.691E-02 0.000E+00

     total cpu time spent up to now is       20.2 secs

     total energy              =     -64.14053596 Ry
     Harris-Foulkes estimate   =     -64.49151133 Ry
     estimated scf accuracy    <      45.16958849 Ry

     iteration # 80     ecut=    30.00 Ry     beta=0.70
     Davidson diagonalization with overlap
     ethr =  9.53E-03,  avg # of iterations =  3.0

     negative rho (up, down):  4.548E-02 0.000E+00

     total cpu time spent up to now is       20.3 secs

     total energy              =    -107.42446616 Ry
     Harris-Foulkes estimate   =     -64.56974016 Ry
     estimated scf accuracy    <      43.08334065 Ry

     iteration # 81     ecut=    30.00 Ry     beta=0.70
     Davidson diagonalization with overlap
     ethr =  9.53E-03,  avg # of iterations =  3.0

     negative rho (up, down):  6.040E-02 0.000E+00

     total cpu time spent up to now is       20.3 secs

     total energy              =     -35.91303825 Ry
     Harris-Foulkes estimate   =    -290.69573285 Ry
     estimated scf accuracy    <      45.17525147 Ry

     iteration # 82     ecut=    30.00 Ry     beta=0.70
     Davidson diagonalization with overlap
     ethr =  9.53E-03,  avg # of iterations =  4.0

     negative rho (up, down):  4.707E-02 0.000E+00

     total cpu time spent up to now is       20.3 secs

     total energy              =     -10.82903673 Ry
     Harris-Foulkes estimate   =    -309.17577939 Ry
     estimated scf accuracy    <      22.93294271 Ry

     iteration # 83     ecut=    30.00 Ry     beta=0.70
     Davidson diagonalization with overlap
     ethr =  9.53E-03,  avg # of iterations =  6.0

     negative rho (up, down):  7.831E-02 0.000E+00

     total cpu time spent up to now is       20.4 secs

     total energy              =      44.38346434 Ry
     Harris-Foulkes estimate   =    -171.29741363 Ry
     estimated scf accuracy    <      14.69667116 Ry

     iteration # 84     ecut=    30.00 Ry     beta=0.70
     Davidson diagonalization with overlap
     ethr =  9.53E-03,  avg # of iterations =  6.0

     negative rho (up, down):  1.232E-01 0.000E+00

     total cpu time spent up to now is       20.4 secs

     total energy              =     -41.32113352 Ry
     Harris-Foulkes estimate   =     -67.87546853 Ry
     estimated scf accuracy    <      35.12600613 Ry

     iteration # 85     ecut=    30.00 Ry     beta=0.70
     Davidson diagonalization with overlap
     ethr =  9.53E-03,  avg # of iterations =  9.0

     negative rho (up, down):  1.343E-01 0.000E+00

     total cpu time spent up to now is       20.5 secs

     total energy              =      89.18974556 Ry
     Harris-Foulkes estimate   =    -147.65835831 Ry
     estimated scf accuracy    <      28.67606391 Ry

     iteration # 86     ecut=    30.00 Ry     beta=0.70
     Davidson diagonalization with overlap
     ethr =  9.53E-03,  avg # of iterations =  6.0

     negative rho (up, down):  9.350E-02 0.000E+00

     total cpu time spent up to now is       20.6 secs

     total energy              =       8.39941899 Ry
     Harris-Foulkes estimate   =    -203.41794892 Ry
     estimated scf accuracy    <      31.91621828 Ry

     iteration # 87     ecut=    30.00 Ry     beta=0.70
     Davidson diagonalization with overlap
     ethr =  9.53E-03,  avg # of iterations =  7.0

     negative rho (up, down):  2.429E-02 0.000E+00

     total cpu time spent up to now is       20.6 secs

     total energy              =      63.37900624 Ry
     Harris-Foulkes estimate   =    -555.47347395 Ry
     estimated scf accuracy    <      17.27770425 Ry

     iteration # 88     ecut=    30.00 Ry     beta=0.70
     Davidson diagonalization with overlap
     ethr =  9.53E-03,  avg # of iterations =  6.0

     negative rho (up, down):  1.935E-01 0.000E+00

     total cpu time spent up to now is       20.7 secs

     total energy              =     -54.63443864 Ry
     Harris-Foulkes estimate   =     -52.76101362 Ry
     estimated scf accuracy    <      30.96420718 Ry

     iteration # 89     ecut=    30.00 Ry     beta=0.70
     Davidson diagonalization with overlap
     ethr =  9.53E-03,  avg # of iterations = 10.0

     negative rho (up, down):  2.078E-01 0.000E+00

     total cpu time spent up to now is       20.7 secs

     total energy              =     -46.44525182 Ry
     Harris-Foulkes estimate   =    -335.80749996 Ry
     estimated scf accuracy    <      40.41692048 Ry

     iteration # 90     ecut=    30.00 Ry     beta=0.70
     Davidson diagonalization with overlap
     ethr =  9.53E-03,  avg # of iterations =  7.0

     negative rho (up, down):  1.880E-01 0.000E+00

     total cpu time spent up to now is       20.8 secs

     total energy              =    -924.80242006 Ry
     Harris-Foulkes estimate   =    -644.84437308 Ry
     estimated scf accuracy    <      35.97372511 Ry

     iteration # 91     ecut=    30.00 Ry     beta=0.70
     Davidson diagonalization with overlap
     ethr =  9.53E-03,  avg # of iterations = 10.0

     negative rho (up, down):  1.989E-01 0.000E+00

     total cpu time spent up to now is       20.8 secs

     total energy              =       4.89645620 Ry
     Harris-Foulkes estimate   =   -4722.33106373 Ry
     estimated scf accuracy    <      29.16498050 Ry

     iteration # 92     ecut=    30.00 Ry     beta=0.70
     Davidson diagonalization with overlap
     ethr =  9.53E-03,  avg # of iterations =  5.0

     negative rho (up, down):  2.338E-01 0.000E+00

     total cpu time spent up to now is       20.9 secs

     total energy              =     -46.44150236 Ry
     Harris-Foulkes estimate   =     -49.45142726 Ry
     estimated scf accuracy    <      27.48360595 Ry

     iteration # 93     ecut=    30.00 Ry     beta=0.70
     Davidson diagonalization with overlap
     ethr =  9.53E-03,  avg # of iterations =  9.0

     negative rho (up, down):  5.388E-02 0.000E+00

     total cpu time spent up to now is       20.9 secs

     total energy              =      82.08614895 Ry
     Harris-Foulkes estimate   =    -287.12832008 Ry
     estimated scf accuracy    <      25.53934712 Ry

     iteration # 94     ecut=    30.00 Ry     beta=0.70
     Davidson diagonalization with overlap
     ethr =  9.53E-03,  avg # of iterations = 10.0

     negative rho (up, down):  7.529E-02 0.000E+00

     total cpu time spent up to now is       21.0 secs

     total energy              =      83.81592852 Ry
     Harris-Foulkes estimate   =    -376.70689226 Ry
     estimated scf accuracy    <      24.68620514 Ry

     iteration # 95     ecut=    30.00 Ry     beta=0.70
     Davidson diagonalization with overlap
     ethr =  9.53E-03,  avg # of iterations =  7.0

     negative rho (up, down):  2.159E-01 0.000E+00

     total cpu time spent up to now is       21.0 secs

     total energy              =     -96.07027651 Ry
     Harris-Foulkes estimate   =    -511.75411297 Ry
     estimated scf accuracy    <      36.15888888 Ry

     iteration # 96     ecut=    30.00 Ry     beta=0.70
     Davidson diagonalization with overlap
     ethr =  9.53E-03,  avg # of iterations =  8.0

     negative rho (up, down):  5.316E-01 0.000E+00

     total cpu time spent up to now is       21.1 secs

     total energy              =  570737.50250876 Ry
     Harris-Foulkes estimate   =   -3851.79021265 Ry
     estimated scf accuracy    <      43.03813400 Ry

     iteration # 97     ecut=    30.00 Ry     beta=0.70
     Davidson diagonalization with overlap
     ethr =  9.53E-03,  avg # of iterations =  7.0

     negative rho (up, down):  5.981E-01 0.000E+00

     total cpu time spent up to now is       21.2 secs

     total energy              =    -382.32254490 Ry
     Harris-Foulkes estimate   =   -1890.27605194 Ry
     estimated scf accuracy    <      27.89124594 Ry

     iteration # 98     ecut=    30.00 Ry     beta=0.70
     Davidson diagonalization with overlap
     ethr =  9.53E-03,  avg # of iterations =  8.0

     negative rho (up, down):  1.036E-01 0.000E+00

     total cpu time spent up to now is       21.2 secs

     total energy              =      65.54478773 Ry
     Harris-Foulkes estimate   =   -2255.52451963 Ry
     estimated scf accuracy    <      28.91749762 Ry

     iteration # 99     ecut=    30.00 Ry     beta=0.70
     Davidson diagonalization with overlap
     ethr =  9.53E-03,  avg # of iterations =  7.0

     negative rho (up, down):  2.301E-03 0.000E+00

     total cpu time spent up to now is       21.3 secs

     total energy              =     107.37374215 Ry
     Harris-Foulkes estimate   =   -5166.99521953 Ry
     estimated scf accuracy    <      29.69454081 Ry

     iteration #100     ecut=    30.00 Ry     beta=0.70
     Davidson diagonalization with overlap
     ethr =  9.53E-03,  avg # of iterations = 12.0

     negative rho (up, down):  8.211E-02 0.000E+00

     total cpu time spent up to now is       21.3 secs

     total energy              =     -47.30552152 Ry
     Harris-Foulkes estimate   =     -44.00008325 Ry
     estimated scf accuracy    <      18.96918381 Ry

     End of self-consistent calculation

     convergence NOT achieved after 100 iterations: stopping

     Writing output data file pwscf.save
 
     init_run     :      0.09s CPU      0.11s WALL (       1 calls)
     electrons    :     13.94s CPU     17.84s WALL (      13 calls)
     update_pot   :      1.54s CPU      2.13s WALL (      12 calls)
     forces       :      0.33s CPU      0.36s WALL (      12 calls)

     Called by init_run:
     wfcinit      :      0.01s CPU      0.02s WALL (       1 calls)
     potinit      :      0.02s CPU      0.03s WALL (       1 calls)

     Called by electrons:
     c_bands      :      6.02s CPU      6.45s WALL (     420 calls)
     sum_band     :      1.24s CPU      1.34s WALL (     420 calls)
     v_of_rho     :      3.19s CPU      3.36s WALL (     433 calls)
     mix_rho      :      2.84s CPU      4.88s WALL (     420 calls)

     Called by c_bands:
     init_us_2    :      0.04s CPU      0.05s WALL (     841 calls)
     cegterg      :      5.93s CPU      6.21s WALL (     420 calls)

     Called by sum_band:

     Called by *egterg:
     h_psi        :      5.03s CPU      5.25s WALL (    1645 calls)
     g_psi        :      0.04s CPU      0.04s WALL (    1224 calls)
     cdiaghg      :      0.33s CPU      0.36s WALL (    1632 calls)

     Called by h_psi:
     h_psi:pot    :      5.01s CPU      5.22s WALL (    1645 calls)
     h_psi:calbec :      0.23s CPU      0.29s WALL (    1645 calls)
     vloc_psi     :      4.76s CPU      4.91s WALL (    1645 calls)
     add_vuspsi   :      0.01s CPU      0.02s WALL (    1645 calls)

     General routines
     calbec       :      0.31s CPU      0.41s WALL (    1704 calls)
     fft          :      2.01s CPU      2.12s WALL (    4787 calls)
     fftw         :      5.09s CPU      5.31s WALL (   21808 calls)
     davcio       :      0.45s CPU      1.76s WALL (    7256 calls)
 
     Parallel routines
     fft_scatter  :      2.84s CPU      3.04s WALL (   26595 calls)
 
     PWSCF        :    16.27s CPU        21.41s WALL

 
   This run was terminated on:   2:56:21  11Feb2018            

=------------------------------------------------------------------------------=
   JOB DONE.
=------------------------------------------------------------------------------=
