
     Program PWSCF v.6.0 (svn rev. 13079) starts on 11Feb2018 at  2:56:31 

     This program is part of the open-source Quantum ESPRESSO suite
     for quantum simulation of materials; please cite
         "P. Giannozzi et al., J. Phys.:Condens. Matter 21 395502 (2009);
          URL http://www.quantum-espresso.org", 
     in publications or presentations arising from this work. More details at
     http://www.quantum-espresso.org/quote

     Parallel version (MPI), running on    28 processors
     R & G space division:  proc/nbgrp/npool/nimage =      28
     Reading input from inputs/water-1-md/575.in

     Current dimensions of program PWSCF are:
     Max number of different atomic species (ntypx) = 10
     Max number of k-points (npk) =  40000
     Max angular momentum in pseudopotentials (lmaxx) =  3

     Subspace diagonalization in iterative solution of the eigenvalue problem:
     a serial algorithm will be used

 
     Parallelization info
     --------------------
     sticks:   dense  smooth     PW     G-vecs:    dense   smooth      PW
     Min         136     136     33                 6338     6338     787
     Max         137     137     34                 6341     6341     792
     Sum        3809    3809    949               177509   177509   22119
 


     bravais-lattice index     =            1
     lattice parameter (alat)  =      20.0000  a.u.
     unit-cell volume          =    8000.0000 (a.u.)^3
     number of atoms/cell      =            3
     number of atomic types    =            2
     number of electrons       =         8.00
     number of Kohn-Sham states=            8
     kinetic-energy cutoff     =      30.0000  Ry
     charge density cutoff     =     120.0000  Ry
     convergence threshold     =      1.0E-08
     mixing beta               =       0.7000
     number of iterations used =            8  plain     mixing
     Exchange-correlation      = BLYP ( 1  3  1  3 0 0)
     nstep                     =         5000


     celldm(1)=  20.000000  celldm(2)=   0.000000  celldm(3)=   0.000000
     celldm(4)=   0.000000  celldm(5)=   0.000000  celldm(6)=   0.000000

     crystal axes: (cart. coord. in units of alat)
               a(1) = (   1.000000   0.000000   0.000000 )  
               a(2) = (   0.000000   1.000000   0.000000 )  
               a(3) = (   0.000000   0.000000   1.000000 )  

     reciprocal axes: (cart. coord. in units 2 pi/alat)
               b(1) = (  1.000000  0.000000  0.000000 )  
               b(2) = (  0.000000  1.000000  0.000000 )  
               b(3) = (  0.000000  0.000000  1.000000 )  


     PseudoPot. # 1 for  H read from file:
     ./H.blyp-hgh.UPF
     MD5 check sum: c576e69559cde411e611be972c763230
     Pseudo is Norm-conserving, Zval =  1.0
     Generated in analytical, separable form
     Using radial grid of  929 points,  0 beta functions with: 

     PseudoPot. # 2 for  O read from file:
     ./O.blyp-hgh.UPF
     MD5 check sum: d0b7156309aa9befef28faac7bc56342
     Pseudo is Norm-conserving, Zval =  6.0
     Generated in analytical, separable form
     Using radial grid of 1095 points,  1 beta functions with: 
                l(1) =   0

     atomic species   valence    mass     pseudopotential
        H              1.00     1.01000      H( 1.00)
        O              6.00    16.00000      O( 1.00)

     No symmetry found



   Cartesian axes

     site n.     atom                  positions (alat units)
         1           H   tau(   1) = (   0.4105902   0.5390122   0.4141471  )
         2           H   tau(   2) = (   0.9187644   0.8931321   0.7473654  )
         3           O   tau(   3) = (   0.0786545   0.6779523   0.9420915  )

     number of k points=     1  Marzari-Vanderbilt smearing, width (Ry)=  0.0250
                       cart. coord. in units 2pi/alat
        k(    1) = (   0.0000000   0.0000000   0.0000000), wk =   2.0000000

     Dense  grid:   177509 G-vectors     FFT dimensions: (  72,  72,  72)

     Estimated max dynamical RAM per process >       6.09Mb

     Estimated total allocated dynamical RAM >     170.64Mb

     Initial potential from superposition of free atoms
     Check: negative starting charge=   -0.343621

     starting charge    7.99998, renormalised to    8.00000

     negative rho (up, down):  3.436E-01 0.000E+00
     Starting wfc are    6 randomized atomic wfcs +    2 random wfc

     total cpu time spent up to now is        0.3 secs

     per-process dynamical memory:    18.8 Mb

     Self-consistent Calculation

     iteration #  1     ecut=    30.00 Ry     beta=0.70
     Davidson diagonalization with overlap
     ethr =  1.00E-02,  avg # of iterations =  8.0

     negative rho (up, down):  8.336E-02 0.000E+00

     total cpu time spent up to now is        0.3 secs

     total energy              =     -28.31726853 Ry
     Harris-Foulkes estimate   =     -32.07171247 Ry
     estimated scf accuracy    <       4.32127360 Ry

     iteration #  2     ecut=    30.00 Ry     beta=0.70
     Davidson diagonalization with overlap
     ethr =  1.00E-02,  avg # of iterations =  4.0

     negative rho (up, down):  6.116E-02 0.000E+00

     total cpu time spent up to now is        0.4 secs

     total energy              =     -32.51493131 Ry
     Harris-Foulkes estimate   =     -37.50922125 Ry
     estimated scf accuracy    <      12.25947956 Ry

     iteration #  3     ecut=    30.00 Ry     beta=0.70
     Davidson diagonalization with overlap
     ethr =  1.00E-02,  avg # of iterations =  4.0

     negative rho (up, down):  6.351E-02 0.000E+00

     total cpu time spent up to now is        0.4 secs

     total energy              =     -33.08727417 Ry
     Harris-Foulkes estimate   =     -32.85139134 Ry
     estimated scf accuracy    <       4.66466215 Ry

     iteration #  4     ecut=    30.00 Ry     beta=0.70
     Davidson diagonalization with overlap
     ethr =  1.00E-02,  avg # of iterations =  1.0

     negative rho (up, down):  2.532E-02 0.000E+00

     total cpu time spent up to now is        0.4 secs

     total energy              =     -30.24892391 Ry
     Harris-Foulkes estimate   =     -33.08817721 Ry
     estimated scf accuracy    <       5.02163022 Ry

     iteration #  5     ecut=    30.00 Ry     beta=0.70
     Davidson diagonalization with overlap
     ethr =  1.00E-02,  avg # of iterations =  2.0

     negative rho (up, down):  1.925E-02 0.000E+00

     total cpu time spent up to now is        0.5 secs

     total energy              =     -33.14506597 Ry
     Harris-Foulkes estimate   =     -33.25453708 Ry
     estimated scf accuracy    <      13.47180348 Ry

     iteration #  6     ecut=    30.00 Ry     beta=0.70
     Davidson diagonalization with overlap
     ethr =  1.00E-02,  avg # of iterations =  1.0

     negative rho (up, down):  4.371E-02 0.000E+00

     total cpu time spent up to now is        0.5 secs

     total energy              =     -32.42617875 Ry
     Harris-Foulkes estimate   =     -33.15003206 Ry
     estimated scf accuracy    <      12.78568378 Ry

     iteration #  7     ecut=    30.00 Ry     beta=0.70
     Davidson diagonalization with overlap
     ethr =  1.00E-02,  avg # of iterations =  1.0

     negative rho (up, down):  3.134E-03 0.000E+00

     total cpu time spent up to now is        0.5 secs

     total energy              =     -32.54536234 Ry
     Harris-Foulkes estimate   =     -32.65058033 Ry
     estimated scf accuracy    <       5.43358230 Ry

     iteration #  8     ecut=    30.00 Ry     beta=0.70
     Davidson diagonalization with overlap
     ethr =  1.00E-02,  avg # of iterations =  1.0

     negative rho (up, down):  1.860E-02 0.000E+00

     total cpu time spent up to now is        0.6 secs

     total energy              =     -31.98015897 Ry
     Harris-Foulkes estimate   =     -32.54687101 Ry
     estimated scf accuracy    <       5.21692576 Ry

     iteration #  9     ecut=    30.00 Ry     beta=0.70
     Davidson diagonalization with overlap
     ethr =  1.00E-02,  avg # of iterations =  1.0

     negative rho (up, down):  3.860E-02 0.000E+00

     total cpu time spent up to now is        0.6 secs

     total energy              =     -31.48750050 Ry
     Harris-Foulkes estimate   =     -31.99069770 Ry
     estimated scf accuracy    <       4.22913066 Ry

     iteration # 10     ecut=    30.00 Ry     beta=0.70
     Davidson diagonalization with overlap
     ethr =  1.00E-02,  avg # of iterations =  1.0

     negative rho (up, down):  4.091E-02 0.000E+00

     total cpu time spent up to now is        0.6 secs

     total energy              =     -31.55107003 Ry
     Harris-Foulkes estimate   =     -31.50870211 Ry
     estimated scf accuracy    <       0.91891068 Ry

     iteration # 11     ecut=    30.00 Ry     beta=0.70
     Davidson diagonalization with overlap
     ethr =  1.00E-02,  avg # of iterations =  1.0

     negative rho (up, down):  8.437E-02 0.000E+00

     total cpu time spent up to now is        0.7 secs

     total energy              =     -31.54611049 Ry
     Harris-Foulkes estimate   =     -31.59697951 Ry
     estimated scf accuracy    <       3.69400758 Ry

     iteration # 12     ecut=    30.00 Ry     beta=0.70
     Davidson diagonalization with overlap
     ethr =  1.00E-02,  avg # of iterations =  1.0

     negative rho (up, down):  1.032E-01 0.000E+00

     total cpu time spent up to now is        0.7 secs

     total energy              =     -30.77405338 Ry
     Harris-Foulkes estimate   =     -31.54745327 Ry
     estimated scf accuracy    <       3.14915643 Ry

     iteration # 13     ecut=    30.00 Ry     beta=0.70
     Davidson diagonalization with overlap
     ethr =  1.00E-02,  avg # of iterations =  1.0

     negative rho (up, down):  9.575E-02 0.000E+00

     total cpu time spent up to now is        0.7 secs

     total energy              =     -31.91872259 Ry
     Harris-Foulkes estimate   =     -32.20146985 Ry
     estimated scf accuracy    <       3.62105987 Ry

     iteration # 14     ecut=    30.00 Ry     beta=0.70
     Davidson diagonalization with overlap
     ethr =  1.00E-02,  avg # of iterations =  1.0

     negative rho (up, down):  6.917E-02 0.000E+00

     total cpu time spent up to now is        0.8 secs

     total energy              =     -31.92081705 Ry
     Harris-Foulkes estimate   =     -31.92229004 Ry
     estimated scf accuracy    <       3.18073068 Ry

     iteration # 15     ecut=    30.00 Ry     beta=0.70
     Davidson diagonalization with overlap
     ethr =  1.00E-02,  avg # of iterations =  1.0

     negative rho (up, down):  4.438E-04 0.000E+00

     total cpu time spent up to now is        0.8 secs

     total energy              =     -31.28448539 Ry
     Harris-Foulkes estimate   =     -31.92088690 Ry
     estimated scf accuracy    <       3.17382763 Ry

     iteration # 16     ecut=    30.00 Ry     beta=0.70
     Davidson diagonalization with overlap
     ethr =  1.00E-02,  avg # of iterations =  1.0

     negative rho (up, down):  3.383E-04 0.000E+00

     total cpu time spent up to now is        0.8 secs

     total energy              =     -31.62182233 Ry
     Harris-Foulkes estimate   =     -31.66620285 Ry
     estimated scf accuracy    <       3.56630537 Ry

     iteration # 17     ecut=    30.00 Ry     beta=0.70
     Davidson diagonalization with overlap
     ethr =  1.00E-02,  avg # of iterations =  1.0

     negative rho (up, down):  2.414E-03 0.000E+00

     total cpu time spent up to now is        0.9 secs

     total energy              =     -31.53864818 Ry
     Harris-Foulkes estimate   =     -31.62222417 Ry
     estimated scf accuracy    <       3.58784083 Ry

     iteration # 18     ecut=    30.00 Ry     beta=0.70
     Davidson diagonalization with overlap
     ethr =  1.00E-02,  avg # of iterations =  1.0

     negative rho (up, down):  5.195E-03 0.000E+00

     total cpu time spent up to now is        0.9 secs

     total energy              =     -31.42474000 Ry
     Harris-Foulkes estimate   =     -31.53624520 Ry
     estimated scf accuracy    <       2.99686065 Ry

     iteration # 19     ecut=    30.00 Ry     beta=0.70
     Davidson diagonalization with overlap
     ethr =  1.00E-02,  avg # of iterations =  1.0

     negative rho (up, down):  3.851E-03 0.000E+00

     total cpu time spent up to now is        0.9 secs

     total energy              =     -31.46908601 Ry
     Harris-Foulkes estimate   =     -31.51550526 Ry
     estimated scf accuracy    <       1.10292004 Ry

     iteration # 20     ecut=    30.00 Ry     beta=0.70
     Davidson diagonalization with overlap
     ethr =  1.00E-02,  avg # of iterations =  1.0

     negative rho (up, down):  2.368E-03 0.000E+00

     total cpu time spent up to now is        1.0 secs

     total energy              =     -31.53053129 Ry
     Harris-Foulkes estimate   =     -31.50762884 Ry
     estimated scf accuracy    <       0.78464990 Ry

     iteration # 21     ecut=    30.00 Ry     beta=0.70
     Davidson diagonalization with overlap
     ethr =  9.81E-03,  avg # of iterations =  1.0

     negative rho (up, down):  1.212E-03 0.000E+00

     total cpu time spent up to now is        1.0 secs

     total energy              =     -31.57086184 Ry
     Harris-Foulkes estimate   =     -31.54486844 Ry
     estimated scf accuracy    <       3.53286478 Ry

     iteration # 22     ecut=    30.00 Ry     beta=0.70
     Davidson diagonalization with overlap
     ethr =  9.81E-03,  avg # of iterations =  1.0

     negative rho (up, down):  2.735E-03 0.000E+00

     total cpu time spent up to now is        1.0 secs

     total energy              =     -31.50556990 Ry
     Harris-Foulkes estimate   =     -31.57224600 Ry
     estimated scf accuracy    <       4.11297896 Ry

     iteration # 23     ecut=    30.00 Ry     beta=0.70
     Davidson diagonalization with overlap
     ethr =  9.81E-03,  avg # of iterations =  1.0

     negative rho (up, down):  1.081E-03 0.000E+00

     total cpu time spent up to now is        1.1 secs

     total energy              =     -31.53500574 Ry
     Harris-Foulkes estimate   =     -31.51462182 Ry
     estimated scf accuracy    <       1.45751742 Ry

     iteration # 24     ecut=    30.00 Ry     beta=0.70
     Davidson diagonalization with overlap
     ethr =  9.81E-03,  avg # of iterations =  1.0

     negative rho (up, down):  5.725E-04 0.000E+00

     total cpu time spent up to now is        1.1 secs

     total energy              =     -31.58716715 Ry
     Harris-Foulkes estimate   =     -31.54064357 Ry
     estimated scf accuracy    <       3.33071378 Ry

     iteration # 25     ecut=    30.00 Ry     beta=0.70
     Davidson diagonalization with overlap
     ethr =  9.81E-03,  avg # of iterations =  1.0

     negative rho (up, down):  5.348E-04 0.000E+00

     total cpu time spent up to now is        1.1 secs

     total energy              =     -31.44056928 Ry
     Harris-Foulkes estimate   =     -31.59088128 Ry
     estimated scf accuracy    <       3.91689172 Ry

     iteration # 26     ecut=    30.00 Ry     beta=0.70
     Davidson diagonalization with overlap
     ethr =  9.81E-03,  avg # of iterations =  1.0

     negative rho (up, down):  8.599E-05 0.000E+00

     total cpu time spent up to now is        1.2 secs

     total energy              =     -31.50401370 Ry
     Harris-Foulkes estimate   =     -31.50230845 Ry
     estimated scf accuracy    <       0.23207797 Ry

     iteration # 27     ecut=    30.00 Ry     beta=0.70
     Davidson diagonalization with overlap
     ethr =  2.90E-03,  avg # of iterations =  1.0

     negative rho (up, down):  4.376E-05 0.000E+00

     total cpu time spent up to now is        1.2 secs

     total energy              =     -31.50314959 Ry
     Harris-Foulkes estimate   =     -31.50431684 Ry
     estimated scf accuracy    <       0.39203250 Ry

     iteration # 28     ecut=    30.00 Ry     beta=0.70
     Davidson diagonalization with overlap
     ethr =  2.90E-03,  avg # of iterations =  1.0

     negative rho (up, down):  1.614E-05 0.000E+00

     total cpu time spent up to now is        1.2 secs

     total energy              =     -31.50162890 Ry
     Harris-Foulkes estimate   =     -31.50322105 Ry
     estimated scf accuracy    <       0.30544120 Ry

     iteration # 29     ecut=    30.00 Ry     beta=0.70
     Davidson diagonalization with overlap
     ethr =  2.90E-03,  avg # of iterations =  1.0

     negative rho (up, down):  1.562E-05 0.000E+00

     total cpu time spent up to now is        1.3 secs

     total energy              =     -31.50172261 Ry
     Harris-Foulkes estimate   =     -31.50179883 Ry
     estimated scf accuracy    <       0.18768263 Ry

     iteration # 30     ecut=    30.00 Ry     beta=0.70
     Davidson diagonalization with overlap
     ethr =  2.35E-03,  avg # of iterations =  1.0

     negative rho (up, down):  2.288E-05 0.000E+00

     total cpu time spent up to now is        1.3 secs

     total energy              =     -31.50161333 Ry
     Harris-Foulkes estimate   =     -31.50172350 Ry
     estimated scf accuracy    <       0.18109696 Ry

     iteration # 31     ecut=    30.00 Ry     beta=0.70
     Davidson diagonalization with overlap
     ethr =  2.26E-03,  avg # of iterations =  1.0

     negative rho (up, down):  1.596E-05 0.000E+00

     total cpu time spent up to now is        1.3 secs

     total energy              =     -31.50132941 Ry
     Harris-Foulkes estimate   =     -31.50161494 Ry
     estimated scf accuracy    <       0.17174615 Ry

     iteration # 32     ecut=    30.00 Ry     beta=0.70
     Davidson diagonalization with overlap
     ethr =  2.15E-03,  avg # of iterations =  1.0

     negative rho (up, down):  8.094E-06 0.000E+00

     total cpu time spent up to now is        1.4 secs

     total energy              =     -31.50129679 Ry
     Harris-Foulkes estimate   =     -31.50133983 Ry
     estimated scf accuracy    <       0.14757681 Ry

     iteration # 33     ecut=    30.00 Ry     beta=0.70
     Davidson diagonalization with overlap
     ethr =  1.84E-03,  avg # of iterations =  1.0

     negative rho (up, down):  1.165E-06 0.000E+00

     total cpu time spent up to now is        1.4 secs

     total energy              =     -31.49810082 Ry
     Harris-Foulkes estimate   =     -31.50129768 Ry
     estimated scf accuracy    <       0.14358263 Ry

     iteration # 34     ecut=    30.00 Ry     beta=0.70
     Davidson diagonalization with overlap
     ethr =  1.79E-03,  avg # of iterations =  1.0

     negative rho (up, down):  2.170E-08 0.000E+00

     total cpu time spent up to now is        1.4 secs

     total energy              =     -31.49973427 Ry
     Harris-Foulkes estimate   =     -31.49974491 Ry
     estimated scf accuracy    <       0.00046319 Ry

     iteration # 35     ecut=    30.00 Ry     beta=0.70
     Davidson diagonalization with overlap
     ethr =  5.79E-06,  avg # of iterations = 10.0

     negative rho (up, down):  2.024E-08 0.000E+00

     total cpu time spent up to now is        1.5 secs

     total energy              =     -31.49972912 Ry
     Harris-Foulkes estimate   =     -31.49973733 Ry
     estimated scf accuracy    <       0.00010738 Ry

     iteration # 36     ecut=    30.00 Ry     beta=0.70
     Davidson diagonalization with overlap
     ethr =  1.34E-06,  avg # of iterations =  2.0

     negative rho (up, down):  1.603E-08 0.000E+00

     total cpu time spent up to now is        1.5 secs

     total energy              =     -31.49972801 Ry
     Harris-Foulkes estimate   =     -31.49973147 Ry
     estimated scf accuracy    <       0.00000843 Ry

     iteration # 37     ecut=    30.00 Ry     beta=0.70
     Davidson diagonalization with overlap
     ethr =  1.05E-07,  avg # of iterations =  1.0

     total cpu time spent up to now is        1.5 secs

     total energy              =     -31.49972908 Ry
     Harris-Foulkes estimate   =     -31.49972839 Ry
     estimated scf accuracy    <       0.00001613 Ry

     iteration # 38     ecut=    30.00 Ry     beta=0.70
     Davidson diagonalization with overlap
     ethr =  1.05E-07,  avg # of iterations =  1.0

     total cpu time spent up to now is        1.6 secs

     total energy              =     -31.49973070 Ry
     Harris-Foulkes estimate   =     -31.49972916 Ry
     estimated scf accuracy    <       0.00000299 Ry

     iteration # 39     ecut=    30.00 Ry     beta=0.70
     Davidson diagonalization with overlap
     ethr =  3.74E-08,  avg # of iterations =  1.0

     total cpu time spent up to now is        1.6 secs

     total energy              =     -31.49973082 Ry
     Harris-Foulkes estimate   =     -31.49973079 Ry
     estimated scf accuracy    <       0.00000059 Ry

     iteration # 40     ecut=    30.00 Ry     beta=0.70
     Davidson diagonalization with overlap
     ethr =  7.37E-09,  avg # of iterations =  1.0

     total cpu time spent up to now is        1.6 secs

     End of self-consistent calculation

          k = 0.0000 0.0000 0.0000 ( 22119 PWs)   bands (ev):

   -23.6006  -7.1363  -7.0106  -7.0104  -6.9050  -6.7727  -0.2001   0.6358

     the Fermi energy is    -6.8754 ev

!    total energy              =     -31.49973091 Ry
     Harris-Foulkes estimate   =     -31.49973083 Ry
     estimated scf accuracy    <          4.9E-09 Ry

     convergence has been achieved in  40 iterations

     Forces acting on atoms (Ry/au):

     atom    1 type  1   force =     0.00035057    0.00038761    0.00028075
     atom    2 type  1   force =     0.00638597   -0.00756189    0.00778865
     atom    3 type  2   force =    -0.00673654    0.00717429   -0.00806941

     Total force =     0.017915     Total SCF correction =     0.000083

     Molecular Dynamics Calculation

     Starting temperature  =  1000.00 K

     temperature is controlled by Andersen thermostat
     Collision frequency = 1.0000/timestep
     mass H                =     1.01
     mass O                =    16.00
     Time step             =   100.00 a.u.,  4.8378 femto-seconds

     Entering Dynamics:    iteration =     1
                           time      =   0.0048 pico-seconds


     Andersen thermostat:    3 collisions

ATOMIC_POSITIONS (bohr)
H        8.173842551  10.701353327   8.463896249
H       18.545011680  17.770657611  14.557910535
O        1.564772509  13.569832488  18.854987978


     kinetic energy (Ekin) =     0.01165545 Ry
     temperature           =   613.41573245 K 
     Ekin + Etot (const)   =   -31.48807546 Ry

     Linear momentum :   -0.0000000000   -0.0000000000   -0.0000000000

     Writing output data file pwscf.save
     Check: negative starting charge=   -0.343621
     NEW-OLD atomic charge density approx. for the potential
     Check: negative starting charge=   -0.343800

     negative rho (up, down):  3.777E-02 0.000E+00

     total cpu time spent up to now is        1.9 secs

     per-process dynamical memory:    20.4 Mb

     Self-consistent Calculation

     iteration #  1     ecut=    30.00 Ry     beta=0.70
     Davidson diagonalization with overlap
     c_bands:  1 eigenvalues not converged
     ethr =  1.00E-06,  avg # of iterations = 20.0

     negative rho (up, down):  8.271E-03 0.000E+00

     total cpu time spent up to now is        2.0 secs

     total energy              =     -31.47313830 Ry
     Harris-Foulkes estimate   =     -31.46160463 Ry
     estimated scf accuracy    <       0.02259004 Ry

     iteration #  2     ecut=    30.00 Ry     beta=0.70
     Davidson diagonalization with overlap
     ethr =  2.82E-04,  avg # of iterations =  2.0

     negative rho (up, down):  7.762E-03 0.000E+00

     total cpu time spent up to now is        2.0 secs

     total energy              =     -31.46590492 Ry
     Harris-Foulkes estimate   =     -31.77343959 Ry
     estimated scf accuracy    <       3.88026720 Ry

     iteration #  3     ecut=    30.00 Ry     beta=0.70
     Davidson diagonalization with overlap
     ethr =  2.82E-04,  avg # of iterations =  2.0

     negative rho (up, down):  7.454E-03 0.000E+00

     total cpu time spent up to now is        2.0 secs

     total energy              =     -31.47540868 Ry
     Harris-Foulkes estimate   =     -31.53294420 Ry
     estimated scf accuracy    <       1.07410307 Ry

     iteration #  4     ecut=    30.00 Ry     beta=0.70
     Davidson diagonalization with overlap
     ethr =  2.82E-04,  avg # of iterations =  1.0

     negative rho (up, down):  2.296E-03 0.000E+00

     total cpu time spent up to now is        2.1 secs

     total energy              =     -31.48291571 Ry
     Harris-Foulkes estimate   =     -31.49348142 Ry
     estimated scf accuracy    <       0.16931033 Ry

     iteration #  5     ecut=    30.00 Ry     beta=0.70
     Davidson diagonalization with overlap
     ethr =  2.82E-04,  avg # of iterations =  2.0

     negative rho (up, down):  6.024E-04 0.000E+00

     total cpu time spent up to now is        2.1 secs

     total energy              =     -31.49059871 Ry
     Harris-Foulkes estimate   =     -31.51387999 Ry
     estimated scf accuracy    <       1.02102024 Ry

     iteration #  6     ecut=    30.00 Ry     beta=0.70
     Davidson diagonalization with overlap
     ethr =  2.82E-04,  avg # of iterations =  3.0

     negative rho (up, down):  9.139E-05 0.000E+00

     total cpu time spent up to now is        2.1 secs

     total energy              =     -31.49821378 Ry
     Harris-Foulkes estimate   =     -31.49913010 Ry
     estimated scf accuracy    <       0.04297009 Ry

     iteration #  7     ecut=    30.00 Ry     beta=0.70
     Davidson diagonalization with overlap
     ethr =  2.82E-04,  avg # of iterations =  1.0

     negative rho (up, down):  1.095E-05 0.000E+00

     total cpu time spent up to now is        2.2 secs

     total energy              =     -31.49826595 Ry
     Harris-Foulkes estimate   =     -31.49858259 Ry
     estimated scf accuracy    <       0.00875905 Ry

     iteration #  8     ecut=    30.00 Ry     beta=0.70
     Davidson diagonalization with overlap
     ethr =  1.09E-04,  avg # of iterations =  3.0

     negative rho (up, down):  3.733E-07 0.000E+00

     total cpu time spent up to now is        2.2 secs

     total energy              =     -31.49839179 Ry
     Harris-Foulkes estimate   =     -31.49859152 Ry
     estimated scf accuracy    <       0.00671714 Ry

     iteration #  9     ecut=    30.00 Ry     beta=0.70
     Davidson diagonalization with overlap
     ethr =  8.40E-05,  avg # of iterations =  1.0

     total cpu time spent up to now is        2.2 secs

     total energy              =     -31.49852045 Ry
     Harris-Foulkes estimate   =     -31.49853202 Ry
     estimated scf accuracy    <       0.00132272 Ry

     iteration # 10     ecut=    30.00 Ry     beta=0.70
     Davidson diagonalization with overlap
     ethr =  1.65E-05,  avg # of iterations = 12.0

     total cpu time spent up to now is        2.3 secs

     total energy              =     -31.49850375 Ry
     Harris-Foulkes estimate   =     -31.49854809 Ry
     estimated scf accuracy    <       0.00230887 Ry

     iteration # 11     ecut=    30.00 Ry     beta=0.70
     Davidson diagonalization with overlap
     ethr =  1.65E-05,  avg # of iterations =  1.0

     total cpu time spent up to now is        2.3 secs

     total energy              =     -31.49850927 Ry
     Harris-Foulkes estimate   =     -31.49851784 Ry
     estimated scf accuracy    <       0.00051513 Ry

     iteration # 12     ecut=    30.00 Ry     beta=0.70
     Davidson diagonalization with overlap
     ethr =  6.44E-06,  avg # of iterations =  1.0

     total cpu time spent up to now is        2.4 secs

     total energy              =     -31.49851147 Ry
     Harris-Foulkes estimate   =     -31.49851226 Ry
     estimated scf accuracy    <       0.00004876 Ry

     iteration # 13     ecut=    30.00 Ry     beta=0.70
     Davidson diagonalization with overlap
     ethr =  6.09E-07,  avg # of iterations =  1.0

     total cpu time spent up to now is        2.4 secs

     total energy              =     -31.49851123 Ry
     Harris-Foulkes estimate   =     -31.49851163 Ry
     estimated scf accuracy    <       0.00001674 Ry

     iteration # 14     ecut=    30.00 Ry     beta=0.70
     Davidson diagonalization with overlap
     ethr =  2.09E-07,  avg # of iterations =  1.0

     total cpu time spent up to now is        2.4 secs

     total energy              =     -31.49851124 Ry
     Harris-Foulkes estimate   =     -31.49851129 Ry
     estimated scf accuracy    <       0.00000371 Ry

     iteration # 15     ecut=    30.00 Ry     beta=0.70
     Davidson diagonalization with overlap
     ethr =  4.64E-08,  avg # of iterations =  1.0

     total cpu time spent up to now is        2.4 secs

     End of self-consistent calculation

          k = 0.0000 0.0000 0.0000 ( 22119 PWs)   bands (ev):

   -23.6005  -7.1250  -7.0112  -7.0107  -6.9056  -6.7858  -0.2019   0.6335

     the Fermi energy is    -6.8759 ev

!    total energy              =     -31.49851133 Ry
     Harris-Foulkes estimate   =     -31.49851129 Ry
     estimated scf accuracy    <          1.4E-09 Ry

     convergence has been achieved in  15 iterations

     Forces acting on atoms (Ry/au):

     atom    1 type  1   force =     0.00035437    0.00037603    0.00027375
     atom    2 type  1   force =     0.00562499   -0.00678472    0.00762139
     atom    3 type  2   force =    -0.00597936    0.00640868   -0.00789514

     Total force =     0.016591     Total SCF correction =     0.000142

     Entering Dynamics:    iteration =     2
                           time      =   0.0097 pico-seconds


     Andersen thermostat:    3 collisions

ATOMIC_POSITIONS (bohr)
H        8.131373797  10.792968052   8.248407288
H       18.976109946  17.437861297  14.599621885
O        1.540240271  13.585057076  18.865957690


     kinetic energy (Ekin) =     0.01654894 Ry
     temperature           =   870.95587284 K 
     Ekin + Etot (const)   =   -31.48196239 Ry
     Message from routine dynamics:
     Total linear momentum <> 0

     Linear momentum :   -0.3251161187   -0.2146155990    0.0491594430

     Writing output data file pwscf.save

     first order wave-functions extrapolation
     Check: negative starting charge=   -0.343800
     first order charge density extrapolation
     Check: negative starting charge=   -0.343156

     negative rho (up, down):  5.333E-02 0.000E+00

     total cpu time spent up to now is        2.7 secs

     per-process dynamical memory:    20.4 Mb

     Self-consistent Calculation

     iteration #  1     ecut=    30.00 Ry     beta=0.70
     Davidson diagonalization with overlap
     c_bands:  1 eigenvalues not converged
     ethr =  1.00E-06,  avg # of iterations = 20.0

     negative rho (up, down):  1.187E-02 0.000E+00

     total cpu time spent up to now is        2.8 secs

     total energy              =     -30.83363764 Ry
     Harris-Foulkes estimate   =     -31.52424449 Ry
     estimated scf accuracy    <       0.82335515 Ry

     iteration #  2     ecut=    30.00 Ry     beta=0.70
     Davidson diagonalization with overlap
     ethr =  1.00E-02,  avg # of iterations =  2.0

     negative rho (up, down):  9.533E-03 0.000E+00

     total cpu time spent up to now is        2.9 secs

     total energy              =     -31.40596776 Ry
     Harris-Foulkes estimate   =     -32.90799793 Ry
     estimated scf accuracy    <       4.95377914 Ry

     iteration #  3     ecut=    30.00 Ry     beta=0.70
     Davidson diagonalization with overlap
     ethr =  1.00E-02,  avg # of iterations =  2.0

     negative rho (up, down):  7.915E-03 0.000E+00

     total cpu time spent up to now is        2.9 secs

     total energy              =     -31.76557468 Ry
     Harris-Foulkes estimate   =     -32.28198215 Ry
     estimated scf accuracy    <       2.18174281 Ry

     iteration #  4     ecut=    30.00 Ry     beta=0.70
     Davidson diagonalization with overlap
     ethr =  1.00E-02,  avg # of iterations =  1.0

     negative rho (up, down):  7.612E-03 0.000E+00

     total cpu time spent up to now is        2.9 secs

     total energy              =     -31.71386998 Ry
     Harris-Foulkes estimate   =     -31.77677242 Ry
     estimated scf accuracy    <       1.45128095 Ry

     iteration #  5     ecut=    30.00 Ry     beta=0.70
     Davidson diagonalization with overlap
     ethr =  1.00E-02,  avg # of iterations =  1.0

     negative rho (up, down):  5.914E-03 0.000E+00

     total cpu time spent up to now is        3.0 secs

     total energy              =     -31.48105315 Ry
     Harris-Foulkes estimate   =     -31.71236209 Ry
     estimated scf accuracy    <       1.12327980 Ry

     iteration #  6     ecut=    30.00 Ry     beta=0.70
     Davidson diagonalization with overlap
     ethr =  1.00E-02,  avg # of iterations =  1.0

     negative rho (up, down):  5.767E-03 0.000E+00

     total cpu time spent up to now is        3.0 secs

     total energy              =     -31.56044520 Ry
     Harris-Foulkes estimate   =     -31.60190701 Ry
     estimated scf accuracy    <       2.45874780 Ry

     iteration #  7     ecut=    30.00 Ry     beta=0.70
     Davidson diagonalization with overlap
     ethr =  1.00E-02,  avg # of iterations =  1.0

     negative rho (up, down):  5.554E-03 0.000E+00

     total cpu time spent up to now is        3.0 secs

     total energy              =     -31.43643739 Ry
     Harris-Foulkes estimate   =     -31.56114170 Ry
     estimated scf accuracy    <       2.24467185 Ry

     iteration #  8     ecut=    30.00 Ry     beta=0.70
     Davidson diagonalization with overlap
     ethr =  1.00E-02,  avg # of iterations =  1.0

     negative rho (up, down):  4.699E-03 0.000E+00

     total cpu time spent up to now is        3.1 secs

     total energy              =     -31.57396487 Ry
     Harris-Foulkes estimate   =     -31.54433812 Ry
     estimated scf accuracy    <       1.21720279 Ry

     iteration #  9     ecut=    30.00 Ry     beta=0.70
     Davidson diagonalization with overlap
     ethr =  1.00E-02,  avg # of iterations =  1.0

     negative rho (up, down):  2.682E-03 0.000E+00

     total cpu time spent up to now is        3.1 secs

     total energy              =     -31.43611238 Ry
     Harris-Foulkes estimate   =     -31.59127458 Ry
     estimated scf accuracy    <       2.48851161 Ry

     iteration # 10     ecut=    30.00 Ry     beta=0.70
     Davidson diagonalization with overlap
     ethr =  1.00E-02,  avg # of iterations =  1.0

     negative rho (up, down):  1.837E-06 0.000E+00

     total cpu time spent up to now is        3.1 secs

     total energy              =     -31.45762129 Ry
     Harris-Foulkes estimate   =     -31.54007024 Ry
     estimated scf accuracy    <       0.68918162 Ry

     iteration # 11     ecut=    30.00 Ry     beta=0.70
     Davidson diagonalization with overlap
     ethr =  8.61E-03,  avg # of iterations =  1.0

     negative rho (up, down):  3.390E-07 0.000E+00

     total cpu time spent up to now is        3.2 secs

     total energy              =     -31.58559542 Ry
     Harris-Foulkes estimate   =     -31.63142960 Ry
     estimated scf accuracy    <       3.33981773 Ry

     iteration # 12     ecut=    30.00 Ry     beta=0.70
     Davidson diagonalization with overlap
     ethr =  8.61E-03,  avg # of iterations =  1.0

     negative rho (up, down):  3.250E-08 0.000E+00

     total cpu time spent up to now is        3.2 secs

     total energy              =     -31.59534511 Ry
     Harris-Foulkes estimate   =     -31.58462126 Ry
     estimated scf accuracy    <       3.92480298 Ry

     iteration # 13     ecut=    30.00 Ry     beta=0.70
     Davidson diagonalization with overlap
     ethr =  8.61E-03,  avg # of iterations =  1.0

     negative rho (up, down):  3.255E-06 0.000E+00

     total cpu time spent up to now is        3.2 secs

     total energy              =     -31.54890129 Ry
     Harris-Foulkes estimate   =     -31.59535046 Ry
     estimated scf accuracy    <       3.90231227 Ry

     iteration # 14     ecut=    30.00 Ry     beta=0.70
     Davidson diagonalization with overlap
     ethr =  8.61E-03,  avg # of iterations =  1.0

     negative rho (up, down):  9.361E-05 0.000E+00

     total cpu time spent up to now is        3.3 secs

     total energy              =     -31.46452789 Ry
     Harris-Foulkes estimate   =     -31.55177210 Ry
     estimated scf accuracy    <       2.59490883 Ry

     iteration # 15     ecut=    30.00 Ry     beta=0.70
     Davidson diagonalization with overlap
     ethr =  8.61E-03,  avg # of iterations =  1.0

     negative rho (up, down):  1.414E-05 0.000E+00

     total cpu time spent up to now is        3.3 secs

     total energy              =     -31.51521516 Ry
     Harris-Foulkes estimate   =     -31.51641880 Ry
     estimated scf accuracy    <       0.43513716 Ry

     iteration # 16     ecut=    30.00 Ry     beta=0.70
     Davidson diagonalization with overlap
     ethr =  5.44E-03,  avg # of iterations =  1.0

     negative rho (up, down):  2.619E-08 0.000E+00

     total cpu time spent up to now is        3.3 secs

     total energy              =     -31.51394269 Ry
     Harris-Foulkes estimate   =     -31.51561805 Ry
     estimated scf accuracy    <       0.51341831 Ry

     iteration # 17     ecut=    30.00 Ry     beta=0.70
     Davidson diagonalization with overlap
     ethr =  5.44E-03,  avg # of iterations =  1.0

     negative rho (up, down):  4.797E-06 0.000E+00

     total cpu time spent up to now is        3.4 secs

     total energy              =     -31.51656700 Ry
     Harris-Foulkes estimate   =     -31.51404941 Ry
     estimated scf accuracy    <       0.49095884 Ry

     iteration # 18     ecut=    30.00 Ry     beta=0.70
     Davidson diagonalization with overlap
     ethr =  5.44E-03,  avg # of iterations =  1.0

     negative rho (up, down):  5.178E-05 0.000E+00

     total cpu time spent up to now is        3.4 secs

     total energy              =     -31.50599020 Ry
     Harris-Foulkes estimate   =     -31.51672046 Ry
     estimated scf accuracy    <       0.57464587 Ry

     iteration # 19     ecut=    30.00 Ry     beta=0.70
     Davidson diagonalization with overlap
     ethr =  5.44E-03,  avg # of iterations =  1.0

     negative rho (up, down):  1.447E-07 0.000E+00

     total cpu time spent up to now is        3.4 secs

     total energy              =     -31.50516144 Ry
     Harris-Foulkes estimate   =     -31.51015778 Ry
     estimated scf accuracy    <       0.20288079 Ry

     iteration # 20     ecut=    30.00 Ry     beta=0.70
     Davidson diagonalization with overlap
     ethr =  2.54E-03,  avg # of iterations =  1.0

     negative rho (up, down):  3.890E-07 0.000E+00

     total cpu time spent up to now is        3.5 secs

     total energy              =     -31.49894238 Ry
     Harris-Foulkes estimate   =     -31.50650064 Ry
     estimated scf accuracy    <       0.09781048 Ry

     iteration # 21     ecut=    30.00 Ry     beta=0.70
     Davidson diagonalization with overlap
     ethr =  1.22E-03,  avg # of iterations =  1.0

     total cpu time spent up to now is        3.5 secs

     total energy              =     -31.50384747 Ry
     Harris-Foulkes estimate   =     -31.50710800 Ry
     estimated scf accuracy    <       0.19195027 Ry

     iteration # 22     ecut=    30.00 Ry     beta=0.70
     Davidson diagonalization with overlap
     ethr =  1.22E-03,  avg # of iterations =  1.0

     negative rho (up, down):  3.843E-08 0.000E+00

     total cpu time spent up to now is        3.5 secs

     total energy              =     -31.50409791 Ry
     Harris-Foulkes estimate   =     -31.50477640 Ry
     estimated scf accuracy    <       0.03294487 Ry

     iteration # 23     ecut=    30.00 Ry     beta=0.70
     Davidson diagonalization with overlap
     ethr =  4.12E-04,  avg # of iterations =  1.0

     negative rho (up, down):  1.415E-07 0.000E+00

     total cpu time spent up to now is        3.6 secs

     total energy              =     -31.50431026 Ry
     Harris-Foulkes estimate   =     -31.50440009 Ry
     estimated scf accuracy    <       0.00146028 Ry

     iteration # 24     ecut=    30.00 Ry     beta=0.70
     Davidson diagonalization with overlap
     ethr =  1.83E-05,  avg # of iterations =  1.0

     total cpu time spent up to now is        3.6 secs

     total energy              =     -31.50436005 Ry
     Harris-Foulkes estimate   =     -31.50437156 Ry
     estimated scf accuracy    <       0.00029999 Ry

     iteration # 25     ecut=    30.00 Ry     beta=0.70
     Davidson diagonalization with overlap
     ethr =  3.75E-06,  avg # of iterations = 16.0

     negative rho (up, down):  1.104E-08 0.000E+00

     total cpu time spent up to now is        3.6 secs

     total energy              =     -31.50436323 Ry
     Harris-Foulkes estimate   =     -31.50436623 Ry
     estimated scf accuracy    <       0.00002550 Ry

     iteration # 26     ecut=    30.00 Ry     beta=0.70
     Davidson diagonalization with overlap
     ethr =  3.19E-07,  avg # of iterations =  1.0

     total cpu time spent up to now is        3.7 secs

     total energy              =     -31.50436255 Ry
     Harris-Foulkes estimate   =     -31.50436639 Ry
     estimated scf accuracy    <       0.00009848 Ry

     iteration # 27     ecut=    30.00 Ry     beta=0.70
     Davidson diagonalization with overlap
     ethr =  3.19E-07,  avg # of iterations =  1.0

     total cpu time spent up to now is        3.7 secs

     total energy              =     -31.50436402 Ry
     Harris-Foulkes estimate   =     -31.50436435 Ry
     estimated scf accuracy    <       0.00000427 Ry

     iteration # 28     ecut=    30.00 Ry     beta=0.70
     Davidson diagonalization with overlap
     ethr =  5.33E-08,  avg # of iterations =  1.0

     total cpu time spent up to now is        3.7 secs

     total energy              =     -31.50436406 Ry
     Harris-Foulkes estimate   =     -31.50436409 Ry
     estimated scf accuracy    <       0.00000097 Ry

     iteration # 29     ecut=    30.00 Ry     beta=0.70
     Davidson diagonalization with overlap
     ethr =  1.21E-08,  avg # of iterations =  1.0

     total cpu time spent up to now is        3.8 secs

     total energy              =     -31.50436407 Ry
     Harris-Foulkes estimate   =     -31.50436408 Ry
     estimated scf accuracy    <       0.00000003 Ry

     iteration # 30     ecut=    30.00 Ry     beta=0.70
     Davidson diagonalization with overlap
     ethr =  3.53E-10,  avg # of iterations =  1.0

     total cpu time spent up to now is        3.8 secs

     End of self-consistent calculation

          k = 0.0000 0.0000 0.0000 ( 22119 PWs)   bands (ev):

   -23.6104  -7.1844  -7.0176  -7.0167  -6.9112  -6.7351  -0.1932   0.6493

     the Fermi energy is    -6.8817 ev

!    total energy              =     -31.50436408 Ry
     Harris-Foulkes estimate   =     -31.50436408 Ry
     estimated scf accuracy    <          1.5E-09 Ry

     convergence has been achieved in  30 iterations

     Forces acting on atoms (Ry/au):

     atom    1 type  1   force =     0.00007850    0.00025454    0.00015680
     atom    2 type  1   force =     0.00706363   -0.00985839    0.01117258
     atom    3 type  2   force =    -0.00714213    0.00960385   -0.01132938

     Total force =     0.023315     Total SCF correction =     0.000151

     Entering Dynamics:    iteration =     3
                           time      =   0.0145 pico-seconds


     Andersen thermostat:    3 collisions

ATOMIC_POSITIONS (bohr)
H        8.190193876  10.678053642   7.987539500
H       19.510433428  17.304678766  14.518713093
O        1.502798084  13.600718196  18.887532336


     kinetic energy (Ekin) =     0.02133363 Ry
     temperature           =  1122.76986059 K 
     Ekin + Etot (const)   =   -31.48303045 Ry
     Message from routine dynamics:
     Total linear momentum <> 0

     Linear momentum :   -0.4035677505    0.3310705065   -0.0758284055

     Writing output data file pwscf.save

     second order wave-functions extrapolation
     Check: negative starting charge=   -0.343156
     second order charge density extrapolation
     Check: negative starting charge=   -0.342731

     negative rho (up, down):  5.569E-02 0.000E+00

     total cpu time spent up to now is        4.1 secs

     per-process dynamical memory:    20.4 Mb

     Self-consistent Calculation

     iteration #  1     ecut=    30.00 Ry     beta=0.70
     Davidson diagonalization with overlap
     c_bands:  1 eigenvalues not converged
     ethr =  1.00E-06,  avg # of iterations = 20.0

     negative rho (up, down):  1.224E-02 0.000E+00

     total cpu time spent up to now is        4.2 secs

     total energy              =     -18.64943668 Ry
     Harris-Foulkes estimate   =     -38.22795006 Ry
     estimated scf accuracy    <       4.48690165 Ry

     iteration #  2     ecut=    30.00 Ry     beta=0.70
     Davidson diagonalization with overlap
     ethr =  1.00E-02,  avg # of iterations =  3.0

     negative rho (up, down):  8.304E-03 0.000E+00

     total cpu time spent up to now is        4.2 secs

     total energy              =     -31.44181827 Ry
     Harris-Foulkes estimate   =     -34.76688269 Ry
     estimated scf accuracy    <       7.25041817 Ry

     iteration #  3     ecut=    30.00 Ry     beta=0.70
     Davidson diagonalization with overlap
     ethr =  1.00E-02,  avg # of iterations =  2.0

     negative rho (up, down):  5.774E-03 0.000E+00

     total cpu time spent up to now is        4.3 secs

     total energy              =     -32.10558844 Ry
     Harris-Foulkes estimate   =     -33.17525667 Ry
     estimated scf accuracy    <       3.62423237 Ry

     iteration #  4     ecut=    30.00 Ry     beta=0.70
     Davidson diagonalization with overlap
     ethr =  1.00E-02,  avg # of iterations =  2.0

     negative rho (up, down):  5.638E-03 0.000E+00

     total cpu time spent up to now is        4.3 secs

     total energy              =     -32.00967560 Ry
     Harris-Foulkes estimate   =     -32.17795413 Ry
     estimated scf accuracy    <       1.96114705 Ry

     iteration #  5     ecut=    30.00 Ry     beta=0.70
     Davidson diagonalization with overlap
     ethr =  1.00E-02,  avg # of iterations =  1.0

     negative rho (up, down):  5.374E-03 0.000E+00

     total cpu time spent up to now is        4.3 secs

     total energy              =     -31.60220571 Ry
     Harris-Foulkes estimate   =     -32.01188261 Ry
     estimated scf accuracy    <       1.83966305 Ry

     iteration #  6     ecut=    30.00 Ry     beta=0.70
     Davidson diagonalization with overlap
     ethr =  1.00E-02,  avg # of iterations =  3.0

     negative rho (up, down):  5.094E-03 0.000E+00

     total cpu time spent up to now is        4.4 secs

     total energy              =     -31.96967787 Ry
     Harris-Foulkes estimate   =     -32.06853187 Ry
     estimated scf accuracy    <       3.15293500 Ry

     iteration #  7     ecut=    30.00 Ry     beta=0.70
     Davidson diagonalization with overlap
     ethr =  1.00E-02,  avg # of iterations =  2.0

     negative rho (up, down):  3.240E-03 0.000E+00

     total cpu time spent up to now is        4.4 secs

     total energy              =     -31.46868672 Ry
     Harris-Foulkes estimate   =     -32.47415876 Ry
     estimated scf accuracy    <       2.55305802 Ry

     iteration #  8     ecut=    30.00 Ry     beta=0.70
     Davidson diagonalization with overlap
     ethr =  1.00E-02,  avg # of iterations =  2.0

     negative rho (up, down):  2.283E-03 0.000E+00

     total cpu time spent up to now is        4.4 secs

     total energy              =     -31.56502458 Ry
     Harris-Foulkes estimate   =     -31.79911010 Ry
     estimated scf accuracy    <       2.73312996 Ry

     iteration #  9     ecut=    30.00 Ry     beta=0.70
     Davidson diagonalization with overlap
     ethr =  1.00E-02,  avg # of iterations =  1.0

     negative rho (up, down):  2.424E-03 0.000E+00

     total cpu time spent up to now is        4.5 secs

     total energy              =     -31.56806636 Ry
     Harris-Foulkes estimate   =     -31.59036425 Ry
     estimated scf accuracy    <       0.97392267 Ry

     iteration # 10     ecut=    30.00 Ry     beta=0.70
     Davidson diagonalization with overlap
     ethr =  1.00E-02,  avg # of iterations =  1.0

     negative rho (up, down):  1.188E-02 0.000E+00

     total cpu time spent up to now is        4.5 secs

     total energy              =     -30.95913988 Ry
     Harris-Foulkes estimate   =     -31.58873006 Ry
     estimated scf accuracy    <       1.99664185 Ry

     iteration # 11     ecut=    30.00 Ry     beta=0.70
     Davidson diagonalization with overlap
     ethr =  1.00E-02,  avg # of iterations =  2.0

     negative rho (up, down):  9.330E-02 0.000E+00

     total cpu time spent up to now is        4.5 secs

     total energy              =     -33.01840168 Ry
     Harris-Foulkes estimate   =     -32.38281978 Ry
     estimated scf accuracy    <       4.81743769 Ry

     iteration # 12     ecut=    30.00 Ry     beta=0.70
     Davidson diagonalization with overlap
     ethr =  1.00E-02,  avg # of iterations =  2.0

     negative rho (up, down):  5.642E-02 0.000E+00

     total cpu time spent up to now is        4.7 secs

     total energy              =     -32.89002131 Ry
     Harris-Foulkes estimate   =     -33.06659232 Ry
     estimated scf accuracy    <       6.16221014 Ry

     iteration # 13     ecut=    30.00 Ry     beta=0.70
     Davidson diagonalization with overlap
     ethr =  1.00E-02,  avg # of iterations =  1.0

     negative rho (up, down):  6.981E-02 0.000E+00

     total cpu time spent up to now is        4.7 secs

     total energy              =     -32.90515778 Ry
     Harris-Foulkes estimate   =     -32.89500587 Ry
     estimated scf accuracy    <       5.74710865 Ry

     iteration # 14     ecut=    30.00 Ry     beta=0.70
     Davidson diagonalization with overlap
     ethr =  1.00E-02,  avg # of iterations =  1.0

     negative rho (up, down):  7.223E-02 0.000E+00

     total cpu time spent up to now is        4.7 secs

     total energy              =     -32.80705517 Ry
     Harris-Foulkes estimate   =     -32.90627448 Ry
     estimated scf accuracy    <       5.77731861 Ry

     iteration # 15     ecut=    30.00 Ry     beta=0.70
     Davidson diagonalization with overlap
     ethr =  1.00E-02,  avg # of iterations =  1.0

     negative rho (up, down):  6.790E-02 0.000E+00

     total cpu time spent up to now is        4.8 secs

     total energy              =     -32.84313073 Ry
     Harris-Foulkes estimate   =     -32.80834969 Ry
     estimated scf accuracy    <       5.59582397 Ry

     iteration # 16     ecut=    30.00 Ry     beta=0.70
     Davidson diagonalization with overlap
     ethr =  1.00E-02,  avg # of iterations =  1.0

     negative rho (up, down):  1.249E-01 0.000E+00

     total cpu time spent up to now is        4.8 secs

     total energy              =     -32.81906754 Ry
     Harris-Foulkes estimate   =     -32.84369339 Ry
     estimated scf accuracy    <       5.65117125 Ry

     iteration # 17     ecut=    30.00 Ry     beta=0.70
     Davidson diagonalization with overlap
     ethr =  1.00E-02,  avg # of iterations =  2.0

     negative rho (up, down):  1.401E-02 0.000E+00

     total cpu time spent up to now is        4.8 secs

     total energy              =     -31.45301039 Ry
     Harris-Foulkes estimate   =     -32.92491344 Ry
     estimated scf accuracy    <       6.03643411 Ry

     iteration # 18     ecut=    30.00 Ry     beta=0.70
     Davidson diagonalization with overlap
     ethr =  1.00E-02,  avg # of iterations =  2.0

     negative rho (up, down):  2.503E-02 0.000E+00

     total cpu time spent up to now is        4.9 secs

     total energy              =     -31.00305005 Ry
     Harris-Foulkes estimate   =     -31.68153055 Ry
     estimated scf accuracy    <       1.30746801 Ry

     iteration # 19     ecut=    30.00 Ry     beta=0.70
     Davidson diagonalization with overlap
     ethr =  1.00E-02,  avg # of iterations =  2.0

     negative rho (up, down):  3.268E-04 0.000E+00

     total cpu time spent up to now is        4.9 secs

     total energy              =     -31.77038595 Ry
     Harris-Foulkes estimate   =     -32.20957684 Ry
     estimated scf accuracy    <       2.12331687 Ry

     iteration # 20     ecut=    30.00 Ry     beta=0.70
     Davidson diagonalization with overlap
     ethr =  1.00E-02,  avg # of iterations =  1.0

     negative rho (up, down):  1.450E-03 0.000E+00

     total cpu time spent up to now is        4.9 secs

     total energy              =     -31.55586510 Ry
     Harris-Foulkes estimate   =     -31.78572185 Ry
     estimated scf accuracy    <       1.43417704 Ry

     iteration # 21     ecut=    30.00 Ry     beta=0.70
     Davidson diagonalization with overlap
     ethr =  1.00E-02,  avg # of iterations =  1.0

     negative rho (up, down):  1.970E-03 0.000E+00

     total cpu time spent up to now is        5.0 secs

     total energy              =     -31.50397164 Ry
     Harris-Foulkes estimate   =     -31.56311708 Ry
     estimated scf accuracy    <       0.57429375 Ry

     iteration # 22     ecut=    30.00 Ry     beta=0.70
     Davidson diagonalization with overlap
     ethr =  7.18E-03,  avg # of iterations =  1.0

     negative rho (up, down):  1.353E-03 0.000E+00

     total cpu time spent up to now is        5.0 secs

     total energy              =     -31.54574769 Ry
     Harris-Foulkes estimate   =     -31.51656662 Ry
     estimated scf accuracy    <       0.45394866 Ry

     iteration # 23     ecut=    30.00 Ry     beta=0.70
     Davidson diagonalization with overlap
     ethr =  5.67E-03,  avg # of iterations =  1.0

     negative rho (up, down):  1.124E-03 0.000E+00

     total cpu time spent up to now is        5.0 secs

     total energy              =     -31.51876127 Ry
     Harris-Foulkes estimate   =     -31.55956096 Ry
     estimated scf accuracy    <       1.18107654 Ry

     iteration # 24     ecut=    30.00 Ry     beta=0.70
     Davidson diagonalization with overlap
     ethr =  5.67E-03,  avg # of iterations =  1.0

     negative rho (up, down):  4.234E-04 0.000E+00

     total cpu time spent up to now is        5.1 secs

     total energy              =     -31.49033615 Ry
     Harris-Foulkes estimate   =     -31.52063162 Ry
     estimated scf accuracy    <       0.52278657 Ry

     iteration # 25     ecut=    30.00 Ry     beta=0.70
     Davidson diagonalization with overlap
     ethr =  5.67E-03,  avg # of iterations =  1.0

     negative rho (up, down):  1.194E-04 0.000E+00

     total cpu time spent up to now is        5.1 secs

     total energy              =     -31.49180278 Ry
     Harris-Foulkes estimate   =     -31.51780419 Ry
     estimated scf accuracy    <       0.47354769 Ry

     iteration # 26     ecut=    30.00 Ry     beta=0.70
     Davidson diagonalization with overlap
     ethr =  5.67E-03,  avg # of iterations =  1.0

     negative rho (up, down):  2.040E-06 0.000E+00

     total cpu time spent up to now is        5.1 secs

     total energy              =     -31.49805705 Ry
     Harris-Foulkes estimate   =     -31.51480035 Ry
     estimated scf accuracy    <       0.46557874 Ry

     iteration # 27     ecut=    30.00 Ry     beta=0.70
     Davidson diagonalization with overlap
     ethr =  5.67E-03,  avg # of iterations =  1.0

     negative rho (up, down):  2.014E-08 0.000E+00

     total cpu time spent up to now is        5.2 secs

     total energy              =     -31.51299828 Ry
     Harris-Foulkes estimate   =     -31.51390916 Ry
     estimated scf accuracy    <       0.34312161 Ry

     iteration # 28     ecut=    30.00 Ry     beta=0.70
     Davidson diagonalization with overlap
     ethr =  4.29E-03,  avg # of iterations =  1.0

     total cpu time spent up to now is        5.2 secs

     total energy              =     -31.50560031 Ry
     Harris-Foulkes estimate   =     -31.51317215 Ry
     estimated scf accuracy    <       0.33301680 Ry

     iteration # 29     ecut=    30.00 Ry     beta=0.70
     Davidson diagonalization with overlap
     ethr =  4.16E-03,  avg # of iterations =  1.0

     total cpu time spent up to now is        5.2 secs

     total energy              =     -31.50906932 Ry
     Harris-Foulkes estimate   =     -31.50903176 Ry
     estimated scf accuracy    <       0.00347391 Ry

     iteration # 30     ecut=    30.00 Ry     beta=0.70
     Davidson diagonalization with overlap
     ethr =  4.34E-05,  avg # of iterations =  9.0

     total cpu time spent up to now is        5.3 secs

     total energy              =     -31.50905717 Ry
     Harris-Foulkes estimate   =     -31.50912779 Ry
     estimated scf accuracy    <       0.00929438 Ry

     iteration # 31     ecut=    30.00 Ry     beta=0.70
     Davidson diagonalization with overlap
     ethr =  4.34E-05,  avg # of iterations =  1.0

     total cpu time spent up to now is        5.3 secs

     total energy              =     -31.50892893 Ry
     Harris-Foulkes estimate   =     -31.50906686 Ry
     estimated scf accuracy    <       0.00528430 Ry

     iteration # 32     ecut=    30.00 Ry     beta=0.70
     Davidson diagonalization with overlap
     ethr =  4.34E-05,  avg # of iterations =  1.0

     total cpu time spent up to now is        5.4 secs

     total energy              =     -31.50899483 Ry
     Harris-Foulkes estimate   =     -31.50899524 Ry
     estimated scf accuracy    <       0.00000659 Ry

     iteration # 33     ecut=    30.00 Ry     beta=0.70
     Davidson diagonalization with overlap
     ethr =  8.23E-08,  avg # of iterations =  5.0

     total cpu time spent up to now is        5.4 secs

     total energy              =     -31.50899473 Ry
     Harris-Foulkes estimate   =     -31.50899511 Ry
     estimated scf accuracy    <       0.00000290 Ry

     iteration # 34     ecut=    30.00 Ry     beta=0.70
     Davidson diagonalization with overlap
     ethr =  3.62E-08,  avg # of iterations =  1.0

     total cpu time spent up to now is        5.4 secs

     total energy              =     -31.50899475 Ry
     Harris-Foulkes estimate   =     -31.50899478 Ry
     estimated scf accuracy    <       0.00000001 Ry

     iteration # 35     ecut=    30.00 Ry     beta=0.70
     Davidson diagonalization with overlap
     ethr =  1.49E-10,  avg # of iterations =  1.0

     total cpu time spent up to now is        5.5 secs

     total energy              =     -31.50899464 Ry
     Harris-Foulkes estimate   =     -31.50899475 Ry
     estimated scf accuracy    <       0.00000006 Ry

     iteration # 36     ecut=    30.00 Ry     beta=0.70
     Davidson diagonalization with overlap
     ethr =  1.49E-10,  avg # of iterations =  1.0

     total cpu time spent up to now is        5.5 secs

     End of self-consistent calculation

          k = 0.0000 0.0000 0.0000 ( 22119 PWs)   bands (ev):

   -23.6162  -7.2246  -7.0203  -7.0193  -6.9132  -6.6981  -0.1884   0.6653

     the Fermi energy is    -6.8838 ev

!    total energy              =     -31.50899459 Ry
     Harris-Foulkes estimate   =     -31.50899464 Ry
     estimated scf accuracy    <          3.7E-09 Ry

     convergence has been achieved in  36 iterations

     Forces acting on atoms (Ry/au):

     atom    1 type  1   force =    -0.00047868    0.00008847   -0.00004037
     atom    2 type  1   force =     0.00754529   -0.01437256    0.01750182
     atom    3 type  2   force =    -0.00706660    0.01428409   -0.01746145

     Total force =     0.033600     Total SCF correction =     0.000057

     Entering Dynamics:    iteration =     4
                           time      =   0.0194 pico-seconds


     Andersen thermostat:    3 collisions

ATOMIC_POSITIONS (bohr)
H        7.903833750  10.619040110   8.422914710
H       19.257117607  16.969952814  14.527499547
O        1.536865128  13.625573000  18.859494631


     kinetic energy (Ekin) =     0.02349125 Ry
     temperature           =  1236.32377772 K 
     Ekin + Etot (const)   =   -31.48550334 Ry
     Message from routine dynamics:
     Total linear momentum <> 0

     Linear momentum :    0.2909150498    0.0108383685    0.2687691670

     Writing output data file pwscf.save

     second order wave-functions extrapolation
     Check: negative starting charge=   -0.342731
     second order charge density extrapolation
     Check: negative starting charge=   -0.342829

     negative rho (up, down):  7.798E-02 0.000E+00

     total cpu time spent up to now is        5.8 secs

     per-process dynamical memory:    20.4 Mb

     Self-consistent Calculation

     iteration #  1     ecut=    30.00 Ry     beta=0.70
     Davidson diagonalization with overlap
     ethr =  1.00E-06,  avg # of iterations = 12.0

     negative rho (up, down):  1.293E-02 0.000E+00

     total cpu time spent up to now is        5.9 secs

     total energy              =      -1.08081509 Ry
     Harris-Foulkes estimate   =    -147.44914512 Ry
     estimated scf accuracy    <       5.09800878 Ry

     iteration #  2     ecut=    30.00 Ry     beta=0.70
     Davidson diagonalization with overlap
     ethr =  1.00E-02,  avg # of iterations =  3.0

     negative rho (up, down):  8.636E-03 0.000E+00

     total cpu time spent up to now is        5.9 secs

     total energy              =     -31.39832089 Ry
     Harris-Foulkes estimate   =     -34.81920384 Ry
     estimated scf accuracy    <       7.26104393 Ry

     iteration #  3     ecut=    30.00 Ry     beta=0.70
     Davidson diagonalization with overlap
     ethr =  1.00E-02,  avg # of iterations =  2.0

     negative rho (up, down):  5.912E-05 0.000E+00

     total cpu time spent up to now is        6.0 secs

     total energy              =     -31.81290037 Ry
     Harris-Foulkes estimate   =     -33.32602252 Ry
     estimated scf accuracy    <       5.31184929 Ry

     iteration #  4     ecut=    30.00 Ry     beta=0.70
     Davidson diagonalization with overlap
     ethr =  1.00E-02,  avg # of iterations =  3.0

     negative rho (up, down):  2.548E-05 0.000E+00

     total cpu time spent up to now is        6.0 secs

     total energy              =     -32.41007847 Ry
     Harris-Foulkes estimate   =     -32.28109066 Ry
     estimated scf accuracy    <       2.14128580 Ry

     iteration #  5     ecut=    30.00 Ry     beta=0.70
     Davidson diagonalization with overlap
     ethr =  1.00E-02,  avg # of iterations =  1.0

     negative rho (up, down):  3.882E-04 0.000E+00

     total cpu time spent up to now is        6.0 secs

     total energy              =     -31.88409218 Ry
     Harris-Foulkes estimate   =     -32.41110748 Ry
     estimated scf accuracy    <       2.33722422 Ry

     iteration #  6     ecut=    30.00 Ry     beta=0.70
     Davidson diagonalization with overlap
     ethr =  1.00E-02,  avg # of iterations =  1.0

     negative rho (up, down):  3.839E-02 0.000E+00

     total cpu time spent up to now is        6.1 secs

     total energy              =     -31.41610511 Ry
     Harris-Foulkes estimate   =     -31.92794700 Ry
     estimated scf accuracy    <       2.20618927 Ry

     iteration #  7     ecut=    30.00 Ry     beta=0.70
     Davidson diagonalization with overlap
     ethr =  1.00E-02,  avg # of iterations =  2.0

     negative rho (up, down):  2.065E-03 0.000E+00

     total cpu time spent up to now is        6.1 secs

     total energy              =     -31.30160118 Ry
     Harris-Foulkes estimate   =     -32.07646753 Ry
     estimated scf accuracy    <       1.92515338 Ry

     iteration #  8     ecut=    30.00 Ry     beta=0.70
     Davidson diagonalization with overlap
     ethr =  1.00E-02,  avg # of iterations =  1.0

     negative rho (up, down):  1.641E-03 0.000E+00

     total cpu time spent up to now is        6.1 secs

     total energy              =     -31.72686558 Ry
     Harris-Foulkes estimate   =     -31.74309303 Ry
     estimated scf accuracy    <       2.25168851 Ry

     iteration #  9     ecut=    30.00 Ry     beta=0.70
     Davidson diagonalization with overlap
     ethr =  1.00E-02,  avg # of iterations =  1.0

     negative rho (up, down):  4.386E-04 0.000E+00

     total cpu time spent up to now is        6.2 secs

     total energy              =     -31.50719031 Ry
     Harris-Foulkes estimate   =     -31.72856264 Ry
     estimated scf accuracy    <       1.71998322 Ry

     iteration # 10     ecut=    30.00 Ry     beta=0.70
     Davidson diagonalization with overlap
     ethr =  1.00E-02,  avg # of iterations =  1.0

     negative rho (up, down):  1.803E-06 0.000E+00

     total cpu time spent up to now is        6.2 secs

     total energy              =     -31.56552112 Ry
     Harris-Foulkes estimate   =     -31.56983482 Ry
     estimated scf accuracy    <       1.31089470 Ry

     iteration # 11     ecut=    30.00 Ry     beta=0.70
     Davidson diagonalization with overlap
     ethr =  1.00E-02,  avg # of iterations =  2.0

     total cpu time spent up to now is        6.2 secs

     total energy              =     -31.86540269 Ry
     Harris-Foulkes estimate   =     -31.99038941 Ry
     estimated scf accuracy    <       4.17483481 Ry

     iteration # 12     ecut=    30.00 Ry     beta=0.70
     Davidson diagonalization with overlap
     ethr =  1.00E-02,  avg # of iterations =  1.0

     negative rho (up, down):  1.318E-06 0.000E+00

     total cpu time spent up to now is        6.3 secs

     total energy              =     -31.64978082 Ry
     Harris-Foulkes estimate   =     -31.87642462 Ry
     estimated scf accuracy    <       3.83015842 Ry

     iteration # 13     ecut=    30.00 Ry     beta=0.70
     Davidson diagonalization with overlap
     ethr =  1.00E-02,  avg # of iterations =  1.0

     negative rho (up, down):  2.158E-03 0.000E+00

     total cpu time spent up to now is        6.3 secs

     total energy              =     -31.59122672 Ry
     Harris-Foulkes estimate   =     -31.66354895 Ry
     estimated scf accuracy    <       2.12507603 Ry

     iteration # 14     ecut=    30.00 Ry     beta=0.70
     Davidson diagonalization with overlap
     ethr =  1.00E-02,  avg # of iterations =  1.0

     negative rho (up, down):  2.133E-03 0.000E+00

     total cpu time spent up to now is        6.3 secs

     total energy              =     -31.58103809 Ry
     Harris-Foulkes estimate   =     -31.64036417 Ry
     estimated scf accuracy    <       1.12255690 Ry

     iteration # 15     ecut=    30.00 Ry     beta=0.70
     Davidson diagonalization with overlap
     ethr =  1.00E-02,  avg # of iterations =  1.0

     negative rho (up, down):  2.518E-03 0.000E+00

     total cpu time spent up to now is        6.4 secs

     total energy              =     -31.56167685 Ry
     Harris-Foulkes estimate   =     -31.58961520 Ry
     estimated scf accuracy    <       1.15702427 Ry

     iteration # 16     ecut=    30.00 Ry     beta=0.70
     Davidson diagonalization with overlap
     ethr =  1.00E-02,  avg # of iterations =  1.0

     negative rho (up, down):  2.141E-03 0.000E+00

     total cpu time spent up to now is        6.4 secs

     total energy              =     -31.53280843 Ry
     Harris-Foulkes estimate   =     -31.56186296 Ry
     estimated scf accuracy    <       1.20255960 Ry

     iteration # 17     ecut=    30.00 Ry     beta=0.70
     Davidson diagonalization with overlap
     ethr =  1.00E-02,  avg # of iterations =  1.0

     negative rho (up, down):  5.366E-03 0.000E+00

     total cpu time spent up to now is        6.4 secs

     total energy              =     -31.56011689 Ry
     Harris-Foulkes estimate   =     -31.53314017 Ry
     estimated scf accuracy    <       1.25461866 Ry

     iteration # 18     ecut=    30.00 Ry     beta=0.70
     Davidson diagonalization with overlap
     ethr =  1.00E-02,  avg # of iterations =  1.0

     negative rho (up, down):  4.124E-02 0.000E+00

     total cpu time spent up to now is        6.5 secs

     total energy              =     -31.63242878 Ry
     Harris-Foulkes estimate   =     -31.56255381 Ry
     estimated scf accuracy    <       1.20491320 Ry

     iteration # 19     ecut=    30.00 Ry     beta=0.70
     Davidson diagonalization with overlap
     ethr =  1.00E-02,  avg # of iterations =  1.0

     negative rho (up, down):  4.591E-02 0.000E+00

     total cpu time spent up to now is        6.5 secs

     total energy              =     -31.84623601 Ry
     Harris-Foulkes estimate   =     -32.00588002 Ry
     estimated scf accuracy    <       4.18986572 Ry

     iteration # 20     ecut=    30.00 Ry     beta=0.70
     Davidson diagonalization with overlap
     ethr =  1.00E-02,  avg # of iterations =  1.0

     negative rho (up, down):  1.521E-02 0.000E+00

     total cpu time spent up to now is        6.5 secs

     total energy              =     -31.49648591 Ry
     Harris-Foulkes estimate   =     -31.85062495 Ry
     estimated scf accuracy    <       2.71666826 Ry

     iteration # 21     ecut=    30.00 Ry     beta=0.70
     Davidson diagonalization with overlap
     ethr =  1.00E-02,  avg # of iterations =  1.0

     negative rho (up, down):  2.289E-03 0.000E+00

     total cpu time spent up to now is        6.6 secs

     total energy              =     -31.52506499 Ry
     Harris-Foulkes estimate   =     -31.65637539 Ry
     estimated scf accuracy    <       1.17669060 Ry

     iteration # 22     ecut=    30.00 Ry     beta=0.70
     Davidson diagonalization with overlap
     ethr =  1.00E-02,  avg # of iterations =  1.0

     negative rho (up, down):  1.062E-03 0.000E+00

     total cpu time spent up to now is        6.6 secs

     total energy              =     -31.52753967 Ry
     Harris-Foulkes estimate   =     -31.53861739 Ry
     estimated scf accuracy    <       0.68368683 Ry

     iteration # 23     ecut=    30.00 Ry     beta=0.70
     Davidson diagonalization with overlap
     ethr =  8.55E-03,  avg # of iterations =  1.0

     negative rho (up, down):  1.279E-03 0.000E+00

     total cpu time spent up to now is        6.6 secs

     total energy              =     -31.51694671 Ry
     Harris-Foulkes estimate   =     -31.52906813 Ry
     estimated scf accuracy    <       0.70408698 Ry

     iteration # 24     ecut=    30.00 Ry     beta=0.70
     Davidson diagonalization with overlap
     ethr =  8.55E-03,  avg # of iterations =  1.0

     negative rho (up, down):  1.219E-04 0.000E+00

     total cpu time spent up to now is        6.7 secs

     total energy              =     -31.49237539 Ry
     Harris-Foulkes estimate   =     -31.52202100 Ry
     estimated scf accuracy    <       0.34454587 Ry

     iteration # 25     ecut=    30.00 Ry     beta=0.70
     Davidson diagonalization with overlap
     ethr =  4.31E-03,  avg # of iterations =  1.0

     total cpu time spent up to now is        6.7 secs

     total energy              =     -31.52521041 Ry
     Harris-Foulkes estimate   =     -31.51937888 Ry
     estimated scf accuracy    <       0.45462425 Ry

     iteration # 26     ecut=    30.00 Ry     beta=0.70
     Davidson diagonalization with overlap
     ethr =  4.31E-03,  avg # of iterations =  1.0

     total cpu time spent up to now is        6.7 secs

     total energy              =     -31.51596933 Ry
     Harris-Foulkes estimate   =     -31.52653556 Ry
     estimated scf accuracy    <       0.94144231 Ry

     iteration # 27     ecut=    30.00 Ry     beta=0.70
     Davidson diagonalization with overlap
     ethr =  4.31E-03,  avg # of iterations =  1.0

     total cpu time spent up to now is        6.8 secs

     total energy              =     -31.51585836 Ry
     Harris-Foulkes estimate   =     -31.51778145 Ry
     estimated scf accuracy    <       0.41710871 Ry

     iteration # 28     ecut=    30.00 Ry     beta=0.70
     Davidson diagonalization with overlap
     ethr =  4.31E-03,  avg # of iterations =  1.0

     negative rho (up, down):  6.580E-06 0.000E+00

     total cpu time spent up to now is        6.8 secs

     total energy              =     -31.50445558 Ry
     Harris-Foulkes estimate   =     -31.51604696 Ry
     estimated scf accuracy    <       0.29060830 Ry

     iteration # 29     ecut=    30.00 Ry     beta=0.70
     Davidson diagonalization with overlap
     ethr =  3.63E-03,  avg # of iterations =  1.0

     negative rho (up, down):  7.024E-08 0.000E+00

     total cpu time spent up to now is        6.8 secs

     total energy              =     -31.51341763 Ry
     Harris-Foulkes estimate   =     -31.51464264 Ry
     estimated scf accuracy    <       0.10958888 Ry

     iteration # 30     ecut=    30.00 Ry     beta=0.70
     Davidson diagonalization with overlap
     ethr =  1.37E-03,  avg # of iterations =  1.0

     total cpu time spent up to now is        6.9 secs

     total energy              =     -31.51168041 Ry
     Harris-Foulkes estimate   =     -31.51365345 Ry
     estimated scf accuracy    <       0.06939216 Ry

     iteration # 31     ecut=    30.00 Ry     beta=0.70
     Davidson diagonalization with overlap
     ethr =  8.67E-04,  avg # of iterations =  1.0

     total cpu time spent up to now is        6.9 secs

     total energy              =     -31.51264332 Ry
     Harris-Foulkes estimate   =     -31.51264255 Ry
     estimated scf accuracy    <       0.00001274 Ry

     iteration # 32     ecut=    30.00 Ry     beta=0.70
     Davidson diagonalization with overlap
     ethr =  1.59E-07,  avg # of iterations = 15.0

     total cpu time spent up to now is        7.0 secs

     total energy              =     -31.51263431 Ry
     Harris-Foulkes estimate   =     -31.51265425 Ry
     estimated scf accuracy    <       0.00090272 Ry

     iteration # 33     ecut=    30.00 Ry     beta=0.70
     Davidson diagonalization with overlap
     ethr =  1.59E-07,  avg # of iterations =  1.0

     total cpu time spent up to now is        7.0 secs

     total energy              =     -31.51264468 Ry
     Harris-Foulkes estimate   =     -31.51264296 Ry
     estimated scf accuracy    <       0.00001785 Ry

     iteration # 34     ecut=    30.00 Ry     beta=0.70
     Davidson diagonalization with overlap
     ethr =  1.59E-07,  avg # of iterations =  1.0

     total cpu time spent up to now is        7.0 secs

     total energy              =     -31.51264257 Ry
     Harris-Foulkes estimate   =     -31.51264628 Ry
     estimated scf accuracy    <       0.00021223 Ry

     iteration # 35     ecut=    30.00 Ry     beta=0.70
     Davidson diagonalization with overlap
     ethr =  1.59E-07,  avg # of iterations =  1.0

     total cpu time spent up to now is        7.1 secs

     total energy              =     -31.51264383 Ry
     Harris-Foulkes estimate   =     -31.51264408 Ry
     estimated scf accuracy    <       0.00001251 Ry

     iteration # 36     ecut=    30.00 Ry     beta=0.70
     Davidson diagonalization with overlap
     ethr =  1.56E-07,  avg # of iterations =  1.0

     total cpu time spent up to now is        7.1 secs

     total energy              =     -31.51264410 Ry
     Harris-Foulkes estimate   =     -31.51264409 Ry
     estimated scf accuracy    <       0.00000070 Ry

     iteration # 37     ecut=    30.00 Ry     beta=0.70
     Davidson diagonalization with overlap
     ethr =  8.74E-09,  avg # of iterations =  1.0

     total cpu time spent up to now is        7.1 secs

     End of self-consistent calculation

          k = 0.0000 0.0000 0.0000 ( 22119 PWs)   bands (ev):

   -23.6208  -7.2552  -7.0223  -7.0214  -6.9149  -6.6717  -0.1849   0.6641

     the Fermi energy is    -6.8854 ev

!    total energy              =     -31.51264418 Ry
     Harris-Foulkes estimate   =     -31.51264410 Ry
     estimated scf accuracy    <          2.7E-09 Ry

     convergence has been achieved in  37 iterations

     Forces acting on atoms (Ry/au):

     atom    1 type  1   force =     0.00006740   -0.00008999    0.00017936
     atom    2 type  1   force =     0.01174382   -0.01718114    0.02249496
     atom    3 type  2   force =    -0.01181123    0.01727113   -0.02267432

     Total force =     0.043487     Total SCF correction =     0.000019

     Entering Dynamics:    iteration =     5
                           time      =   0.0242 pico-seconds


     Andersen thermostat:    3 collisions

ATOMIC_POSITIONS (bohr)
H        7.975175791  10.634620108   8.729540371
H       19.286949476  16.229093352  14.786992962
O        1.530478525  13.671356267  18.823758365


     kinetic energy (Ekin) =     0.02991440 Ry
     temperature           =  1574.36841598 K 
     Ekin + Etot (const)   =   -31.48272977 Ry
     Message from routine dynamics:
     Total linear momentum <> 0

     Linear momentum :    0.1103506215   -0.4343805400    0.2824034210

     Writing output data file pwscf.save

     second order wave-functions extrapolation
     Check: negative starting charge=   -0.342829
     second order charge density extrapolation
     Check: negative starting charge=   -0.343642

     negative rho (up, down):  8.057E-02 0.000E+00

     total cpu time spent up to now is        7.5 secs

     per-process dynamical memory:    20.4 Mb

     Self-consistent Calculation

     iteration #  1     ecut=    30.00 Ry     beta=0.70
     Davidson diagonalization with overlap
     ethr =  1.00E-06,  avg # of iterations = 10.0

     negative rho (up, down):  1.345E-02 0.000E+00

     total cpu time spent up to now is        7.5 secs

     total energy              =      -0.31878789 Ry
     Harris-Foulkes estimate   =    -115.39914279 Ry
     estimated scf accuracy    <       5.71728965 Ry

     iteration #  2     ecut=    30.00 Ry     beta=0.70
     Davidson diagonalization with overlap
     ethr =  1.00E-02,  avg # of iterations =  3.0

     negative rho (up, down):  8.845E-03 0.000E+00

     total cpu time spent up to now is        7.6 secs

     total energy              =     -31.36448904 Ry
     Harris-Foulkes estimate   =     -34.89128377 Ry
     estimated scf accuracy    <       7.31832470 Ry

     iteration #  3     ecut=    30.00 Ry     beta=0.70
     Davidson diagonalization with overlap
     ethr =  1.00E-02,  avg # of iterations =  3.0

     negative rho (up, down):  8.072E-05 0.000E+00

     total cpu time spent up to now is        7.6 secs

     total energy              =     -31.56861440 Ry
     Harris-Foulkes estimate   =     -33.45750888 Ry
     estimated scf accuracy    <       6.83023546 Ry

     iteration #  4     ecut=    30.00 Ry     beta=0.70
     Davidson diagonalization with overlap
     ethr =  1.00E-02,  avg # of iterations =  2.0

     negative rho (up, down):  3.573E-05 0.000E+00

     total cpu time spent up to now is        7.6 secs

     total energy              =     -32.59544343 Ry
     Harris-Foulkes estimate   =     -32.38569969 Ry
     estimated scf accuracy    <       2.26693724 Ry

     iteration #  5     ecut=    30.00 Ry     beta=0.70
     Davidson diagonalization with overlap
     ethr =  1.00E-02,  avg # of iterations =  1.0

     negative rho (up, down):  1.984E-04 0.000E+00

     total cpu time spent up to now is        7.7 secs

     total energy              =     -31.98829285 Ry
     Harris-Foulkes estimate   =     -32.59702421 Ry
     estimated scf accuracy    <       2.57701419 Ry

     iteration #  6     ecut=    30.00 Ry     beta=0.70
     Davidson diagonalization with overlap
     ethr =  1.00E-02,  avg # of iterations =  1.0

     negative rho (up, down):  3.789E-05 0.000E+00

     total cpu time spent up to now is        7.7 secs

     total energy              =     -31.76803101 Ry
     Harris-Foulkes estimate   =     -32.03237399 Ry
     estimated scf accuracy    <       2.29983483 Ry

     iteration #  7     ecut=    30.00 Ry     beta=0.70
     Davidson diagonalization with overlap
     ethr =  1.00E-02,  avg # of iterations =  1.0

     negative rho (up, down):  8.135E-07 0.000E+00

[...]
     Harris-Foulkes estimate   =   -4888.25308804 Ry
     estimated scf accuracy    <      33.59048005 Ry

     iteration # 59     ecut=    30.00 Ry     beta=0.70
     Davidson diagonalization with overlap
     ethr =  9.95E-03,  avg # of iterations =  8.0

     negative rho (up, down):  1.742E+00 0.000E+00

     total cpu time spent up to now is       10.5 secs

     total energy              =      61.41852958 Ry
     Harris-Foulkes estimate   =   -1067.27541977 Ry
     estimated scf accuracy    <      26.54881465 Ry

     iteration # 60     ecut=    30.00 Ry     beta=0.70
     Davidson diagonalization with overlap
     ethr =  9.95E-03,  avg # of iterations = 10.0

     negative rho (up, down):  1.365E+00 0.000E+00

     total cpu time spent up to now is       10.5 secs

     total energy              =    -256.27480126 Ry
     Harris-Foulkes estimate   =   -1862.14926052 Ry
     estimated scf accuracy    <      24.85430479 Ry

     iteration # 61     ecut=    30.00 Ry     beta=0.70
     Davidson diagonalization with overlap
     ethr =  9.95E-03,  avg # of iterations =  7.0

     negative rho (up, down):  4.236E-01 0.000E+00

     total cpu time spent up to now is       10.6 secs

     total energy              =   -1582.49282315 Ry
     Harris-Foulkes estimate   =   -8161.85496369 Ry
     estimated scf accuracy    <      22.32169611 Ry

     iteration # 62     ecut=    30.00 Ry     beta=0.70
     Davidson diagonalization with overlap
     ethr =  9.95E-03,  avg # of iterations = 11.0

     negative rho (up, down):  7.973E-01 0.000E+00

     total cpu time spent up to now is       10.7 secs

     total energy              =   -3977.12840017 Ry
     Harris-Foulkes estimate   =  -13845.00677447 Ry
     estimated scf accuracy    <      37.55376977 Ry

     iteration # 63     ecut=    30.00 Ry     beta=0.70
     Davidson diagonalization with overlap
     ethr =  9.95E-03,  avg # of iterations =  7.0

     negative rho (up, down):  7.418E-01 0.000E+00

     total cpu time spent up to now is       10.7 secs

     total energy              =     125.80801927 Ry
     Harris-Foulkes estimate   =  -17493.32283190 Ry
     estimated scf accuracy    <      19.49744963 Ry

     iteration # 64     ecut=    30.00 Ry     beta=0.70
     Davidson diagonalization with overlap
     ethr =  9.95E-03,  avg # of iterations = 10.0

     negative rho (up, down):  3.315E-01 0.000E+00

     total cpu time spent up to now is       10.8 secs

     total energy              =     -12.51679906 Ry
     Harris-Foulkes estimate   =    -113.69319899 Ry
     estimated scf accuracy    <      33.02126845 Ry

     iteration # 65     ecut=    30.00 Ry     beta=0.70
     Davidson diagonalization with overlap
     ethr =  9.95E-03,  avg # of iterations =  8.0

     negative rho (up, down):  2.213E-01 0.000E+00

     total cpu time spent up to now is       10.8 secs

     total energy              =    2855.34003218 Ry
     Harris-Foulkes estimate   =   -4915.51447452 Ry
     estimated scf accuracy    <      41.73276729 Ry

     iteration # 66     ecut=    30.00 Ry     beta=0.70
     Davidson diagonalization with overlap
     ethr =  9.95E-03,  avg # of iterations =  7.0

     negative rho (up, down):  2.499E-01 0.000E+00

     total cpu time spent up to now is       10.9 secs

     total energy              =      69.61813447 Ry
     Harris-Foulkes estimate   =   -1349.85563115 Ry
     estimated scf accuracy    <      31.06505353 Ry

     iteration # 67     ecut=    30.00 Ry     beta=0.70
     Davidson diagonalization with overlap
     ethr =  9.95E-03,  avg # of iterations =  5.0

     negative rho (up, down):  3.459E-01 0.000E+00

     total cpu time spent up to now is       10.9 secs

     total energy              =      51.56204919 Ry
     Harris-Foulkes estimate   =    -964.44379654 Ry
     estimated scf accuracy    <      33.15287848 Ry

     iteration # 68     ecut=    30.00 Ry     beta=0.70
     Davidson diagonalization with overlap
     ethr =  9.95E-03,  avg # of iterations =  6.0

     negative rho (up, down):  5.621E-01 0.000E+00

     total cpu time spent up to now is       11.0 secs

     total energy              =   -1065.41423983 Ry
     Harris-Foulkes estimate   =   -3015.19331249 Ry
     estimated scf accuracy    <      34.55464659 Ry

     iteration # 69     ecut=    30.00 Ry     beta=0.70
     Davidson diagonalization with overlap
     ethr =  9.95E-03,  avg # of iterations =  6.0

     negative rho (up, down):  8.076E-01 0.000E+00

     total cpu time spent up to now is       11.0 secs

     total energy              =    -342.26366630 Ry
     Harris-Foulkes estimate   =   -3619.96186127 Ry
     estimated scf accuracy    <      25.72760642 Ry

     iteration # 70     ecut=    30.00 Ry     beta=0.70
     Davidson diagonalization with overlap
     ethr =  9.95E-03,  avg # of iterations = 10.0

     negative rho (up, down):  1.066E+00 0.000E+00

     total cpu time spent up to now is       11.1 secs

     total energy              =     -84.96953118 Ry
     Harris-Foulkes estimate   =   -1319.15975502 Ry
     estimated scf accuracy    <      39.87526138 Ry

     iteration # 71     ecut=    30.00 Ry     beta=0.70
     Davidson diagonalization with overlap
     ethr =  9.95E-03,  avg # of iterations =  4.0

     negative rho (up, down):  1.367E+00 0.000E+00

     total cpu time spent up to now is       11.2 secs

     total energy              =    -542.34281851 Ry
     Harris-Foulkes estimate   =   -1588.15767771 Ry
     estimated scf accuracy    <      37.64098312 Ry

     iteration # 72     ecut=    30.00 Ry     beta=0.70
     Davidson diagonalization with overlap
     ethr =  9.95E-03,  avg # of iterations = 10.0

     negative rho (up, down):  1.521E+00 0.000E+00

     total cpu time spent up to now is       11.2 secs

     total energy              =    -761.04046701 Ry
     Harris-Foulkes estimate   =  -64102.28862100 Ry
     estimated scf accuracy    <      34.83999355 Ry

     iteration # 73     ecut=    30.00 Ry     beta=0.70
     Davidson diagonalization with overlap
     ethr =  9.95E-03,  avg # of iterations =  8.0

     negative rho (up, down):  1.680E+00 0.000E+00

     total cpu time spent up to now is       11.3 secs

     total energy              =     106.86386862 Ry
     Harris-Foulkes estimate   =   -3912.65255102 Ry
     estimated scf accuracy    <      30.78804350 Ry

     iteration # 74     ecut=    30.00 Ry     beta=0.70
     Davidson diagonalization with overlap
     ethr =  9.95E-03,  avg # of iterations =  7.0

     negative rho (up, down):  1.357E-01 0.000E+00

     total cpu time spent up to now is       11.3 secs

     total energy              =      87.78703848 Ry
     Harris-Foulkes estimate   =    -975.79991904 Ry
     estimated scf accuracy    <      26.28696642 Ry

     iteration # 75     ecut=    30.00 Ry     beta=0.70
     Davidson diagonalization with overlap
     ethr =  9.95E-03,  avg # of iterations = 10.0

     negative rho (up, down):  2.579E-01 0.000E+00

     total cpu time spent up to now is       11.4 secs

     total energy              =     132.11960730 Ry
     Harris-Foulkes estimate   =   -1425.41531719 Ry
     estimated scf accuracy    <      30.99924952 Ry

     iteration # 76     ecut=    30.00 Ry     beta=0.70
     Davidson diagonalization with overlap
     ethr =  9.95E-03,  avg # of iterations =  9.0

     negative rho (up, down):  2.362E-01 0.000E+00

     total cpu time spent up to now is       11.5 secs

     total energy              =     113.75214794 Ry
     Harris-Foulkes estimate   =    -576.07155058 Ry
     estimated scf accuracy    <      29.72231162 Ry

     iteration # 77     ecut=    30.00 Ry     beta=0.70
     Davidson diagonalization with overlap
     ethr =  9.95E-03,  avg # of iterations =  6.0

     negative rho (up, down):  3.198E-01 0.000E+00

     total cpu time spent up to now is       11.5 secs

     total energy              =     -83.56235625 Ry
     Harris-Foulkes estimate   =    -792.84886400 Ry
     estimated scf accuracy    <      27.58239784 Ry

     iteration # 78     ecut=    30.00 Ry     beta=0.70
     Davidson diagonalization with overlap
     ethr =  9.95E-03,  avg # of iterations =  6.0

     negative rho (up, down):  3.356E-01 0.000E+00

     total cpu time spent up to now is       11.6 secs

     total energy              =      26.26889203 Ry
     Harris-Foulkes estimate   =   -1541.51371326 Ry
     estimated scf accuracy    <      22.21190671 Ry

     iteration # 79     ecut=    30.00 Ry     beta=0.70
     Davidson diagonalization with overlap
     ethr =  9.95E-03,  avg # of iterations =  8.0

     negative rho (up, down):  3.442E-02 0.000E+00

     total cpu time spent up to now is       11.6 secs

     total energy              =     149.50175995 Ry
     Harris-Foulkes estimate   =    -858.35930269 Ry
     estimated scf accuracy    <      21.00552615 Ry

     iteration # 80     ecut=    30.00 Ry     beta=0.70
     Davidson diagonalization with overlap
     ethr =  9.95E-03,  avg # of iterations = 10.0

     negative rho (up, down):  1.392E-02 0.000E+00

     total cpu time spent up to now is       11.7 secs

     total energy              =     -42.01259566 Ry
     Harris-Foulkes estimate   =    -113.67881762 Ry
     estimated scf accuracy    <      49.32496224 Ry

     iteration # 81     ecut=    30.00 Ry     beta=0.70
     Davidson diagonalization with overlap
     ethr =  9.95E-03,  avg # of iterations =  8.0

     negative rho (up, down):  9.250E-03 0.000E+00

     total cpu time spent up to now is       11.7 secs

     total energy              =     -19.36645998 Ry
     Harris-Foulkes estimate   =   -1271.00376887 Ry
     estimated scf accuracy    <      36.63459566 Ry

     iteration # 82     ecut=    30.00 Ry     beta=0.70
     Davidson diagonalization with overlap
     ethr =  9.95E-03,  avg # of iterations =  7.0

     negative rho (up, down):  9.578E-03 0.000E+00

     total cpu time spent up to now is       11.8 secs

     total energy              =     -27.96186146 Ry
     Harris-Foulkes estimate   =     -90.24200772 Ry
     estimated scf accuracy    <      33.99977062 Ry

     iteration # 83     ecut=    30.00 Ry     beta=0.70
     Davidson diagonalization with overlap
     ethr =  9.95E-03,  avg # of iterations =  6.0

     negative rho (up, down):  8.735E-02 0.000E+00

     total cpu time spent up to now is       11.8 secs

     total energy              =     -27.47556542 Ry
     Harris-Foulkes estimate   =    -126.94863463 Ry
     estimated scf accuracy    <      41.64075995 Ry

     iteration # 84     ecut=    30.00 Ry     beta=0.70
     Davidson diagonalization with overlap
     ethr =  9.95E-03,  avg # of iterations =  4.0

     negative rho (up, down):  3.991E-01 0.000E+00

     total cpu time spent up to now is       11.9 secs

     total energy              =     -48.10572585 Ry
     Harris-Foulkes estimate   =    -228.99008212 Ry
     estimated scf accuracy    <      35.07361099 Ry

     iteration # 85     ecut=    30.00 Ry     beta=0.70
     Davidson diagonalization with overlap
     ethr =  9.95E-03,  avg # of iterations =  9.0

     negative rho (up, down):  4.559E-01 0.000E+00

     total cpu time spent up to now is       11.9 secs

     total energy              =     -51.84630841 Ry
     Harris-Foulkes estimate   =   -1342.54894575 Ry
     estimated scf accuracy    <      25.30986384 Ry

     iteration # 86     ecut=    30.00 Ry     beta=0.70
     Davidson diagonalization with overlap
     ethr =  9.95E-03,  avg # of iterations =  9.0

     negative rho (up, down):  3.695E-01 0.000E+00

     total cpu time spent up to now is       12.0 secs

     total energy              =    -175.08947800 Ry
     Harris-Foulkes estimate   =   -2306.20225440 Ry
     estimated scf accuracy    <      32.87715168 Ry

     iteration # 87     ecut=    30.00 Ry     beta=0.70
     Davidson diagonalization with overlap
     ethr =  9.95E-03,  avg # of iterations =  8.0

     negative rho (up, down):  3.768E-01 0.000E+00

     total cpu time spent up to now is       12.0 secs

     total energy              =     105.13583600 Ry
     Harris-Foulkes estimate   =   -2064.24427302 Ry
     estimated scf accuracy    <      24.23735734 Ry

     iteration # 88     ecut=    30.00 Ry     beta=0.70
     Davidson diagonalization with overlap
     ethr =  9.95E-03,  avg # of iterations =  8.0

     negative rho (up, down):  5.186E-01 0.000E+00

     total cpu time spent up to now is       12.1 secs

     total energy              =      36.47373469 Ry
     Harris-Foulkes estimate   =    -400.13172528 Ry
     estimated scf accuracy    <      26.89856605 Ry

     iteration # 89     ecut=    30.00 Ry     beta=0.70
     Davidson diagonalization with overlap
     ethr =  9.95E-03,  avg # of iterations = 13.0

     negative rho (up, down):  6.987E-02 0.000E+00

     total cpu time spent up to now is       12.1 secs

     total energy              =      45.89497866 Ry
     Harris-Foulkes estimate   =    -194.36009183 Ry
     estimated scf accuracy    <      15.03454167 Ry

     iteration # 90     ecut=    30.00 Ry     beta=0.70
     Davidson diagonalization with overlap
     ethr =  9.95E-03,  avg # of iterations =  4.0

     negative rho (up, down):  2.668E-01 0.000E+00

     total cpu time spent up to now is       12.2 secs

     total energy              =   -6364.62321495 Ry
     Harris-Foulkes estimate   =    -916.39496391 Ry
     estimated scf accuracy    <      20.32266269 Ry

     iteration # 91     ecut=    30.00 Ry     beta=0.70
     Davidson diagonalization with overlap
     ethr =  9.95E-03,  avg # of iterations =  6.0

     negative rho (up, down):  5.865E-02 0.000E+00

     total cpu time spent up to now is       12.2 secs

     total energy              =   -4257.66145189 Ry
     Harris-Foulkes estimate   =  -10290.67505440 Ry
     estimated scf accuracy    <      17.24793613 Ry

     iteration # 92     ecut=    30.00 Ry     beta=0.70
     Davidson diagonalization with overlap
     ethr =  9.95E-03,  avg # of iterations =  5.0

     negative rho (up, down):  7.385E-03 0.000E+00

     total cpu time spent up to now is       12.3 secs

     total energy              =     136.01292432 Ry
     Harris-Foulkes estimate   =  -20375.09981391 Ry
     estimated scf accuracy    <      23.34392986 Ry

     iteration # 93     ecut=    30.00 Ry     beta=0.70
     Davidson diagonalization with overlap
     ethr =  9.95E-03,  avg # of iterations =  5.0

     negative rho (up, down):  2.462E-02 0.000E+00

     total cpu time spent up to now is       12.3 secs

     total energy              =     -54.38688450 Ry
     Harris-Foulkes estimate   =     -58.08851863 Ry
     estimated scf accuracy    <      35.75494740 Ry

     iteration # 94     ecut=    30.00 Ry     beta=0.70
     Davidson diagonalization with overlap
     ethr =  9.95E-03,  avg # of iterations =  4.0

     negative rho (up, down):  5.107E-02 0.000E+00

     total cpu time spent up to now is       12.4 secs

     total energy              =      -6.09894327 Ry
     Harris-Foulkes estimate   =    -356.07643264 Ry
     estimated scf accuracy    <      15.23247938 Ry

     iteration # 95     ecut=    30.00 Ry     beta=0.70
     Davidson diagonalization with overlap
     ethr =  9.95E-03,  avg # of iterations =  6.0

     negative rho (up, down):  1.588E-02 0.000E+00

     total cpu time spent up to now is       12.4 secs

     total energy              =      96.40859777 Ry
     Harris-Foulkes estimate   =   -1157.35001066 Ry
     estimated scf accuracy    <      30.33795891 Ry

     iteration # 96     ecut=    30.00 Ry     beta=0.70
     Davidson diagonalization with overlap
     ethr =  9.95E-03,  avg # of iterations =  8.0

     negative rho (up, down):  8.552E-04 0.000E+00

     total cpu time spent up to now is       12.5 secs

     total energy              =     -36.23665253 Ry
     Harris-Foulkes estimate   =     -67.97734380 Ry
     estimated scf accuracy    <      31.03976255 Ry

     iteration # 97     ecut=    30.00 Ry     beta=0.70
     Davidson diagonalization with overlap
     ethr =  9.95E-03,  avg # of iterations =  4.0

     negative rho (up, down):  9.287E-02 0.000E+00

     total cpu time spent up to now is       12.5 secs

     total energy              =     -48.12095729 Ry
     Harris-Foulkes estimate   =     -52.30682438 Ry
     estimated scf accuracy    <      30.06217052 Ry

     iteration # 98     ecut=    30.00 Ry     beta=0.70
     Davidson diagonalization with overlap
     ethr =  9.95E-03,  avg # of iterations =  9.0

     negative rho (up, down):  4.060E-02 0.000E+00

     total cpu time spent up to now is       12.6 secs

     total energy              =   -2562.75712641 Ry
     Harris-Foulkes estimate   =    -209.57371813 Ry
     estimated scf accuracy    <      35.75712411 Ry

     iteration # 99     ecut=    30.00 Ry     beta=0.70
     Davidson diagonalization with overlap
     ethr =  9.95E-03,  avg # of iterations = 10.0

     negative rho (up, down):  2.290E-03 0.000E+00

     total cpu time spent up to now is       12.6 secs

     total energy              =      96.16802551 Ry
     Harris-Foulkes estimate   =   -4068.33897577 Ry
     estimated scf accuracy    <      25.59581163 Ry

     iteration #100     ecut=    30.00 Ry     beta=0.70
     Davidson diagonalization with overlap
     ethr =  9.95E-03,  avg # of iterations = 10.0

     negative rho (up, down):  6.801E-03 0.000E+00

     total cpu time spent up to now is       12.7 secs

     total energy              =     -44.31388782 Ry
     Harris-Foulkes estimate   =     -47.44252265 Ry
     estimated scf accuracy    <      23.77688346 Ry

     End of self-consistent calculation

     convergence NOT achieved after 100 iterations: stopping

     Writing output data file pwscf.save
 
     init_run     :      0.09s CPU      0.11s WALL (       1 calls)
     electrons    :      8.93s CPU     11.18s WALL (       6 calls)
     update_pot   :      0.61s CPU      0.84s WALL (       5 calls)
     forces       :      0.13s CPU      0.13s WALL (       5 calls)

     Called by init_run:
     wfcinit      :      0.01s CPU      0.02s WALL (       1 calls)
     potinit      :      0.03s CPU      0.03s WALL (       1 calls)

     Called by electrons:
     c_bands      :      4.27s CPU      4.48s WALL (     258 calls)
     sum_band     :      0.76s CPU      0.80s WALL (     258 calls)
     v_of_rho     :      1.86s CPU      1.99s WALL (     264 calls)
     mix_rho      :      1.83s CPU      3.18s WALL (     258 calls)

     Called by c_bands:
     init_us_2    :      0.02s CPU      0.03s WALL (     517 calls)
     cegterg      :      4.21s CPU      4.33s WALL (     258 calls)

     Called by sum_band:

     Called by *egterg:
     h_psi        :      3.53s CPU      3.62s WALL (    1247 calls)
     g_psi        :      0.04s CPU      0.04s WALL (     988 calls)
     cdiaghg      :      0.25s CPU      0.26s WALL (    1241 calls)

     Called by h_psi:
     h_psi:pot    :      3.51s CPU      3.60s WALL (    1247 calls)
     h_psi:calbec :      0.04s CPU      0.05s WALL (    1247 calls)
     vloc_psi     :      3.45s CPU      3.53s WALL (    1247 calls)
     add_vuspsi   :      0.01s CPU      0.01s WALL (    1247 calls)

     General routines
     calbec       :      0.07s CPU      0.09s WALL (    1271 calls)
     fft          :      1.17s CPU      1.26s WALL (    2914 calls)
     fftw         :      3.59s CPU      3.69s WALL (   16050 calls)
     davcio       :      0.28s CPU      1.13s WALL (    4639 calls)
 
     Parallel routines
     fft_scatter  :      1.74s CPU      1.84s WALL (   18964 calls)
 
     PWSCF        :     9.98s CPU        12.75s WALL

 
   This run was terminated on:   2:56:44  11Feb2018            

=------------------------------------------------------------------------------=
   JOB DONE.
=------------------------------------------------------------------------------=
