
     Program PWSCF v.6.0 (svn rev. 13079) starts on 11Feb2018 at  2:56:45 

     This program is part of the open-source Quantum ESPRESSO suite
     for quantum simulation of materials; please cite
         "P. Giannozzi et al., J. Phys.:Condens. Matter 21 395502 (2009);
          URL http://www.quantum-espresso.org", 
     in publications or presentations arising from this work. More details at
     http://www.quantum-espresso.org/quote

     Parallel version (MPI), running on    28 processors
     R & G space division:  proc/nbgrp/npool/nimage =      28
     Reading input from inputs/water-1-md/576.in

     Current dimensions of program PWSCF are:
     Max number of different atomic species (ntypx) = 10
     Max number of k-points (npk) =  40000
     Max angular momentum in pseudopotentials (lmaxx) =  3

     Subspace diagonalization in iterative solution of the eigenvalue problem:
     a serial algorithm will be used

 
     Parallelization info
     --------------------
     sticks:   dense  smooth     PW     G-vecs:    dense   smooth      PW
     Min         136     136     33                 6338     6338     787
     Max         137     137     34                 6341     6341     792
     Sum        3809    3809    949               177509   177509   22119
 


     bravais-lattice index     =            1
     lattice parameter (alat)  =      20.0000  a.u.
     unit-cell volume          =    8000.0000 (a.u.)^3
     number of atoms/cell      =            3
     number of atomic types    =            2
     number of electrons       =         8.00
     number of Kohn-Sham states=            8
     kinetic-energy cutoff     =      30.0000  Ry
     charge density cutoff     =     120.0000  Ry
     convergence threshold     =      1.0E-08
     mixing beta               =       0.7000
     number of iterations used =            8  plain     mixing
     Exchange-correlation      = BLYP ( 1  3  1  3 0 0)
     nstep                     =         5000


     celldm(1)=  20.000000  celldm(2)=   0.000000  celldm(3)=   0.000000
     celldm(4)=   0.000000  celldm(5)=   0.000000  celldm(6)=   0.000000

     crystal axes: (cart. coord. in units of alat)
               a(1) = (   1.000000   0.000000   0.000000 )  
               a(2) = (   0.000000   1.000000   0.000000 )  
               a(3) = (   0.000000   0.000000   1.000000 )  

     reciprocal axes: (cart. coord. in units 2 pi/alat)
               b(1) = (  1.000000  0.000000  0.000000 )  
               b(2) = (  0.000000  1.000000  0.000000 )  
               b(3) = (  0.000000  0.000000  1.000000 )  


     PseudoPot. # 1 for  H read from file:
     ./H.blyp-hgh.UPF
     MD5 check sum: c576e69559cde411e611be972c763230
     Pseudo is Norm-conserving, Zval =  1.0
     Generated in analytical, separable form
     Using radial grid of  929 points,  0 beta functions with: 

     PseudoPot. # 2 for  O read from file:
     ./O.blyp-hgh.UPF
     MD5 check sum: d0b7156309aa9befef28faac7bc56342
     Pseudo is Norm-conserving, Zval =  6.0
     Generated in analytical, separable form
     Using radial grid of 1095 points,  1 beta functions with: 
                l(1) =   0

     atomic species   valence    mass     pseudopotential
        H              1.00     1.01000      H( 1.00)
        O              6.00    16.00000      O( 1.00)

     No symmetry found



   Cartesian axes

     site n.     atom                  positions (alat units)
         1           H   tau(   1) = (   0.2968243   0.4777456   0.2517721  )
         2           H   tau(   2) = (   0.8659284   0.8362270   0.5229278  )
         3           O   tau(   3) = (   0.5092175   0.5926087   0.0398601  )

     number of k points=     1  Marzari-Vanderbilt smearing, width (Ry)=  0.0250
                       cart. coord. in units 2pi/alat
        k(    1) = (   0.0000000   0.0000000   0.0000000), wk =   2.0000000

     Dense  grid:   177509 G-vectors     FFT dimensions: (  72,  72,  72)

     Estimated max dynamical RAM per process >       6.09Mb

     Estimated total allocated dynamical RAM >     170.64Mb

     Initial potential from superposition of free atoms
     Check: negative starting charge=   -0.344248

     starting charge    7.99998, renormalised to    8.00000

     negative rho (up, down):  3.442E-01 0.000E+00
     Starting wfc are    6 randomized atomic wfcs +    2 random wfc

     total cpu time spent up to now is        0.2 secs

     per-process dynamical memory:    18.8 Mb

     Self-consistent Calculation

     iteration #  1     ecut=    30.00 Ry     beta=0.70
     Davidson diagonalization with overlap
     ethr =  1.00E-02,  avg # of iterations =  7.0

     negative rho (up, down):  8.396E-02 0.000E+00

     total cpu time spent up to now is        0.3 secs

     total energy              =     -28.35260394 Ry
     Harris-Foulkes estimate   =     -32.06504362 Ry
     estimated scf accuracy    <       4.27769017 Ry

     iteration #  2     ecut=    30.00 Ry     beta=0.70
     Davidson diagonalization with overlap
     ethr =  1.00E-02,  avg # of iterations =  4.0

     negative rho (up, down):  6.163E-02 0.000E+00

     total cpu time spent up to now is        0.3 secs

     total energy              =     -32.50572754 Ry
     Harris-Foulkes estimate   =     -37.47034959 Ry
     estimated scf accuracy    <      12.20033459 Ry

     iteration #  3     ecut=    30.00 Ry     beta=0.70
     Davidson diagonalization with overlap
     ethr =  1.00E-02,  avg # of iterations =  2.0

     negative rho (up, down):  6.406E-02 0.000E+00

     total cpu time spent up to now is        0.3 secs

     total energy              =     -33.08008588 Ry
     Harris-Foulkes estimate   =     -32.83982884 Ry
     estimated scf accuracy    <       4.65032289 Ry

     iteration #  4     ecut=    30.00 Ry     beta=0.70
     Davidson diagonalization with overlap
     ethr =  1.00E-02,  avg # of iterations =  1.0

     negative rho (up, down):  2.514E-02 0.000E+00

     total cpu time spent up to now is        0.4 secs

     total energy              =     -30.24890582 Ry
     Harris-Foulkes estimate   =     -33.08103677 Ry
     estimated scf accuracy    <       5.01485930 Ry

     iteration #  5     ecut=    30.00 Ry     beta=0.70
     Davidson diagonalization with overlap
     ethr =  1.00E-02,  avg # of iterations =  5.0

     negative rho (up, down):  1.977E-02 0.000E+00

     total cpu time spent up to now is        0.4 secs

     total energy              =     -33.16172163 Ry
     Harris-Foulkes estimate   =     -33.25908244 Ry
     estimated scf accuracy    <      13.47559978 Ry

     iteration #  6     ecut=    30.00 Ry     beta=0.70
     Davidson diagonalization with overlap
     ethr =  1.00E-02,  avg # of iterations =  1.0

     negative rho (up, down):  3.075E-02 0.000E+00

     total cpu time spent up to now is        0.4 secs

     total energy              =     -32.27068577 Ry
     Harris-Foulkes estimate   =     -33.16611390 Ry
     estimated scf accuracy    <      12.82289760 Ry

     iteration #  7     ecut=    30.00 Ry     beta=0.70
     Davidson diagonalization with overlap
     ethr =  1.00E-02,  avg # of iterations =  2.0

     negative rho (up, down):  4.121E-05 0.000E+00

     total cpu time spent up to now is        0.5 secs

     total energy              =     -32.54476051 Ry
     Harris-Foulkes estimate   =     -32.54790118 Ry
     estimated scf accuracy    <       5.22828640 Ry

     iteration #  8     ecut=    30.00 Ry     beta=0.70
     Davidson diagonalization with overlap
     ethr =  1.00E-02,  avg # of iterations =  1.0

     negative rho (up, down):  1.821E-02 0.000E+00

     total cpu time spent up to now is        0.5 secs

     total energy              =     -32.24614344 Ry
     Harris-Foulkes estimate   =     -32.54634010 Ry
     estimated scf accuracy    <       5.20590346 Ry

     iteration #  9     ecut=    30.00 Ry     beta=0.70
     Davidson diagonalization with overlap
     ethr =  1.00E-02,  avg # of iterations =  1.0

     negative rho (up, down):  7.503E-02 0.000E+00

     total cpu time spent up to now is        0.5 secs

     total energy              =     -31.42856424 Ry
     Harris-Foulkes estimate   =     -32.24919932 Ry
     estimated scf accuracy    <       4.68635316 Ry

     iteration # 10     ecut=    30.00 Ry     beta=0.70
     Davidson diagonalization with overlap
     ethr =  1.00E-02,  avg # of iterations =  1.0

     negative rho (up, down):  7.027E-02 0.000E+00

     total cpu time spent up to now is        0.6 secs

     total energy              =     -31.48196680 Ry
     Harris-Foulkes estimate   =     -31.49974533 Ry
     estimated scf accuracy    <       0.08683769 Ry

     iteration # 11     ecut=    30.00 Ry     beta=0.70
     Davidson diagonalization with overlap
     ethr =  1.09E-03,  avg # of iterations =  1.0

     negative rho (up, down):  1.216E-01 0.000E+00

     total cpu time spent up to now is        0.6 secs

     total energy              =     -31.32090456 Ry
     Harris-Foulkes estimate   =     -31.55379720 Ry
     estimated scf accuracy    <       3.77800727 Ry

     iteration # 12     ecut=    30.00 Ry     beta=0.70
     Davidson diagonalization with overlap
     ethr =  1.09E-03,  avg # of iterations =  1.0

     negative rho (up, down):  5.083E-02 0.000E+00

     total cpu time spent up to now is        0.6 secs

     total energy              =     -31.29490607 Ry
     Harris-Foulkes estimate   =     -31.57325085 Ry
     estimated scf accuracy    <       2.31535594 Ry

     iteration # 13     ecut=    30.00 Ry     beta=0.70
     Davidson diagonalization with overlap
     ethr =  1.09E-03,  avg # of iterations =  1.0

     negative rho (up, down):  5.749E-04 0.000E+00

     total cpu time spent up to now is        0.7 secs

     total energy              =     -31.91622080 Ry
     Harris-Foulkes estimate   =     -31.68171346 Ry
     estimated scf accuracy    <       3.55972234 Ry

     iteration # 14     ecut=    30.00 Ry     beta=0.70
     Davidson diagonalization with overlap
     ethr =  1.09E-03,  avg # of iterations =  1.0

     total cpu time spent up to now is        0.7 secs

     total energy              =     -31.92533500 Ry
     Harris-Foulkes estimate   =     -31.92115490 Ry
     estimated scf accuracy    <       4.06254736 Ry

     iteration # 15     ecut=    30.00 Ry     beta=0.70
     Davidson diagonalization with overlap
     ethr =  1.09E-03,  avg # of iterations =  1.0

     negative rho (up, down):  8.437E-04 0.000E+00

     total cpu time spent up to now is        0.7 secs

     total energy              =     -31.83653032 Ry
     Harris-Foulkes estimate   =     -31.92545993 Ry
     estimated scf accuracy    <       4.07426633 Ry

     iteration # 16     ecut=    30.00 Ry     beta=0.70
     Davidson diagonalization with overlap
     ethr =  1.09E-03,  avg # of iterations =  1.0

     negative rho (up, down):  2.443E-03 0.000E+00

     total cpu time spent up to now is        0.8 secs

     total energy              =     -31.79215328 Ry
     Harris-Foulkes estimate   =     -31.83682810 Ry
     estimated scf accuracy    <       3.91705747 Ry

     iteration # 17     ecut=    30.00 Ry     beta=0.70
     Davidson diagonalization with overlap
     ethr =  1.09E-03,  avg # of iterations =  1.0

     negative rho (up, down):  1.793E-03 0.000E+00

     total cpu time spent up to now is        0.8 secs

     total energy              =     -31.76584805 Ry
     Harris-Foulkes estimate   =     -31.79233973 Ry
     estimated scf accuracy    <       3.82045249 Ry

     iteration # 18     ecut=    30.00 Ry     beta=0.70
     Davidson diagonalization with overlap
     ethr =  1.09E-03,  avg # of iterations =  1.0

     negative rho (up, down):  1.639E-03 0.000E+00

     total cpu time spent up to now is        0.8 secs

     total energy              =     -31.69371878 Ry
     Harris-Foulkes estimate   =     -31.76593308 Ry
     estimated scf accuracy    <       3.75717657 Ry

     iteration # 19     ecut=    30.00 Ry     beta=0.70
     Davidson diagonalization with overlap
     ethr =  1.09E-03,  avg # of iterations =  1.0

     negative rho (up, down):  2.828E-03 0.000E+00

     total cpu time spent up to now is        0.9 secs

     total energy              =     -31.43671416 Ry
     Harris-Foulkes estimate   =     -31.69418762 Ry
     estimated scf accuracy    <       3.57536443 Ry

     iteration # 20     ecut=    30.00 Ry     beta=0.70
     Davidson diagonalization with overlap
     ethr =  1.09E-03,  avg # of iterations =  1.0

     negative rho (up, down):  3.853E-03 0.000E+00

     total cpu time spent up to now is        0.9 secs

     total energy              =     -31.49377126 Ry
     Harris-Foulkes estimate   =     -31.51307322 Ry
     estimated scf accuracy    <       0.46372580 Ry

     iteration # 21     ecut=    30.00 Ry     beta=0.70
     Davidson diagonalization with overlap
     ethr =  1.09E-03,  avg # of iterations =  1.0

     negative rho (up, down):  1.498E-03 0.000E+00

     total cpu time spent up to now is        0.9 secs

     total energy              =     -31.51597029 Ry
     Harris-Foulkes estimate   =     -31.51407168 Ry
     estimated scf accuracy    <       0.82235863 Ry

     iteration # 22     ecut=    30.00 Ry     beta=0.70
     Davidson diagonalization with overlap
     ethr =  1.09E-03,  avg # of iterations =  1.0

     negative rho (up, down):  7.225E-04 0.000E+00

     total cpu time spent up to now is        1.0 secs

     total energy              =     -31.48256184 Ry
     Harris-Foulkes estimate   =     -31.51731418 Ry
     estimated scf accuracy    <       1.22503977 Ry

     iteration # 23     ecut=    30.00 Ry     beta=0.70
     Davidson diagonalization with overlap
     ethr =  1.09E-03,  avg # of iterations =  1.0

     negative rho (up, down):  9.682E-04 0.000E+00

     total cpu time spent up to now is        1.0 secs

     total energy              =     -31.48809123 Ry
     Harris-Foulkes estimate   =     -31.50896951 Ry
     estimated scf accuracy    <       0.33965613 Ry

     iteration # 24     ecut=    30.00 Ry     beta=0.70
     Davidson diagonalization with overlap
     ethr =  1.09E-03,  avg # of iterations =  1.0

     negative rho (up, down):  1.093E-04 0.000E+00

     total cpu time spent up to now is        1.0 secs

     total energy              =     -31.51176880 Ry
     Harris-Foulkes estimate   =     -31.52524662 Ry
     estimated scf accuracy    <       1.76052804 Ry

     iteration # 25     ecut=    30.00 Ry     beta=0.70
     Davidson diagonalization with overlap
     ethr =  1.09E-03,  avg # of iterations =  1.0

     negative rho (up, down):  2.114E-05 0.000E+00

     total cpu time spent up to now is        1.1 secs

     total energy              =     -31.50739323 Ry
     Harris-Foulkes estimate   =     -31.51430589 Ry
     estimated scf accuracy    <       0.91780448 Ry

     iteration # 26     ecut=    30.00 Ry     beta=0.70
     Davidson diagonalization with overlap
     ethr =  1.09E-03,  avg # of iterations =  1.0

     negative rho (up, down):  1.081E-04 0.000E+00

     total cpu time spent up to now is        1.1 secs

     total energy              =     -31.51398986 Ry
     Harris-Foulkes estimate   =     -31.51124846 Ry
     estimated scf accuracy    <       0.44400064 Ry

     iteration # 27     ecut=    30.00 Ry     beta=0.70
     Davidson diagonalization with overlap
     ethr =  1.09E-03,  avg # of iterations =  1.0

     negative rho (up, down):  3.820E-05 0.000E+00

     total cpu time spent up to now is        1.1 secs

     total energy              =     -31.53566069 Ry
     Harris-Foulkes estimate   =     -31.52194142 Ry
     estimated scf accuracy    <       1.42623414 Ry

     iteration # 28     ecut=    30.00 Ry     beta=0.70
     Davidson diagonalization with overlap
     ethr =  1.09E-03,  avg # of iterations =  1.0

     total cpu time spent up to now is        1.2 secs

     total energy              =     -31.49304236 Ry
     Harris-Foulkes estimate   =     -31.53862308 Ry
     estimated scf accuracy    <       2.36932199 Ry

     iteration # 29     ecut=    30.00 Ry     beta=0.70
     Davidson diagonalization with overlap
     ethr =  1.09E-03,  avg # of iterations =  1.0

     negative rho (up, down):  4.781E-05 0.000E+00

     total cpu time spent up to now is        1.2 secs

     total energy              =     -31.50440193 Ry
     Harris-Foulkes estimate   =     -31.50792252 Ry
     estimated scf accuracy    <       0.35629461 Ry

     iteration # 30     ecut=    30.00 Ry     beta=0.70
     Davidson diagonalization with overlap
     ethr =  1.09E-03,  avg # of iterations =  1.0

     negative rho (up, down):  2.705E-07 0.000E+00

     total cpu time spent up to now is        1.2 secs

     total energy              =     -31.50517402 Ry
     Harris-Foulkes estimate   =     -31.50496601 Ry
     estimated scf accuracy    <       0.15771119 Ry

     iteration # 31     ecut=    30.00 Ry     beta=0.70
     Davidson diagonalization with overlap
     ethr =  1.09E-03,  avg # of iterations =  1.0

     negative rho (up, down):  3.636E-06 0.000E+00

     total cpu time spent up to now is        1.3 secs

     total energy              =     -31.50346925 Ry
     Harris-Foulkes estimate   =     -31.50519014 Ry
     estimated scf accuracy    <       0.17726936 Ry

     iteration # 32     ecut=    30.00 Ry     beta=0.70
     Davidson diagonalization with overlap
     ethr =  1.09E-03,  avg # of iterations =  1.0

     negative rho (up, down):  6.913E-06 0.000E+00

     total cpu time spent up to now is        1.3 secs

     total energy              =     -31.50309283 Ry
     Harris-Foulkes estimate   =     -31.50372796 Ry
     estimated scf accuracy    <       0.08827992 Ry

     iteration # 33     ecut=    30.00 Ry     beta=0.70
     Davidson diagonalization with overlap
     ethr =  1.09E-03,  avg # of iterations =  1.0

     negative rho (up, down):  6.571E-06 0.000E+00

     total cpu time spent up to now is        1.3 secs

     total energy              =     -31.50306651 Ry
     Harris-Foulkes estimate   =     -31.50316674 Ry
     estimated scf accuracy    <       0.05323293 Ry

     iteration # 34     ecut=    30.00 Ry     beta=0.70
     Davidson diagonalization with overlap
     ethr =  6.65E-04,  avg # of iterations =  1.0

     negative rho (up, down):  2.251E-07 0.000E+00

     total cpu time spent up to now is        1.4 secs

     total energy              =     -31.50190633 Ry
     Harris-Foulkes estimate   =     -31.50306971 Ry
     estimated scf accuracy    <       0.04680862 Ry

     iteration # 35     ecut=    30.00 Ry     beta=0.70
     Davidson diagonalization with overlap
     ethr =  5.85E-04,  avg # of iterations =  1.0

     total cpu time spent up to now is        1.4 secs

     total energy              =     -31.50235659 Ry
     Harris-Foulkes estimate   =     -31.50239218 Ry
     estimated scf accuracy    <       0.00121077 Ry

     iteration # 36     ecut=    30.00 Ry     beta=0.70
     Davidson diagonalization with overlap
     ethr =  1.51E-05,  avg # of iterations = 13.0

     total cpu time spent up to now is        1.4 secs

     total energy              =     -31.50237534 Ry
     Harris-Foulkes estimate   =     -31.50237539 Ry
     estimated scf accuracy    <       0.00000221 Ry

     iteration # 37     ecut=    30.00 Ry     beta=0.70
     Davidson diagonalization with overlap
     ethr =  2.76E-08,  avg # of iterations =  8.0

     total cpu time spent up to now is        1.5 secs

     total energy              =     -31.50237522 Ry
     Harris-Foulkes estimate   =     -31.50237557 Ry
     estimated scf accuracy    <       0.00000285 Ry

     iteration # 38     ecut=    30.00 Ry     beta=0.70
     Davidson diagonalization with overlap
     ethr =  2.76E-08,  avg # of iterations =  1.0

     total cpu time spent up to now is        1.5 secs

     total energy              =     -31.50237521 Ry
     Harris-Foulkes estimate   =     -31.50237529 Ry
     estimated scf accuracy    <       0.00000029 Ry

     iteration # 39     ecut=    30.00 Ry     beta=0.70
     Davidson diagonalization with overlap
     ethr =  3.65E-09,  avg # of iterations =  1.0

     total cpu time spent up to now is        1.5 secs

     End of self-consistent calculation

          k = 0.0000 0.0000 0.0000 ( 22119 PWs)   bands (ev):

   -23.6168  -7.1748  -7.0236  -7.0233  -6.9185  -6.7587  -0.1979   0.6337

     the Fermi energy is    -6.8884 ev

!    total energy              =     -31.50237515 Ry
     Harris-Foulkes estimate   =     -31.50237522 Ry
     estimated scf accuracy    <          3.2E-09 Ry

     convergence has been achieved in  39 iterations

     Forces acting on atoms (Ry/au):

     atom    1 type  1   force =     0.00975560    0.00583624   -0.00918942
     atom    2 type  1   force =     0.00026771    0.00032023    0.00022027
     atom    3 type  2   force =    -0.01002331   -0.00615647    0.00896915

     Total force =     0.020802     Total SCF correction =     0.000031

     Molecular Dynamics Calculation

     Starting temperature  =  1000.00 K

     temperature is controlled by Andersen thermostat
     Collision frequency = 1.0000/timestep
     mass H                =     1.01
     mass O                =    16.00
     Time step             =   100.00 a.u.,  4.8378 femto-seconds

     Entering Dynamics:    iteration =     1
                           time      =   0.0048 pico-seconds


     Andersen thermostat:    3 collisions

ATOMIC_POSITIONS (bohr)
H        6.221031479   9.863151583   4.787401956
H       17.326553426  16.955293337  10.270856269
O       10.165883987  11.818150072   0.824708073


     kinetic energy (Ekin) =     0.01319564 Ry
     temperature           =   694.47456190 K 
     Ekin + Etot (const)   =   -31.48917951 Ry

     Linear momentum :   -0.0000000000    0.0000000000    0.0000000000

     Writing output data file pwscf.save
     Check: negative starting charge=   -0.344248
     NEW-OLD atomic charge density approx. for the potential
     Check: negative starting charge=   -0.344060

     negative rho (up, down):  8.654E-02 0.000E+00

     total cpu time spent up to now is        1.8 secs

     per-process dynamical memory:    20.4 Mb

     Self-consistent Calculation

     iteration #  1     ecut=    30.00 Ry     beta=0.70
     Davidson diagonalization with overlap
     c_bands:  1 eigenvalues not converged
     ethr =  1.00E-06,  avg # of iterations = 20.0

     negative rho (up, down):  2.057E-02 0.000E+00

     total cpu time spent up to now is        1.9 secs

     total energy              =     -31.43773051 Ry
     Harris-Foulkes estimate   =     -31.44723291 Ry
     estimated scf accuracy    <       0.07511960 Ry

     iteration #  2     ecut=    30.00 Ry     beta=0.70
     Davidson diagonalization with overlap
     ethr =  9.39E-04,  avg # of iterations =  2.0

     negative rho (up, down):  1.856E-02 0.000E+00

     total cpu time spent up to now is        1.9 secs

     total energy              =     -31.46111306 Ry
     Harris-Foulkes estimate   =     -32.01300027 Ry
     estimated scf accuracy    <       4.29277623 Ry

     iteration #  3     ecut=    30.00 Ry     beta=0.70
     Davidson diagonalization with overlap
     ethr =  9.39E-04,  avg # of iterations =  2.0

     negative rho (up, down):  1.730E-02 0.000E+00

     total cpu time spent up to now is        1.9 secs

     total energy              =     -31.47737608 Ry
     Harris-Foulkes estimate   =     -31.57329066 Ry
     estimated scf accuracy    <       1.05980967 Ry

     iteration #  4     ecut=    30.00 Ry     beta=0.70
     Davidson diagonalization with overlap
     ethr =  9.39E-04,  avg # of iterations =  1.0

     negative rho (up, down):  1.310E-02 0.000E+00

     total cpu time spent up to now is        2.0 secs

     total energy              =     -31.45053385 Ry
     Harris-Foulkes estimate   =     -31.50721850 Ry
     estimated scf accuracy    <       0.88254623 Ry

     iteration #  5     ecut=    30.00 Ry     beta=0.70
     Davidson diagonalization with overlap
     ethr =  9.39E-04,  avg # of iterations =  1.0

     negative rho (up, down):  3.377E-03 0.000E+00

     total cpu time spent up to now is        2.0 secs

     total energy              =     -31.50175345 Ry
     Harris-Foulkes estimate   =     -31.53094278 Ry
     estimated scf accuracy    <       1.59632059 Ry

     iteration #  6     ecut=    30.00 Ry     beta=0.70
     Davidson diagonalization with overlap
     ethr =  9.39E-04,  avg # of iterations =  1.0

     negative rho (up, down):  6.987E-04 0.000E+00

     total cpu time spent up to now is        2.0 secs

     total energy              =     -31.50953048 Ry
     Harris-Foulkes estimate   =     -31.51285875 Ry
     estimated scf accuracy    <       0.16608832 Ry

     iteration #  7     ecut=    30.00 Ry     beta=0.70
     Davidson diagonalization with overlap
     ethr =  9.39E-04,  avg # of iterations =  1.0

     negative rho (up, down):  2.749E-04 0.000E+00

     total cpu time spent up to now is        2.1 secs

     total energy              =     -31.51288402 Ry
     Harris-Foulkes estimate   =     -31.51275659 Ry
     estimated scf accuracy    <       0.00394427 Ry

     iteration #  8     ecut=    30.00 Ry     beta=0.70
     Davidson diagonalization with overlap
     ethr =  4.93E-05,  avg # of iterations = 10.0

     negative rho (up, down):  2.736E-05 0.000E+00

     total cpu time spent up to now is        2.1 secs

     total energy              =     -31.51228798 Ry
     Harris-Foulkes estimate   =     -31.51330737 Ry
     estimated scf accuracy    <       0.05461142 Ry

     iteration #  9     ecut=    30.00 Ry     beta=0.70
     Davidson diagonalization with overlap
     ethr =  4.93E-05,  avg # of iterations =  1.0

     negative rho (up, down):  2.467E-06 0.000E+00

     total cpu time spent up to now is        2.2 secs

     total energy              =     -31.51267271 Ry
     Harris-Foulkes estimate   =     -31.51277327 Ry
     estimated scf accuracy    <       0.00167038 Ry

     iteration # 10     ecut=    30.00 Ry     beta=0.70
     Davidson diagonalization with overlap
     ethr =  2.09E-05,  avg # of iterations =  1.0

     negative rho (up, down):  1.235E-08 0.000E+00

     total cpu time spent up to now is        2.2 secs

     total energy              =     -31.51244587 Ry
     Harris-Foulkes estimate   =     -31.51288770 Ry
     estimated scf accuracy    <       0.01253563 Ry

     iteration # 11     ecut=    30.00 Ry     beta=0.70
     Davidson diagonalization with overlap
     ethr =  2.09E-05,  avg # of iterations =  1.0

     total cpu time spent up to now is        2.2 secs

     total energy              =     -31.51267347 Ry
     Harris-Foulkes estimate   =     -31.51281467 Ry
     estimated scf accuracy    <       0.00557925 Ry

     iteration # 12     ecut=    30.00 Ry     beta=0.70
     Davidson diagonalization with overlap
     ethr =  2.09E-05,  avg # of iterations =  1.0

     total cpu time spent up to now is        2.3 secs

     total energy              =     -31.51275562 Ry
     Harris-Foulkes estimate   =     -31.51275893 Ry
     estimated scf accuracy    <       0.00023933 Ry

     iteration # 13     ecut=    30.00 Ry     beta=0.70
     Davidson diagonalization with overlap
     ethr =  2.99E-06,  avg # of iterations =  7.0

     total cpu time spent up to now is        2.3 secs

     total energy              =     -31.51275602 Ry
     Harris-Foulkes estimate   =     -31.51275688 Ry
     estimated scf accuracy    <       0.00004546 Ry

     iteration # 14     ecut=    30.00 Ry     beta=0.70
     Davidson diagonalization with overlap
     ethr =  5.68E-07,  avg # of iterations =  1.0

     total cpu time spent up to now is        2.3 secs

     total energy              =     -31.51275619 Ry
     Harris-Foulkes estimate   =     -31.51275626 Ry
     estimated scf accuracy    <       0.00000630 Ry

     iteration # 15     ecut=    30.00 Ry     beta=0.70
     Davidson diagonalization with overlap
     ethr =  7.87E-08,  avg # of iterations =  1.0

     total cpu time spent up to now is        2.4 secs

     total energy              =     -31.51275629 Ry
     Harris-Foulkes estimate   =     -31.51275628 Ry
     estimated scf accuracy    <       0.00000002 Ry

     iteration # 16     ecut=    30.00 Ry     beta=0.70
     Davidson diagonalization with overlap
     ethr =  2.59E-10,  avg # of iterations =  1.0

     total cpu time spent up to now is        2.4 secs

     End of self-consistent calculation

          k = 0.0000 0.0000 0.0000 ( 22119 PWs)   bands (ev):

   -23.6282  -7.2627  -7.0281  -7.0281  -6.9219  -6.6765  -0.1875   0.6470

     the Fermi energy is    -6.8918 ev

!    total energy              =     -31.51275620 Ry
     Harris-Foulkes estimate   =     -31.51275629 Ry
     estimated scf accuracy    <          7.4E-09 Ry

     convergence has been achieved in  16 iterations

     Forces acting on atoms (Ry/au):

     atom    1 type  1   force =     0.02017438    0.01020184   -0.02009977
     atom    2 type  1   force =     0.00015465    0.00016187   -0.00003393
     atom    3 type  2   force =    -0.02032902   -0.01036371    0.02013370

     Total force =     0.042909     Total SCF correction =     0.000380

     Entering Dynamics:    iteration =     2
                           time      =   0.0097 pico-seconds


     Andersen thermostat:    3 collisions

ATOMIC_POSITIONS (bohr)
H        6.492598788  10.150123691   4.714189432
H       17.391489796  16.803201088  10.446728917
O       10.144642192  11.809635781   0.818227653


     kinetic energy (Ekin) =     0.00963123 Ry
     temperature           =   506.88320416 K 
     Ekin + Etot (const)   =   -31.50312497 Ry
     Message from routine dynamics:
     Total linear momentum <> 0

     Linear momentum :   -0.0482643422    0.4839037204    0.0463385468

     Writing output data file pwscf.save

     first order wave-functions extrapolation
     Check: negative starting charge=   -0.344060
     first order charge density extrapolation
     Check: negative starting charge=   -0.344509

     negative rho (up, down):  9.199E-02 0.000E+00

     total cpu time spent up to now is        2.7 secs

     per-process dynamical memory:    20.4 Mb

     Self-consistent Calculation

     iteration #  1     ecut=    30.00 Ry     beta=0.70
     Davidson diagonalization with overlap
     c_bands:  1 eigenvalues not converged
     ethr =  1.00E-06,  avg # of iterations = 20.0

     negative rho (up, down):  2.200E-02 0.000E+00

     total cpu time spent up to now is        2.8 secs

     total energy              =     -31.02908431 Ry
     Harris-Foulkes estimate   =     -31.53427544 Ry
     estimated scf accuracy    <       0.60419888 Ry

     iteration #  2     ecut=    30.00 Ry     beta=0.70
     Davidson diagonalization with overlap
     ethr =  7.55E-03,  avg # of iterations =  2.0

     negative rho (up, down):  1.807E-02 0.000E+00

     total cpu time spent up to now is        2.8 secs

     total energy              =     -31.31752608 Ry
     Harris-Foulkes estimate   =     -32.49750331 Ry
     estimated scf accuracy    <       4.28262169 Ry

     iteration #  3     ecut=    30.00 Ry     beta=0.70
     Davidson diagonalization with overlap
     ethr =  7.55E-03,  avg # of iterations =  2.0

     negative rho (up, down):  1.492E-02 0.000E+00

     total cpu time spent up to now is        2.8 secs

     total energy              =     -31.70677597 Ry
     Harris-Foulkes estimate   =     -32.19021879 Ry
     estimated scf accuracy    <       2.06064025 Ry

     iteration #  4     ecut=    30.00 Ry     beta=0.70
     Davidson diagonalization with overlap
     ethr =  7.55E-03,  avg # of iterations =  1.0

     negative rho (up, down):  1.396E-02 0.000E+00

     total cpu time spent up to now is        2.9 secs

     total energy              =     -31.61836867 Ry
     Harris-Foulkes estimate   =     -31.71749110 Ry
     estimated scf accuracy    <       1.31738191 Ry

     iteration #  5     ecut=    30.00 Ry     beta=0.70
     Davidson diagonalization with overlap
     ethr =  7.55E-03,  avg # of iterations =  1.0

     negative rho (up, down):  1.067E-02 0.000E+00

     total cpu time spent up to now is        2.9 secs

     total energy              =     -31.48041647 Ry
     Harris-Foulkes estimate   =     -31.62268556 Ry
     estimated scf accuracy    <       0.67213704 Ry

     iteration #  6     ecut=    30.00 Ry     beta=0.70
     Davidson diagonalization with overlap
     ethr =  7.55E-03,  avg # of iterations =  1.0

     negative rho (up, down):  9.830E-03 0.000E+00

     total cpu time spent up to now is        2.9 secs

     total energy              =     -31.51681134 Ry
     Harris-Foulkes estimate   =     -31.55948415 Ry
     estimated scf accuracy    <       1.24860600 Ry

     iteration #  7     ecut=    30.00 Ry     beta=0.70
     Davidson diagonalization with overlap
     ethr =  7.55E-03,  avg # of iterations =  1.0

     negative rho (up, down):  6.240E-03 0.000E+00

     total cpu time spent up to now is        3.0 secs

     total energy              =     -31.49900420 Ry
     Harris-Foulkes estimate   =     -31.52215465 Ry
     estimated scf accuracy    <       0.43810644 Ry

     iteration #  8     ecut=    30.00 Ry     beta=0.70
     Davidson diagonalization with overlap
     ethr =  5.48E-03,  avg # of iterations =  1.0

     negative rho (up, down):  3.138E-03 0.000E+00

     total cpu time spent up to now is        3.0 secs

     total energy              =     -31.34465592 Ry
     Harris-Foulkes estimate   =     -31.57305580 Ry
     estimated scf accuracy    <       1.21982467 Ry

     iteration #  9     ecut=    30.00 Ry     beta=0.70
     Davidson diagonalization with overlap
     ethr =  5.48E-03,  avg # of iterations =  1.0

     negative rho (up, down):  1.618E-03 0.000E+00

     total cpu time spent up to now is        3.1 secs

     total energy              =     -31.63693186 Ry
     Harris-Foulkes estimate   =     -31.67622468 Ry
     estimated scf accuracy    <       1.16673970 Ry

     iteration # 10     ecut=    30.00 Ry     beta=0.70
     Davidson diagonalization with overlap
     ethr =  5.48E-03,  avg # of iterations =  1.0

     negative rho (up, down):  3.396E-04 0.000E+00

     total cpu time spent up to now is        3.1 secs

     total energy              =     -31.60312505 Ry
     Harris-Foulkes estimate   =     -31.63926560 Ry
     estimated scf accuracy    <       0.97527992 Ry

     iteration # 11     ecut=    30.00 Ry     beta=0.70
     Davidson diagonalization with overlap
     ethr =  5.48E-03,  avg # of iterations =  1.0

     negative rho (up, down):  2.672E-06 0.000E+00

     total cpu time spent up to now is        3.2 secs

     total energy              =     -31.57761605 Ry
     Harris-Foulkes estimate   =     -31.61881934 Ry
     estimated scf accuracy    <       0.98918108 Ry

     iteration # 12     ecut=    30.00 Ry     beta=0.70
     Davidson diagonalization with overlap
     ethr =  5.48E-03,  avg # of iterations =  1.0

     negative rho (up, down):  4.915E-06 0.000E+00

     total cpu time spent up to now is        3.2 secs

     total energy              =     -31.53621582 Ry
     Harris-Foulkes estimate   =     -31.58119481 Ry
     estimated scf accuracy    <       1.34518729 Ry

     iteration # 13     ecut=    30.00 Ry     beta=0.70
     Davidson diagonalization with overlap
     ethr =  5.48E-03,  avg # of iterations =  1.0

     negative rho (up, down):  1.048E-07 0.000E+00

     total cpu time spent up to now is        3.3 secs

     total energy              =     -31.53551721 Ry
     Harris-Foulkes estimate   =     -31.54064356 Ry
     estimated scf accuracy    <       0.69688566 Ry

     iteration # 14     ecut=    30.00 Ry     beta=0.70
     Davidson diagonalization with overlap
     ethr =  5.48E-03,  avg # of iterations =  1.0

     negative rho (up, down):  5.311E-06 0.000E+00

     total cpu time spent up to now is        3.4 secs

     total energy              =     -31.53857852 Ry
     Harris-Foulkes estimate   =     -31.53587336 Ry
     estimated scf accuracy    <       0.52431500 Ry

     iteration # 15     ecut=    30.00 Ry     beta=0.70
     Davidson diagonalization with overlap
     ethr =  5.48E-03,  avg # of iterations =  1.0

     negative rho (up, down):  1.629E-04 0.000E+00

     total cpu time spent up to now is        3.4 secs

     total energy              =     -31.52444804 Ry
     Harris-Foulkes estimate   =     -31.53914073 Ry
     estimated scf accuracy    <       0.70279014 Ry

     iteration # 16     ecut=    30.00 Ry     beta=0.70
     Davidson diagonalization with overlap
     ethr =  5.48E-03,  avg # of iterations =  1.0

     negative rho (up, down):  9.810E-05 0.000E+00

     total cpu time spent up to now is        3.5 secs

     total energy              =     -31.53204289 Ry
     Harris-Foulkes estimate   =     -31.52756308 Ry
     estimated scf accuracy    <       0.16649310 Ry

     iteration # 17     ecut=    30.00 Ry     beta=0.70
     Davidson diagonalization with overlap
     ethr =  2.08E-03,  avg # of iterations =  1.0

     negative rho (up, down):  5.002E-05 0.000E+00

     total cpu time spent up to now is        3.5 secs

     total energy              =     -31.51990965 Ry
     Harris-Foulkes estimate   =     -31.53364005 Ry
     estimated scf accuracy    <       0.48518861 Ry

     iteration # 18     ecut=    30.00 Ry     beta=0.70
     Davidson diagonalization with overlap
     ethr =  2.08E-03,  avg # of iterations =  1.0

     negative rho (up, down):  2.342E-05 0.000E+00

     total cpu time spent up to now is        3.6 secs

     total energy              =     -31.52475957 Ry
     Harris-Foulkes estimate   =     -31.52521386 Ry
     estimated scf accuracy    <       0.01039589 Ry

     iteration # 19     ecut=    30.00 Ry     beta=0.70
     Davidson diagonalization with overlap
     ethr =  1.30E-04,  avg # of iterations =  1.0

     negative rho (up, down):  2.817E-07 0.000E+00

     total cpu time spent up to now is        3.6 secs

     total energy              =     -31.52504159 Ry
     Harris-Foulkes estimate   =     -31.52493354 Ry
     estimated scf accuracy    <       0.00070943 Ry

     iteration # 20     ecut=    30.00 Ry     beta=0.70
     Davidson diagonalization with overlap
     ethr =  8.87E-06,  avg # of iterations = 13.0

     negative rho (up, down):  1.398E-06 0.000E+00

     total cpu time spent up to now is        3.7 secs

     total energy              =     -31.52744199 Ry
     Harris-Foulkes estimate   =     -31.52566934 Ry
     estimated scf accuracy    <       0.06181415 Ry

     iteration # 21     ecut=    30.00 Ry     beta=0.70
     Davidson diagonalization with overlap
     ethr =  8.87E-06,  avg # of iterations =  1.0

     negative rho (up, down):  7.950E-06 0.000E+00

     total cpu time spent up to now is        3.8 secs

     total energy              =     -31.51879251 Ry
     Harris-Foulkes estimate   =     -31.52837942 Ry
     estimated scf accuracy    <       0.24212769 Ry

     iteration # 22     ecut=    30.00 Ry     beta=0.70
     Davidson diagonalization with overlap
     ethr =  8.87E-06,  avg # of iterations =  2.0

     negative rho (up, down):  1.336E-07 0.000E+00

     total cpu time spent up to now is        3.8 secs

     total energy              =     -31.52482957 Ry
     Harris-Foulkes estimate   =     -31.52571348 Ry
     estimated scf accuracy    <       0.06837157 Ry

     iteration # 23     ecut=    30.00 Ry     beta=0.70
     Davidson diagonalization with overlap
     ethr =  8.87E-06,  avg # of iterations =  1.0

     total cpu time spent up to now is        3.9 secs

     total energy              =     -31.52473180 Ry
     Harris-Foulkes estimate   =     -31.52507055 Ry
     estimated scf accuracy    <       0.01392527 Ry

     iteration # 24     ecut=    30.00 Ry     beta=0.70
     Davidson diagonalization with overlap
     ethr =  8.87E-06,  avg # of iterations =  1.0

     total cpu time spent up to now is        3.9 secs

     total energy              =     -31.52490084 Ry
     Harris-Foulkes estimate   =     -31.52489961 Ry
     estimated scf accuracy    <       0.00000112 Ry

     iteration # 25     ecut=    30.00 Ry     beta=0.70
     Davidson diagonalization with overlap
     ethr =  1.40E-08,  avg # of iterations =  2.0

     total cpu time spent up to now is        4.0 secs

     total energy              =     -31.52490151 Ry
     Harris-Foulkes estimate   =     -31.52490287 Ry
     estimated scf accuracy    <       0.00014142 Ry

     iteration # 26     ecut=    30.00 Ry     beta=0.70
     Davidson diagonalization with overlap
     ethr =  1.40E-08,  avg # of iterations =  1.0

     total cpu time spent up to now is        4.0 secs

     total energy              =     -31.52490216 Ry
     Harris-Foulkes estimate   =     -31.52490202 Ry
     estimated scf accuracy    <       0.00002952 Ry

     iteration # 27     ecut=    30.00 Ry     beta=0.70
     Davidson diagonalization with overlap
     ethr =  1.40E-08,  avg # of iterations =  1.0

     total cpu time spent up to now is        4.1 secs

     total energy              =     -31.52490271 Ry
     Harris-Foulkes estimate   =     -31.52490264 Ry
     estimated scf accuracy    <       0.00000084 Ry

     iteration # 28     ecut=    30.00 Ry     beta=0.70
     Davidson diagonalization with overlap
     ethr =  1.05E-08,  avg # of iterations =  1.0

     total cpu time spent up to now is        4.1 secs

     total energy              =     -31.52490276 Ry
     Harris-Foulkes estimate   =     -31.52490272 Ry
     estimated scf accuracy    <       0.00000002 Ry

     iteration # 29     ecut=    30.00 Ry     beta=0.70
     Davidson diagonalization with overlap
     ethr =  1.88E-10,  avg # of iterations =  1.0

     total cpu time spent up to now is        4.1 secs

     total energy              =     -31.52490278 Ry
     Harris-Foulkes estimate   =     -31.52490276 Ry
     estimated scf accuracy    <       0.00000001 Ry

     iteration # 30     ecut=    30.00 Ry     beta=0.70
     Davidson diagonalization with overlap
     ethr =  1.54E-10,  avg # of iterations =  1.0

     total cpu time spent up to now is        4.1 secs

     End of self-consistent calculation

          k = 0.0000 0.0000 0.0000 ( 22119 PWs)   bands (ev):

   -23.6313  -7.3549  -7.0211  -7.0211  -6.9120  -6.5906  -0.1800   0.6558

     the Fermi energy is    -6.8816 ev

!    total energy              =     -31.52490279 Ry
     Harris-Foulkes estimate   =     -31.52490278 Ry
     estimated scf accuracy    <          4.5E-11 Ry

     convergence has been achieved in  30 iterations

     Forces acting on atoms (Ry/au):

     atom    1 type  1   force =     0.02758175    0.01236341   -0.02895663
     atom    2 type  1   force =    -0.00003459   -0.00000073    0.00009136
     atom    3 type  2   force =    -0.02754716   -0.01236268    0.02886527

     Total force =     0.059135     Total SCF correction =     0.000047

     Entering Dynamics:    iteration =     3
                           time      =   0.0145 pico-seconds


     Andersen thermostat:    3 collisions

ATOMIC_POSITIONS (bohr)
H        7.013831036  10.001707842   4.488082161
H       17.534471187  16.875750206  10.786671488
O       10.102713706  11.814424868   0.811041800


     kinetic energy (Ekin) =     0.01908919 Ry
     temperature           =  1004.64719630 K 
     Ekin + Etot (const)   =   -31.50581360 Ry
     Message from routine dynamics:
     Total linear momentum <> 0

     Linear momentum :    0.3047675616   -0.3500624036   -0.1369358232

     Writing output data file pwscf.save

     second order wave-functions extrapolation
     Check: negative starting charge=   -0.344509
     second order charge density extrapolation
     Check: negative starting charge=   -0.344470

     negative rho (up, down):  6.679E-02 0.000E+00

     total cpu time spent up to now is        4.5 secs

     per-process dynamical memory:    20.4 Mb

     Self-consistent Calculation

     iteration #  1     ecut=    30.00 Ry     beta=0.70
     Davidson diagonalization with overlap
     ethr =  1.00E-06,  avg # of iterations = 15.0

     negative rho (up, down):  1.348E-02 0.000E+00

     total cpu time spent up to now is        4.6 secs

     total energy              =      -9.73935997 Ry
     Harris-Foulkes estimate   =     -47.58801599 Ry
     estimated scf accuracy    <       5.62084379 Ry

     iteration #  2     ecut=    30.00 Ry     beta=0.70
     Davidson diagonalization with overlap
     ethr =  1.00E-02,  avg # of iterations =  3.0

     negative rho (up, down):  8.833E-03 0.000E+00

     total cpu time spent up to now is        4.6 secs

     total energy              =     -31.40370446 Ry
     Harris-Foulkes estimate   =     -34.88718223 Ry
     estimated scf accuracy    <       7.22856007 Ry

     iteration #  3     ecut=    30.00 Ry     beta=0.70
     Davidson diagonalization with overlap
     ethr =  1.00E-02,  avg # of iterations =  2.0

     negative rho (up, down):  5.981E-06 0.000E+00

     total cpu time spent up to now is        4.6 secs

     total energy              =     -31.64625272 Ry
     Harris-Foulkes estimate   =     -33.46697096 Ry
     estimated scf accuracy    <       6.69093373 Ry

     iteration #  4     ecut=    30.00 Ry     beta=0.70
     Davidson diagonalization with overlap
     ethr =  1.00E-02,  avg # of iterations =  4.0

     negative rho (up, down):  4.635E-06 0.000E+00

     total cpu time spent up to now is        4.7 secs

     total energy              =     -32.37662031 Ry
     Harris-Foulkes estimate   =     -32.35381272 Ry
     estimated scf accuracy    <       2.23321646 Ry

     iteration #  5     ecut=    30.00 Ry     beta=0.70
     Davidson diagonalization with overlap
     ethr =  1.00E-02,  avg # of iterations =  1.0

     negative rho (up, down):  7.019E-02 0.000E+00

     total cpu time spent up to now is        4.7 secs

     total energy              =     -31.43755123 Ry
     Harris-Foulkes estimate   =     -32.37709800 Ry
     estimated scf accuracy    <       2.26735540 Ry

     iteration #  6     ecut=    30.00 Ry     beta=0.70
     Davidson diagonalization with overlap
     ethr =  1.00E-02,  avg # of iterations =  2.0

     negative rho (up, down):  4.963E-02 0.000E+00

     total cpu time spent up to now is        4.7 secs

     total energy              =     -31.63284260 Ry
     Harris-Foulkes estimate   =     -31.98521120 Ry
     estimated scf accuracy    <       2.58523042 Ry

     iteration #  7     ecut=    30.00 Ry     beta=0.70
     Davidson diagonalization with overlap
     ethr =  1.00E-02,  avg # of iterations =  1.0

     negative rho (up, down):  7.513E-03 0.000E+00

     total cpu time spent up to now is        4.8 secs

     total energy              =     -31.45701431 Ry
     Harris-Foulkes estimate   =     -31.86979621 Ry
     estimated scf accuracy    <       1.65115747 Ry

     iteration #  8     ecut=    30.00 Ry     beta=0.70
     Davidson diagonalization with overlap
     ethr =  1.00E-02,  avg # of iterations =  1.0

     negative rho (up, down):  3.867E-04 0.000E+00

     total cpu time spent up to now is        4.8 secs

     total energy              =     -31.72445600 Ry
     Harris-Foulkes estimate   =     -31.80976597 Ry
     estimated scf accuracy    <       2.46324554 Ry

     iteration #  9     ecut=    30.00 Ry     beta=0.70
     Davidson diagonalization with overlap
     ethr =  1.00E-02,  avg # of iterations =  1.0

     negative rho (up, down):  4.946E-03 0.000E+00

     total cpu time spent up to now is        4.8 secs

     total energy              =     -31.66961966 Ry
     Harris-Foulkes estimate   =     -31.74721203 Ry
     estimated scf accuracy    <       0.75017474 Ry

     iteration # 10     ecut=    30.00 Ry     beta=0.70
     Davidson diagonalization with overlap
     ethr =  9.38E-03,  avg # of iterations =  1.0

     negative rho (up, down):  1.154E-05 0.000E+00

     total cpu time spent up to now is        4.9 secs

     total energy              =     -31.17020090 Ry
     Harris-Foulkes estimate   =     -31.73800340 Ry
     estimated scf accuracy    <       2.27176594 Ry

     iteration # 11     ecut=    30.00 Ry     beta=0.70
     Davidson diagonalization with overlap
     ethr =  9.38E-03,  avg # of iterations =  2.0

     negative rho (up, down):  7.230E-07 0.000E+00

     total cpu time spent up to now is        4.9 secs

     total energy              =     -31.80374650 Ry
     Harris-Foulkes estimate   =     -31.96438413 Ry
     estimated scf accuracy    <       3.95875134 Ry

     iteration # 12     ecut=    30.00 Ry     beta=0.70
     Davidson diagonalization with overlap
     ethr =  9.38E-03,  avg # of iterations =  1.0

     negative rho (up, down):  2.971E-04 0.000E+00

     total cpu time spent up to now is        5.0 secs

     total energy              =     -31.62412333 Ry
     Harris-Foulkes estimate   =     -31.80996624 Ry
     estimated scf accuracy    <       3.38464485 Ry

     iteration # 13     ecut=    30.00 Ry     beta=0.70
     Davidson diagonalization with overlap
     ethr =  9.38E-03,  avg # of iterations =  1.0

     negative rho (up, down):  3.681E-03 0.000E+00

     total cpu time spent up to now is        5.0 secs

     total energy              =     -31.60945610 Ry
     Harris-Foulkes estimate   =     -31.66781705 Ry
     estimated scf accuracy    <       1.43327773 Ry

     iteration # 14     ecut=    30.00 Ry     beta=0.70
     Davidson diagonalization with overlap
     ethr =  9.38E-03,  avg # of iterations =  1.0

     negative rho (up, down):  5.043E-03 0.000E+00

     total cpu time spent up to now is        5.0 secs

     total energy              =     -31.54864680 Ry
     Harris-Foulkes estimate   =     -31.63889834 Ry
     estimated scf accuracy    <       2.67874822 Ry

     iteration # 15     ecut=    30.00 Ry     beta=0.70
     Davidson diagonalization with overlap
     ethr =  9.38E-03,  avg # of iterations =  1.0

     negative rho (up, down):  1.776E-03 0.000E+00

     total cpu time spent up to now is        5.1 secs

     total energy              =     -31.53083635 Ry
     Harris-Foulkes estimate   =     -31.56474424 Ry
     estimated scf accuracy    <       1.35340741 Ry

     iteration # 16     ecut=    30.00 Ry     beta=0.70
     Davidson diagonalization with overlap
     ethr =  9.38E-03,  avg # of iterations =  1.0

     negative rho (up, down):  8.218E-05 0.000E+00

     total cpu time spent up to now is        5.1 secs

     total energy              =     -31.54768635 Ry
     Harris-Foulkes estimate   =     -31.54888606 Ry
     estimated scf accuracy    <       0.04723505 Ry

     iteration # 17     ecut=    30.00 Ry     beta=0.70
     Davidson diagonalization with overlap
     ethr =  5.90E-04,  avg # of iterations =  1.0

     negative rho (up, down):  1.187E-05 0.000E+00

     total cpu time spent up to now is        5.1 secs

     total energy              =     -31.54860314 Ry
     Harris-Foulkes estimate   =     -31.54787098 Ry
     estimated scf accuracy    <       0.03126426 Ry

     iteration # 18     ecut=    30.00 Ry     beta=0.70
     Davidson diagonalization with overlap
     ethr =  3.91E-04,  avg # of iterations =  1.0

     total cpu time spent up to now is        5.2 secs

     total energy              =     -31.54310852 Ry
     Harris-Foulkes estimate   =     -31.54877866 Ry
     estimated scf accuracy    <       0.04877326 Ry

     iteration # 19     ecut=    30.00 Ry     beta=0.70
     Davidson diagonalization with overlap
     ethr =  3.91E-04,  avg # of iterations =  1.0

     total cpu time spent up to now is        5.2 secs

     total energy              =     -31.54673738 Ry
     Harris-Foulkes estimate   =     -31.54686203 Ry
     estimated scf accuracy    <       0.06796586 Ry

     iteration # 20     ecut=    30.00 Ry     beta=0.70
     Davidson diagonalization with overlap
     ethr =  3.91E-04,  avg # of iterations =  1.0

     total cpu time spent up to now is        5.2 secs

     total energy              =     -31.54491681 Ry
     Harris-Foulkes estimate   =     -31.54673618 Ry
     estimated scf accuracy    <       0.07013256 Ry

     iteration # 21     ecut=    30.00 Ry     beta=0.70
     Davidson diagonalization with overlap
     ethr =  3.91E-04,  avg # of iterations =  1.0

     total cpu time spent up to now is        5.3 secs

     total energy              =     -31.54564387 Ry
     Harris-Foulkes estimate   =     -31.54575233 Ry
     estimated scf accuracy    <       0.00050057 Ry

     iteration # 22     ecut=    30.00 Ry     beta=0.70
     Davidson diagonalization with overlap
     ethr =  6.26E-06,  avg # of iterations = 15.0

     total cpu time spent up to now is        5.3 secs

     total energy              =     -31.54550206 Ry
     Harris-Foulkes estimate   =     -31.54590721 Ry
     estimated scf accuracy    <       0.01062162 Ry

     iteration # 23     ecut=    30.00 Ry     beta=0.70
     Davidson diagonalization with overlap
     ethr =  6.26E-06,  avg # of iterations =  1.0

     total cpu time spent up to now is        5.3 secs

     total energy              =     -31.54573053 Ry
     Harris-Foulkes estimate   =     -31.54574771 Ry
     estimated scf accuracy    <       0.00065670 Ry

     iteration # 24     ecut=    30.00 Ry     beta=0.70
     Davidson diagonalization with overlap
     ethr =  6.26E-06,  avg # of iterations =  1.0

     total cpu time spent up to now is        5.4 secs

     total energy              =     -31.54573885 Ry
     Harris-Foulkes estimate   =     -31.54574004 Ry
     estimated scf accuracy    <       0.00000674 Ry

     iteration # 25     ecut=    30.00 Ry     beta=0.70
     Davidson diagonalization with overlap
     ethr =  8.43E-08,  avg # of iterations =  1.0

     total cpu time spent up to now is        5.4 secs

     total energy              =     -31.54573919 Ry
     Harris-Foulkes estimate   =     -31.54573925 Ry
     estimated scf accuracy    <       0.00000034 Ry

     iteration # 26     ecut=    30.00 Ry     beta=0.70
     Davidson diagonalization with overlap
     ethr =  4.29E-09,  avg # of iterations =  1.0

     total cpu time spent up to now is        5.4 secs

     total energy              =     -31.54573923 Ry
     Harris-Foulkes estimate   =     -31.54573920 Ry
     estimated scf accuracy    <       0.00000017 Ry

     iteration # 27     ecut=    30.00 Ry     beta=0.70
     Davidson diagonalization with overlap
     ethr =  2.18E-09,  avg # of iterations =  1.0

     total cpu time spent up to now is        5.5 secs

     End of self-consistent calculation

          k = 0.0000 0.0000 0.0000 ( 22119 PWs)   bands (ev):

   -23.6180  -7.5604  -6.9688  -6.9686  -6.8458  -6.4919  -0.1708   0.6790

     the Fermi energy is    -6.8137 ev

!    total energy              =     -31.54573923 Ry
     Harris-Foulkes estimate   =     -31.54573924 Ry
     estimated scf accuracy    <          3.6E-09 Ry

     convergence has been achieved in  27 iterations

     Forces acting on atoms (Ry/au):

     atom    1 type  1   force =     0.02983208    0.01734300   -0.03522139
     atom    2 type  1   force =    -0.00027145    0.00003908    0.00009950
     atom    3 type  2   force =    -0.02956063   -0.01738208    0.03512189

     Total force =     0.069576     Total SCF correction =     0.000081

     Entering Dynamics:    iteration =     4
                           time      =   0.0194 pico-seconds


     Andersen thermostat:    3 collisions

ATOMIC_POSITIONS (bohr)
H        7.326313280  10.053968357   4.014528525
H       17.334685276  16.541355258  10.592251741
O       10.095599750  11.832234604   0.853207619


     kinetic energy (Ekin) =     0.02344395 Ry
     temperature           =  1233.83431865 K 
     Ekin + Etot (const)   =   -31.52229528 Ry
     Message from routine dynamics:
     Total linear momentum <> 0

     Linear momentum :    0.6585480540    0.4524520681   -0.2987964083

     Writing output data file pwscf.save

     second order wave-functions extrapolation
     Check: negative starting charge=   -0.344470
     second order charge density extrapolation
     Check: negative starting charge=   -0.344708

     negative rho (up, down):  1.019E-01 0.000E+00

     total cpu time spent up to now is        6.0 secs

     per-process dynamical memory:    20.4 Mb

     Self-consistent Calculation

     iteration #  1     ecut=    30.00 Ry     beta=0.70
     Davidson diagonalization with overlap
     c_bands:  1 eigenvalues not converged
     ethr =  1.00E-06,  avg # of iterations = 20.0

     negative rho (up, down):  2.651E-02 0.000E+00

     total cpu time spent up to now is        6.2 secs

     total energy              =     -27.84208957 Ry
     Harris-Foulkes estimate   =     -32.74507399 Ry
     estimated scf accuracy    <       2.12820739 Ry

     iteration #  2     ecut=    30.00 Ry     beta=0.70
     Davidson diagonalization with overlap
     ethr =  1.00E-02,  avg # of iterations =  3.0

     negative rho (up, down):  1.780E-02 0.000E+00

     total cpu time spent up to now is        6.2 secs

     total energy              =     -31.81725559 Ry
     Harris-Foulkes estimate   =     -33.30464151 Ry
     estimated scf accuracy    <       3.78211143 Ry

     iteration #  3     ecut=    30.00 Ry     beta=0.70
     Davidson diagonalization with overlap
     ethr =  1.00E-02,  avg # of iterations =  3.0

     negative rho (up, down):  1.641E-02 0.000E+00

     total cpu time spent up to now is        6.3 secs

     total energy              =     -31.80743721 Ry
     Harris-Foulkes estimate   =     -32.39294462 Ry
     estimated scf accuracy    <       3.66475928 Ry

     iteration #  4     ecut=    30.00 Ry     beta=0.70
     Davidson diagonalization with overlap
     ethr =  1.00E-02,  avg # of iterations =  1.0

     negative rho (up, down):  1.415E-02 0.000E+00

     total cpu time spent up to now is        6.3 secs

     total energy              =     -31.72395570 Ry
     Harris-Foulkes estimate   =     -31.92350807 Ry
     estimated scf accuracy    <       1.84077609 Ry

     iteration #  5     ecut=    30.00 Ry     beta=0.70
     Davidson diagonalization with overlap
     ethr =  1.00E-02,  avg # of iterations =  1.0

     negative rho (up, down):  1.003E-02 0.000E+00

     total cpu time spent up to now is        6.3 secs

     total energy              =     -31.49757503 Ry
     Harris-Foulkes estimate   =     -31.78073565 Ry
     estimated scf accuracy    <       1.70701477 Ry

     iteration #  6     ecut=    30.00 Ry     beta=0.70
     Davidson diagonalization with overlap
     ethr =  1.00E-02,  avg # of iterations =  1.0

     negative rho (up, down):  7.277E-03 0.000E+00

     total cpu time spent up to now is        6.4 secs

     total energy              =     -31.66671795 Ry
     Harris-Foulkes estimate   =     -31.72240782 Ry
     estimated scf accuracy    <       1.28243519 Ry

     iteration #  7     ecut=    30.00 Ry     beta=0.70
     Davidson diagonalization with overlap
     ethr =  1.00E-02,  avg # of iterations =  1.0

     negative rho (up, down):  1.504E-03 0.000E+00

     total cpu time spent up to now is        6.4 secs

     total energy              =     -31.53394332 Ry
     Harris-Foulkes estimate   =     -31.66950589 Ry
     estimated scf accuracy    <       1.19109935 Ry

     iteration #  8     ecut=    30.00 Ry     beta=0.70
     Davidson diagonalization with overlap
     ethr =  1.00E-02,  avg # of iterations =  1.0

     negative rho (up, down):  2.102E-03 0.000E+00

     total cpu time spent up to now is        6.4 secs

     total energy              =     -31.63197043 Ry
     Harris-Foulkes estimate   =     -31.67183648 Ry
     estimated scf accuracy    <       2.10793449 Ry

     iteration #  9     ecut=    30.00 Ry     beta=0.70
     Davidson diagonalization with overlap
     ethr =  1.00E-02,  avg # of iterations =  1.0

     negative rho (up, down):  1.722E-03 0.000E+00

     total cpu time spent up to now is        6.5 secs

     total energy              =     -31.68545714 Ry
     Harris-Foulkes estimate   =     -31.63539280 Ry
     estimated scf accuracy    <       1.42897011 Ry

     iteration # 10     ecut=    30.00 Ry     beta=0.70
     Davidson diagonalization with overlap
     ethr =  1.00E-02,  avg # of iterations =  1.0

     negative rho (up, down):  1.551E-06 0.000E+00

     total cpu time spent up to now is        6.5 secs

     total energy              =     -31.66834756 Ry
     Harris-Foulkes estimate   =     -31.69451322 Ry
     estimated scf accuracy    <       3.11720779 Ry

     iteration # 11     ecut=    30.00 Ry     beta=0.70
     Davidson diagonalization with overlap
     ethr =  1.00E-02,  avg # of iterations =  1.0

     negative rho (up, down):  1.645E-04 0.000E+00

     total cpu time spent up to now is        6.5 secs

     total energy              =     -31.28425406 Ry
     Harris-Foulkes estimate   =     -31.69696356 Ry
     estimated scf accuracy    <       0.93452011 Ry

     iteration # 12     ecut=    30.00 Ry     beta=0.70
     Davidson diagonalization with overlap
     ethr =  1.00E-02,  avg # of iterations =  2.0

     negative rho (up, down):  2.495E-05 0.000E+00

     total cpu time spent up to now is        6.6 secs

     total energy              =     -31.68839664 Ry
     Harris-Foulkes estimate   =     -31.89349857 Ry
     estimated scf accuracy    <       2.90208427 Ry

     iteration # 13     ecut=    30.00 Ry     beta=0.70
     Davidson diagonalization with overlap
     ethr =  1.00E-02,  avg # of iterations =  1.0

     negative rho (up, down):  2.982E-05 0.000E+00

     total cpu time spent up to now is        6.6 secs

     total energy              =     -31.56183901 Ry
     Harris-Foulkes estimate   =     -31.69886551 Ry
     estimated scf accuracy    <       1.60050592 Ry

     iteration # 14     ecut=    30.00 Ry     beta=0.70
     Davidson diagonalization with overlap
     ethr =  1.00E-02,  avg # of iterations =  1.0

     negative rho (up, down):  1.515E-05 0.000E+00

     total cpu time spent up to now is        6.6 secs

     total energy              =     -31.58600817 Ry
     Harris-Foulkes estimate   =     -31.59511003 Ry
     estimated scf accuracy    <       0.12494948 Ry

     iteration # 15     ecut=    30.00 Ry     beta=0.70
     Davidson diagonalization with overlap
     ethr =  1.56E-03,  avg # of iterations =  1.0

     negative rho (up, down):  1.372E-05 0.000E+00

     total cpu time spent up to now is        6.7 secs

     total energy              =     -31.58611376 Ry
     Harris-Foulkes estimate   =     -31.58999269 Ry
     estimated scf accuracy    <       0.20098311 Ry

     iteration # 16     ecut=    30.00 Ry     beta=0.70
     Davidson diagonalization with overlap
     ethr =  1.56E-03,  avg # of iterations =  1.0

     negative rho (up, down):  1.579E-06 0.000E+00

     total cpu time spent up to now is        6.7 secs

     total energy              =     -31.58254202 Ry
     Harris-Foulkes estimate   =     -31.58829331 Ry
     estimated scf accuracy    <       0.30143547 Ry

     iteration # 17     ecut=    30.00 Ry     beta=0.70
     Davidson diagonalization with overlap
     ethr =  1.56E-03,  avg # of iterations =  1.0

     negative rho (up, down):  2.799E-08 0.000E+00

     total cpu time spent up to now is        6.7 secs

     total energy              =     -31.58381642 Ry
     Harris-Foulkes estimate   =     -31.58453386 Ry
     estimated scf accuracy    <       0.05335699 Ry

     iteration # 18     ecut=    30.00 Ry     beta=0.70
     Davidson diagonalization with overlap
     ethr =  6.67E-04,  avg # of iterations =  1.0

     total cpu time spent up to now is        6.8 secs

     total energy              =     -31.58308140 Ry
     Harris-Foulkes estimate   =     -31.58412436 Ry
     estimated scf accuracy    <       0.02516989 Ry

     iteration # 19     ecut=    30.00 Ry     beta=0.70
     Davidson diagonalization with overlap
     ethr =  3.15E-04,  avg # of iterations =  1.0

     total cpu time spent up to now is        6.8 secs

     total energy              =     -31.58356671 Ry
     Harris-Foulkes estimate   =     -31.58380761 Ry
     estimated scf accuracy    <       0.00748479 Ry

     iteration # 20     ecut=    30.00 Ry     beta=0.70
     Davidson diagonalization with overlap
     ethr =  9.36E-05,  avg # of iterations =  1.0

     total cpu time spent up to now is        6.8 secs

     total energy              =     -31.58391612 Ry
     Harris-Foulkes estimate   =     -31.58378803 Ry
     estimated scf accuracy    <       0.00270559 Ry

     iteration # 21     ecut=    30.00 Ry     beta=0.70
     Davidson diagonalization with overlap
     ethr =  3.38E-05,  avg # of iterations =  1.0

     total cpu time spent up to now is        6.9 secs

     total energy              =     -31.58329762 Ry
     Harris-Foulkes estimate   =     -31.58408751 Ry
     estimated scf accuracy    <       0.02702579 Ry

     iteration # 22     ecut=    30.00 Ry     beta=0.70
     Davidson diagonalization with overlap
     ethr =  3.38E-05,  avg # of iterations =  1.0

     total cpu time spent up to now is        6.9 secs

     total energy              =     -31.58369574 Ry
     Harris-Foulkes estimate   =     -31.58371147 Ry
     estimated scf accuracy    <       0.00009308 Ry

     iteration # 23     ecut=    30.00 Ry     beta=0.70
     Davidson diagonalization with overlap
     ethr =  1.16E-06,  avg # of iterations = 17.0

     total cpu time spent up to now is        6.9 secs

     total energy              =     -31.58370364 Ry
     Harris-Foulkes estimate   =     -31.58370391 Ry
     estimated scf accuracy    <       0.00000534 Ry

     iteration # 24     ecut=    30.00 Ry     beta=0.70
     Davidson diagonalization with overlap
     ethr =  6.68E-08,  avg # of iterations =  1.0

     total cpu time spent up to now is        7.0 secs

     total energy              =     -31.58370384 Ry
     Harris-Foulkes estimate   =     -31.58370377 Ry
     estimated scf accuracy    <       0.00000002 Ry

     iteration # 25     ecut=    30.00 Ry     beta=0.70
     Davidson diagonalization with overlap
     ethr =  2.27E-10,  avg # of iterations =  2.0

     total cpu time spent up to now is        7.0 secs

     End of self-consistent calculation

          k = 0.0000 0.0000 0.0000 ( 22119 PWs)   bands (ev):

   -23.5934  -7.8591  -6.9148  -6.9148  -6.7802  -6.1947  -0.1560   0.7065

     the Fermi energy is    -6.7465 ev

!    total energy              =     -31.58370388 Ry
     Harris-Foulkes estimate   =     -31.58370384 Ry
     estimated scf accuracy    <          1.6E-09 Ry

     convergence has been achieved in  25 iterations

     Forces acting on atoms (Ry/au):

     atom    1 type  1   force =     0.05153351    0.03333911   -0.05922018
     atom    2 type  1   force =    -0.00029438    0.00018643   -0.00007898
     atom    3 type  2   force =    -0.05123913   -0.03352554    0.05929915

     Total force =     0.120583     Total SCF correction =     0.000083

     Entering Dynamics:    iteration =     5
                           time      =   0.0242 pico-seconds


     Andersen thermostat:    3 collisions

ATOMIC_POSITIONS (bohr)
H        7.702809634  10.709525338   3.676143512
H       16.796833258  16.758865824  10.312809466
O       10.105785326  11.777122215   0.892207967


     kinetic energy (Ekin) =     0.03308863 Ry
     temperature           =  1741.42490491 K 
     Ekin + Etot (const)   =   -31.55061525 Ry
     Message from routine dynamics:
     Total linear momentum <> 0

     Linear momentum :    0.2555715914    0.0401351917   -0.1541686132

     Writing output data file pwscf.save

     second order wave-functions extrapolation
     Check: negative starting charge=   -0.344708
     second order charge density extrapolation
     Check: negative starting charge=   -0.346310

     negative rho (up, down):  1.545E-01 0.000E+00

     total cpu time spent up to now is        7.4 secs

     per-process dynamical memory:    20.4 Mb

     Self-consistent Calculation

     iteration #  1     ecut=    30.00 Ry     beta=0.70
     Davidson diagonalization with overlap
     ethr =  1.00E-06,  avg # of iterations = 15.0

     negative rho (up, down):  3.646E-02 0.000E+00

     total cpu time spent up to now is        7.5 secs

     total energy              =      -7.19298155 Ry
     Harris-Foulkes estimate   =     -50.49384618 Ry
     estimated scf accuracy    <       8.50677747 Ry

     iteration #  2     ecut=    30.00 Ry     beta=0.70
     Davidson diagonalization with overlap
     ethr =  1.00E-02,  avg # of iterations =  4.0

     negative rho (up, down):  2.499E-02 0.000E+00

     total cpu time spent up to now is        7.5 secs

     total energy              =     -32.89937212 Ry
     Harris-Foulkes estimate   =     -39.33011992 Ry
     estimated scf accuracy    <      13.99454187 Ry

     iteration #  3     ecut=    30.00 Ry     beta=0.70
     Davidson diagonalization with overlap
     ethr =  1.00E-02,  avg # of iterations =  2.0

     negative rho (up, down):  1.681E-02 0.000E+00

     total cpu time spent up to now is        7.5 secs

     total energy              =     -31.88780503 Ry
     Harris-Foulkes estimate   =     -33.39653204 Ry
     estimated scf accuracy    <       4.35555918 Ry

     iteration #  4     ecut=    30.00 Ry     beta=0.70
     Davidson diagonalization with overlap
     ethr =  1.00E-02,  avg # of iterations =  1.0

     negative rho (up, down):  1.309E-02 0.000E+00

     total cpu time spent up to now is        7.6 secs

     total energy              =     -31.80894977 Ry
     Harris-Foulkes estimate   =     -31.97642692 Ry
     estimated scf accuracy    <       1.48306632 Ry

     iteration #  5     ecut=    30.00 Ry     beta=0.70
     Davidson diagonalization with overlap
     ethr =  1.00E-02,  avg # of iterations =  3.0

     negative rho (up, down):  9.140E-03 0.000E+00

     total cpu time spent up to now is        7.6 secs

     total energy              =     -31.78176104 Ry
     Harris-Foulkes estimate   =     -31.83775632 Ry
     estimated scf accuracy    <       0.63712291 Ry

     iteration #  6     ecut=    30.00 Ry     beta=0.70
     Davidson diagonalization with overlap
     ethr =  7.96E-03,  avg # of iterations =  1.0

     negative rho (up, down):  9.659E-04 0.000E+00

     total cpu time spent up to now is        7.6 secs

     total energy              =     -30.98783493 Ry
     Harris-Foulkes estimate   =     -31.86104673 Ry
     estimated scf accuracy    <       1.74871827 Ry

     iteration #  7     ecut=    30.00 Ry     beta=0.70
     Davidson diagonalization with overlap
     ethr =  7.96E-03,  avg # of iterations =  2.0

     negative rho (up, down):  2.013E-03 0.000E+00

     total cpu time spent up to now is        7.7 secs

     total energy              =     -32.34905978 Ry
     Harris-Foulkes estimate   =     -32.70363098 Ry
     estimated scf accuracy    <       4.58407243 Ry

     iteration #  8     ecut=    30.00 Ry     beta=0.70
     Davidson diagonalization with overlap
     ethr =  7.96E-03,  avg # of iterations =  1.0

     negative rho (up, down):  2.426E-03 0.000E+00

     total cpu time spent up to now is        7.7 secs

     total energy              =     -32.26624033 Ry
     Harris-Foulkes estimate   =     -32.36104311 Ry
     estimated scf accuracy    <       3.63712595 Ry

     iteration #  9     ecut=    30.00 Ry     beta=0.70
     Davidson diagonalization with overlap
     ethr =  7.96E-03,  avg # of iterations =  1.0

     negative rho (up, down):  1.587E-03 0.000E+00

     total cpu time spent up to now is        7.7 secs

     total energy              =     -32.53144917 Ry
     Harris-Foulkes estimate   =     -32.26775525 Ry
     estimated scf accuracy    <       3.32539758 Ry

     iteration # 10     ecut=    30.00 Ry     beta=0.70
     Davidson diagonalization with overlap
     ethr =  7.96E-03,  avg # of iterations =  1.0

     negative rho (up, down):  2.185E-04 0.000E+00

     total cpu time spent up to now is        7.8 secs

     total energy              =     -33.39943788 Ry
     Harris-Foulkes estimate   =     -32.53940376 Ry
     estimated scf accuracy    <       4.12718829 Ry

     iteration # 11     ecut=    30.00 Ry     beta=0.70
     Davidson diagonalization with overlap
     ethr =  7.96E-03,  avg # of iterations =  3.0

     negative rho (up, down):  7.504E-02 0.000E+00

     total cpu time spent up to now is        7.8 secs

     total energy              =     -28.99329049 Ry
     Harris-Foulkes estimate   =     -33.60607447 Ry
     estimated scf accuracy    <      14.06602016 Ry

     iteration # 12     ecut=    30.00 Ry     beta=0.70
     Davidson diagonalization with overlap
     ethr =  7.96E-03,  avg # of iterations =  3.0

     negative rho (up, down):  8.604E-02 0.000E+00

     total cpu time spent up to now is        7.8 secs

     total energy              =     -32.66563248 Ry
     Harris-Foulkes estimate   =     -32.28061121 Ry
     estimated scf accuracy    <       2.27024509 Ry

     iteration # 13     ecut=    30.00 Ry     beta=0.70
     Davidson diagonalization with overlap
     ethr =  7.96E-03,  avg # of iterations =  1.0

     negative rho (up, down):  3.478E-02 0.000E+00

     total cpu time spent up to now is        7.9 secs

     total energy              =     -32.51645588 Ry
     Harris-Foulkes estimate   =     -32.67286705 Ry
     estimated scf accuracy    <       3.02120194 Ry

     iteration # 14     ecut=    30.00 Ry     beta=0.70
     Davidson diagonalization with overlap
     ethr =  7.96E-03,  avg # of iterations =  1.0

     negative rho (up, down):  3.634E-03 0.000E+00

     total cpu time spent up to now is        7.9 secs

     total energy              =     -32.27145447 Ry
     Harris-Foulkes estimate   =     -32.51719911 Ry
     estimated scf accuracy    <       2.76191064 Ry

     iteration # 15     ecut=    30.00 Ry     beta=0.70
     Davidson diagonalization with overlap
     ethr =  7.96E-03,  avg # of iterations =  1.0

     negative rho (up, down):  3.433E-04 0.000E+00

     total cpu time spent up to now is        8.0 secs

     total energy              =     -31.65271046 Ry
     Harris-Foulkes estimate   =     -32.27434885 Ry
     estimated scf accuracy    <       2.27602016 Ry

     iteration # 16     ecut=    30.00 Ry     beta=0.70
     Davidson diagonalization with overlap
     ethr =  7.96E-03,  avg # of iterations =  1.0

     negative rho (up, down):  3.933E-03 0.000E+00

     total cpu time spent up to now is        8.0 secs

     total energy              =     -31.83869213 Ry
     Harris-Foulkes estimate   =     -31.67850586 Ry
     estimated scf accuracy    <       0.90485138 Ry

     iteration # 17     ecut=    30.00 Ry     beta=0.70
     Davidson diagonalization with overlap
     ethr =  7.96E-03,  avg # of iterations =  1.0

     negative rho (up, down):  1.270E-04 0.000E+00

     total cpu time spent up to now is        8.0 secs

     total energy              =     -31.30780272 Ry
     Harris-Foulkes estimate   =     -31.84878500 Ry
     estimated scf accuracy    <       1.31230631 Ry

     iteration # 18     ecut=    30.00 Ry     beta=0.70
     Davidson diagonalization with overlap
     ethr =  7.96E-03,  avg # of iterations =  2.0

     negative rho (up, down):  3.798E-07 0.000E+00

     total cpu time spent up to now is        8.0 secs

     total energy              =     -31.83703565 Ry
     Harris-Foulkes estimate   =     -32.14672846 Ry
     estimated scf accuracy    <       2.15113374 Ry

     iteration # 19     ecut=    30.00 Ry     beta=0.70
     Davidson diagonalization with overlap
     ethr =  7.96E-03,  avg # of iterations =  1.0

     negative rho (up, down):  6.513E-08 0.000E+00

     total cpu time spent up to now is        8.1 secs

     total energy              =     -31.77675207 Ry
     Harris-Foulkes estimate   =     -31.84280086 Ry
     estimated scf accuracy    <       1.56590564 Ry

     iteration # 20     ecut=    30.00 Ry     beta=0.70
     Davidson diagonalization with overlap
     ethr =  7.96E-03,  avg # of iterations =  1.0

     negative rho (up, down):  2.038E-04 0.000E+00

     total cpu time spent up to now is        8.1 secs

     total energy              =     -31.42479782 Ry
     Harris-Foulkes estimate   =     -31.77744750 Ry
     estimated scf accuracy    <       1.42906885 Ry

     iteration # 21     ecut=    30.00 Ry     beta=0.70
     Davidson diagonalization with overlap
     ethr =  7.96E-03,  avg # of iterations =  1.0

     negative rho (up, down):  7.270E-05 0.000E+00

     total cpu time spent up to now is        8.1 secs

     total energy              =     -31.84654793 Ry
     Harris-Foulkes estimate   =     -31.86364826 Ry
     estimated scf accuracy    <       1.25901024 Ry

     iteration # 22     ecut=    30.00 Ry     beta=0.70
     Davidson diagonalization with overlap
     ethr =  7.96E-03,  avg # of iterations =  1.0

     negative rho (up, down):  1.105E-05 0.000E+00

     total cpu time spent up to now is        8.2 secs

     total energy              =     -31.90169271 Ry
     Harris-Foulkes estimate   =     -31.84676417 Ry
     estimated scf accuracy    <       1.24194169 Ry

     iteration # 23     ecut=    30.00 Ry     beta=0.70
     Davidson diagonalization with overlap
     ethr =  7.96E-03,  avg # of iterations =  1.0

     negative rho (up, down):  1.740E-05 0.000E+00

     total cpu time spent up to now is        8.2 secs

     total energy              =     -31.87639982 Ry
     Harris-Foulkes estimate   =     -31.90180673 Ry
     estimated scf accuracy    <       1.33176028 Ry

     iteration # 24     ecut=    30.00 Ry     beta=0.70
     Davidson diagonalization with overlap
     ethr =  7.96E-03,  avg # of iterations =  1.0

     negative rho (up, down):  1.688E-04 0.000E+00

     total cpu time spent up to now is        8.2 secs

     total energy              =     -31.90260863 Ry
     Harris-Foulkes estimate   =     -31.87641945 Ry
     estimated scf accuracy    <       1.29243804 Ry

     iteration # 25     ecut=    30.00 Ry     beta=0.70
     Davidson diagonalization with overlap
     ethr =  7.96E-03,  avg # of iterations =  1.0

     negative rho (up, down):  9.018E-07 0.000E+00

     total cpu time spent up to now is        8.3 secs

     total energy              =     -31.60789652 Ry
     Harris-Foulkes estimate   =     -31.90265674 Ry
     estimated scf accuracy    <       1.33574256 Ry

     iteration # 26     ecut=    30.00 Ry     beta=0.70
     Davidson diagonalization with overlap
     ethr =  7.96E-03,  avg # of iterations =  1.0

     negative rho (up, down):  1.892E-08 0.000E+00

     total cpu time spent up to now is        8.3 secs

     total energy              =     -31.53582884 Ry
     Harris-Foulkes estimate   =     -31.67649279 Ry
     estimated scf accuracy    <       1.30987642 Ry

     iteration # 27     ecut=    30.00 Ry     beta=0.70
     Davidson diagonalization with overlap
     ethr =  7.96E-03,  avg # of iterations =  1.0

     negative rho (up, down):  2.414E-07 0.000E+00

     total cpu time spent up to now is        8.3 secs

     total energy              =     -31.77150772 Ry
     Harris-Foulkes estimate   =     -31.73777411 Ry
     estimated scf accuracy    <       1.04215519 Ry

     iteration # 28     ecut=    30.00 Ry     beta=0.70
     Davidson diagonalization with overlap
     ethr =  7.96E-03,  avg # of iterations =  1.0

     negative rho (up, down):  9.688E-08 0.000E+00

[...]
     Harris-Foulkes estimate   =    -687.90450626 Ry
     estimated scf accuracy    <      34.77477499 Ry

     iteration # 59     ecut=    30.00 Ry     beta=0.70
     Davidson diagonalization with overlap
     ethr =  1.00E-02,  avg # of iterations =  6.0

     negative rho (up, down):  2.132E-01 0.000E+00

     total cpu time spent up to now is       12.4 secs

     total energy              =    -363.14751070 Ry
     Harris-Foulkes estimate   =    -680.11744540 Ry
     estimated scf accuracy    <      18.57737837 Ry

     iteration # 60     ecut=    30.00 Ry     beta=0.70
     Davidson diagonalization with overlap
     ethr =  1.00E-02,  avg # of iterations =  4.0

     negative rho (up, down):  2.771E-01 0.000E+00

     total cpu time spent up to now is       12.4 secs

     total energy              =      30.37354159 Ry
     Harris-Foulkes estimate   =   -1207.84356629 Ry
     estimated scf accuracy    <      27.73531894 Ry

     iteration # 61     ecut=    30.00 Ry     beta=0.70
     Davidson diagonalization with overlap
     ethr =  1.00E-02,  avg # of iterations =  7.0

     negative rho (up, down):  4.193E-01 0.000E+00

     total cpu time spent up to now is       12.5 secs

     total energy              =    -138.20492475 Ry
     Harris-Foulkes estimate   =     -55.72731236 Ry
     estimated scf accuracy    <      12.97656433 Ry

     iteration # 62     ecut=    30.00 Ry     beta=0.70
     Davidson diagonalization with overlap
     ethr =  1.00E-02,  avg # of iterations =  4.0

     negative rho (up, down):  6.387E-02 0.000E+00

     total cpu time spent up to now is       12.5 secs

     total energy              =      95.35566834 Ry
     Harris-Foulkes estimate   =   -1607.32112597 Ry
     estimated scf accuracy    <      35.99509607 Ry

     iteration # 63     ecut=    30.00 Ry     beta=0.70
     Davidson diagonalization with overlap
     ethr =  1.00E-02,  avg # of iterations =  5.0

     negative rho (up, down):  1.665E-01 0.000E+00

     total cpu time spent up to now is       12.6 secs

     total energy              =      50.40613620 Ry
     Harris-Foulkes estimate   =    -251.70031488 Ry
     estimated scf accuracy    <      30.48812191 Ry

     iteration # 64     ecut=    30.00 Ry     beta=0.70
     Davidson diagonalization with overlap
     ethr =  1.00E-02,  avg # of iterations =  8.0

     negative rho (up, down):  2.177E-01 0.000E+00

     total cpu time spent up to now is       12.6 secs

     total energy              =     281.53992555 Ry
     Harris-Foulkes estimate   =    -302.00043972 Ry
     estimated scf accuracy    <      41.41404454 Ry

     iteration # 65     ecut=    30.00 Ry     beta=0.70
     Davidson diagonalization with overlap
     ethr =  1.00E-02,  avg # of iterations =  5.0

     negative rho (up, down):  3.859E-01 0.000E+00

     total cpu time spent up to now is       12.7 secs

     total energy              =      23.76850865 Ry
     Harris-Foulkes estimate   =    -575.36776728 Ry
     estimated scf accuracy    <      30.83035155 Ry

     iteration # 66     ecut=    30.00 Ry     beta=0.70
     Davidson diagonalization with overlap
     ethr =  1.00E-02,  avg # of iterations =  7.0

     negative rho (up, down):  7.691E-01 0.000E+00

     total cpu time spent up to now is       12.7 secs

     total energy              =      -4.52802399 Ry
     Harris-Foulkes estimate   =  -13098.70346472 Ry
     estimated scf accuracy    <      35.45287003 Ry

     iteration # 67     ecut=    30.00 Ry     beta=0.70
     Davidson diagonalization with overlap
     ethr =  1.00E-02,  avg # of iterations =  8.0

     negative rho (up, down):  7.036E-01 0.000E+00

     total cpu time spent up to now is       12.8 secs

     total energy              =      72.57374217 Ry
     Harris-Foulkes estimate   =    -299.15775555 Ry
     estimated scf accuracy    <      31.87325857 Ry

     iteration # 68     ecut=    30.00 Ry     beta=0.70
     Davidson diagonalization with overlap
     ethr =  1.00E-02,  avg # of iterations =  7.0

     negative rho (up, down):  5.972E-01 0.000E+00

     total cpu time spent up to now is       12.8 secs

     total energy              =      45.33269060 Ry
     Harris-Foulkes estimate   =    -513.77555552 Ry
     estimated scf accuracy    <      26.77955980 Ry

     iteration # 69     ecut=    30.00 Ry     beta=0.70
     Davidson diagonalization with overlap
     ethr =  1.00E-02,  avg # of iterations =  7.0

     negative rho (up, down):  3.277E-01 0.000E+00

     total cpu time spent up to now is       12.9 secs

     total energy              =      17.61320557 Ry
     Harris-Foulkes estimate   =   -1910.42124861 Ry
     estimated scf accuracy    <      37.32725404 Ry

     iteration # 70     ecut=    30.00 Ry     beta=0.70
     Davidson diagonalization with overlap
     ethr =  1.00E-02,  avg # of iterations =  8.0

     negative rho (up, down):  1.571E-01 0.000E+00

     total cpu time spent up to now is       13.0 secs

     total energy              =     109.49803156 Ry
     Harris-Foulkes estimate   =   -1464.85388052 Ry
     estimated scf accuracy    <      24.14886875 Ry

     iteration # 71     ecut=    30.00 Ry     beta=0.70
     Davidson diagonalization with overlap
     ethr =  1.00E-02,  avg # of iterations =  9.0

     negative rho (up, down):  3.672E-02 0.000E+00

     total cpu time spent up to now is       13.1 secs

     total energy              =     -10.51369603 Ry
     Harris-Foulkes estimate   =     -70.03291224 Ry
     estimated scf accuracy    <      21.70887650 Ry

     iteration # 72     ecut=    30.00 Ry     beta=0.70
     Davidson diagonalization with overlap
     ethr =  1.00E-02,  avg # of iterations =  9.0

     negative rho (up, down):  6.510E-02 0.000E+00

     total cpu time spent up to now is       13.2 secs

     total energy              =     -11.23207344 Ry
     Harris-Foulkes estimate   =    -612.51531036 Ry
     estimated scf accuracy    <      19.53099118 Ry

     iteration # 73     ecut=    30.00 Ry     beta=0.70
     Davidson diagonalization with overlap
     ethr =  1.00E-02,  avg # of iterations =  7.0

     negative rho (up, down):  8.422E-02 0.000E+00

     total cpu time spent up to now is       13.3 secs

     total energy              =      98.67893539 Ry
     Harris-Foulkes estimate   =    -747.13850794 Ry
     estimated scf accuracy    <      29.91361129 Ry

     iteration # 74     ecut=    30.00 Ry     beta=0.70
     Davidson diagonalization with overlap
     ethr =  1.00E-02,  avg # of iterations = 11.0

     negative rho (up, down):  9.604E-02 0.000E+00

     total cpu time spent up to now is       13.4 secs

     total energy              =     -19.30059301 Ry
     Harris-Foulkes estimate   =     -80.64857691 Ry
     estimated scf accuracy    <      21.81269675 Ry

     iteration # 75     ecut=    30.00 Ry     beta=0.70
     Davidson diagonalization with overlap
     ethr =  1.00E-02,  avg # of iterations =  6.0

     negative rho (up, down):  1.099E-01 0.000E+00

     total cpu time spent up to now is       13.4 secs

     total energy              =     -42.64448818 Ry
     Harris-Foulkes estimate   =     -53.92969858 Ry
     estimated scf accuracy    <      17.16228872 Ry

     iteration # 76     ecut=    30.00 Ry     beta=0.70
     Davidson diagonalization with overlap
     ethr =  1.00E-02,  avg # of iterations =  6.0

     negative rho (up, down):  4.296E-02 0.000E+00

     total cpu time spent up to now is       13.5 secs

     total energy              =      34.73322746 Ry
     Harris-Foulkes estimate   =    -225.58664699 Ry
     estimated scf accuracy    <      32.24400013 Ry

     iteration # 77     ecut=    30.00 Ry     beta=0.70
     Davidson diagonalization with overlap
     ethr =  1.00E-02,  avg # of iterations = 10.0

     negative rho (up, down):  2.637E-02 0.000E+00

     total cpu time spent up to now is       13.6 secs

     total energy              =     -16.27470902 Ry
     Harris-Foulkes estimate   =    -154.25502829 Ry
     estimated scf accuracy    <      22.45450350 Ry

     iteration # 78     ecut=    30.00 Ry     beta=0.70
     Davidson diagonalization with overlap
     ethr =  1.00E-02,  avg # of iterations =  5.0

     negative rho (up, down):  1.036E-02 0.000E+00

     total cpu time spent up to now is       13.7 secs

     total energy              =       2.19412521 Ry
     Harris-Foulkes estimate   =     -84.36592883 Ry
     estimated scf accuracy    <      12.07689900 Ry

     iteration # 79     ecut=    30.00 Ry     beta=0.70
     Davidson diagonalization with overlap
     ethr =  1.00E-02,  avg # of iterations =  6.0

     negative rho (up, down):  7.690E-02 0.000E+00

     total cpu time spent up to now is       13.7 secs

     total energy              =    -149.15929576 Ry
     Harris-Foulkes estimate   =     -73.30521876 Ry
     estimated scf accuracy    <      20.22260104 Ry

     iteration # 80     ecut=    30.00 Ry     beta=0.70
     Davidson diagonalization with overlap
     ethr =  1.00E-02,  avg # of iterations =  3.0

     negative rho (up, down):  1.980E-01 0.000E+00

     total cpu time spent up to now is       13.8 secs

     total energy              =     -33.21712088 Ry
     Harris-Foulkes estimate   =    -949.82094865 Ry
     estimated scf accuracy    <      17.52060533 Ry

     iteration # 81     ecut=    30.00 Ry     beta=0.70
     Davidson diagonalization with overlap
     ethr =  1.00E-02,  avg # of iterations =  6.0

     negative rho (up, down):  2.334E-01 0.000E+00

     total cpu time spent up to now is       13.9 secs

     total energy              =      35.66876003 Ry
     Harris-Foulkes estimate   =   -2325.21316463 Ry
     estimated scf accuracy    <      27.46835993 Ry

     iteration # 82     ecut=    30.00 Ry     beta=0.70
     Davidson diagonalization with overlap
     ethr =  1.00E-02,  avg # of iterations =  9.0

     negative rho (up, down):  3.087E-01 0.000E+00

     total cpu time spent up to now is       14.0 secs

     total energy              =   -8464.13349761 Ry
     Harris-Foulkes estimate   =    -422.01398781 Ry
     estimated scf accuracy    <      23.31190052 Ry

     iteration # 83     ecut=    30.00 Ry     beta=0.70
     Davidson diagonalization with overlap
     ethr =  1.00E-02,  avg # of iterations =  8.0

     negative rho (up, down):  3.614E-01 0.000E+00

     total cpu time spent up to now is       14.1 secs

     total energy              =    -125.14615552 Ry
     Harris-Foulkes estimate   =  -21461.14553348 Ry
     estimated scf accuracy    <      23.01356841 Ry

     iteration # 84     ecut=    30.00 Ry     beta=0.70
     Davidson diagonalization with overlap
     ethr =  1.00E-02,  avg # of iterations =  9.0

     negative rho (up, down):  2.628E-01 0.000E+00

     total cpu time spent up to now is       14.1 secs

     total energy              =      55.10718107 Ry
     Harris-Foulkes estimate   =   -1072.60615921 Ry
     estimated scf accuracy    <      15.16916698 Ry

     iteration # 85     ecut=    30.00 Ry     beta=0.70
     Davidson diagonalization with overlap
     ethr =  1.00E-02,  avg # of iterations =  7.0

     negative rho (up, down):  1.189E-01 0.000E+00

     total cpu time spent up to now is       14.2 secs

     total energy              =     -20.11554064 Ry
     Harris-Foulkes estimate   =     -59.09156724 Ry
     estimated scf accuracy    <      13.34659904 Ry

     iteration # 86     ecut=    30.00 Ry     beta=0.70
     Davidson diagonalization with overlap
     ethr =  1.00E-02,  avg # of iterations =  4.0

     negative rho (up, down):  1.017E-01 0.000E+00

     total cpu time spent up to now is       14.2 secs

     total energy              =       5.85276698 Ry
     Harris-Foulkes estimate   =    -464.50730704 Ry
     estimated scf accuracy    <      11.55817202 Ry

     iteration # 87     ecut=    30.00 Ry     beta=0.70
     Davidson diagonalization with overlap
     ethr =  1.00E-02,  avg # of iterations =  5.0

     negative rho (up, down):  1.167E-01 0.000E+00

     total cpu time spent up to now is       14.3 secs

     total energy              =      95.78242492 Ry
     Harris-Foulkes estimate   =   -3600.20483284 Ry
     estimated scf accuracy    <      26.11275008 Ry

     iteration # 88     ecut=    30.00 Ry     beta=0.70
     Davidson diagonalization with overlap
     ethr =  1.00E-02,  avg # of iterations =  8.0

     negative rho (up, down):  1.172E-01 0.000E+00

     total cpu time spent up to now is       14.3 secs

     total energy              =      15.85114375 Ry
     Harris-Foulkes estimate   =     -94.30612220 Ry
     estimated scf accuracy    <      11.02572691 Ry

     iteration # 89     ecut=    30.00 Ry     beta=0.70
     Davidson diagonalization with overlap
     ethr =  1.00E-02,  avg # of iterations =  8.0

     negative rho (up, down):  8.590E-02 0.000E+00

     total cpu time spent up to now is       14.4 secs

     total energy              =    2043.04876524 Ry
     Harris-Foulkes estimate   =    -126.82186560 Ry
     estimated scf accuracy    <      21.51641872 Ry

     iteration # 90     ecut=    30.00 Ry     beta=0.70
     Davidson diagonalization with overlap
     ethr =  1.00E-02,  avg # of iterations = 10.0

     negative rho (up, down):  1.238E-01 0.000E+00

     total cpu time spent up to now is       14.4 secs

     total energy              =      41.05310617 Ry
     Harris-Foulkes estimate   =    -906.64105010 Ry
     estimated scf accuracy    <      17.57566016 Ry

     iteration # 91     ecut=    30.00 Ry     beta=0.70
     Davidson diagonalization with overlap
     ethr =  1.00E-02,  avg # of iterations =  5.0

     negative rho (up, down):  1.856E-04 0.000E+00

     total cpu time spent up to now is       14.5 secs

     total energy              =     117.49709661 Ry
     Harris-Foulkes estimate   =    -739.65266899 Ry
     estimated scf accuracy    <      29.35949123 Ry

     iteration # 92     ecut=    30.00 Ry     beta=0.70
     Davidson diagonalization with overlap
     ethr =  1.00E-02,  avg # of iterations =  9.0

     negative rho (up, down):  1.164E-04 0.000E+00

     total cpu time spent up to now is       14.5 secs

     total energy              =     -40.86299336 Ry
     Harris-Foulkes estimate   =     -43.77370588 Ry
     estimated scf accuracy    <      21.44583906 Ry

     iteration # 93     ecut=    30.00 Ry     beta=0.70
     Davidson diagonalization with overlap
     ethr =  1.00E-02,  avg # of iterations =  1.0

     negative rho (up, down):  1.056E-01 0.000E+00

     total cpu time spent up to now is       14.6 secs

     total energy              =     -41.99303705 Ry
     Harris-Foulkes estimate   =     -40.89971261 Ry
     estimated scf accuracy    <      17.14783490 Ry

     iteration # 94     ecut=    30.00 Ry     beta=0.70
     Davidson diagonalization with overlap
     ethr =  1.00E-02,  avg # of iterations =  8.0

     negative rho (up, down):  2.300E-03 0.000E+00

     total cpu time spent up to now is       14.6 secs

     total energy              =      63.40332427 Ry
     Harris-Foulkes estimate   =    -742.36312773 Ry
     estimated scf accuracy    <      31.33938600 Ry

     iteration # 95     ecut=    30.00 Ry     beta=0.70
     Davidson diagonalization with overlap
     ethr =  1.00E-02,  avg # of iterations =  7.0

     negative rho (up, down):  2.057E-03 0.000E+00

     total cpu time spent up to now is       14.7 secs

     total energy              =     -36.12940489 Ry
     Harris-Foulkes estimate   =     -36.53087967 Ry
     estimated scf accuracy    <       9.84957927 Ry

     iteration # 96     ecut=    30.00 Ry     beta=0.70
     Davidson diagonalization with overlap
     ethr =  1.00E-02,  avg # of iterations =  1.0

     negative rho (up, down):  1.250E-02 0.000E+00

     total cpu time spent up to now is       14.7 secs

     total energy              =     -34.10733805 Ry
     Harris-Foulkes estimate   =     -36.16988377 Ry
     estimated scf accuracy    <       8.56887299 Ry

     iteration # 97     ecut=    30.00 Ry     beta=0.70
     Davidson diagonalization with overlap
     ethr =  1.00E-02,  avg # of iterations =  2.0

     negative rho (up, down):  5.182E-02 0.000E+00

     total cpu time spent up to now is       14.8 secs

     total energy              =     -34.80593099 Ry
     Harris-Foulkes estimate   =     -36.13446694 Ry
     estimated scf accuracy    <      10.18049911 Ry

     iteration # 98     ecut=    30.00 Ry     beta=0.70
     Davidson diagonalization with overlap
     ethr =  1.00E-02,  avg # of iterations =  7.0

     negative rho (up, down):  6.793E-02 0.000E+00

     total cpu time spent up to now is       14.8 secs

     total energy              =      29.43691842 Ry
     Harris-Foulkes estimate   =    -142.38578365 Ry
     estimated scf accuracy    <      22.96569082 Ry

     iteration # 99     ecut=    30.00 Ry     beta=0.70
     Davidson diagonalization with overlap
     ethr =  1.00E-02,  avg # of iterations =  5.0

     negative rho (up, down):  2.960E-02 0.000E+00

     total cpu time spent up to now is       14.9 secs

     total energy              =       6.70469760 Ry
     Harris-Foulkes estimate   =     -51.33190622 Ry
     estimated scf accuracy    <      10.22127319 Ry

     iteration #100     ecut=    30.00 Ry     beta=0.70
     Davidson diagonalization with overlap
     ethr =  1.00E-02,  avg # of iterations =  6.0

     negative rho (up, down):  1.324E-02 0.000E+00

     total cpu time spent up to now is       14.9 secs

     total energy              =     -32.29921497 Ry
     Harris-Foulkes estimate   =     -34.02372035 Ry
     estimated scf accuracy    <       6.03164010 Ry

     End of self-consistent calculation

     convergence NOT achieved after 100 iterations: stopping

     Writing output data file pwscf.save
 
     init_run     :      0.09s CPU      0.11s WALL (       1 calls)
     electrons    :      9.81s CPU     12.85s WALL (       7 calls)
     update_pot   :      0.73s CPU      1.06s WALL (       6 calls)
     forces       :      0.16s CPU      0.17s WALL (       6 calls)

     Called by init_run:
     wfcinit      :      0.01s CPU      0.02s WALL (       1 calls)
     potinit      :      0.02s CPU      0.03s WALL (       1 calls)

     Called by electrons:
     c_bands      :      4.81s CPU      5.42s WALL (     281 calls)
     sum_band     :      0.82s CPU      0.94s WALL (     281 calls)
     v_of_rho     :      2.06s CPU      2.33s WALL (     288 calls)
     mix_rho      :      1.84s CPU      3.35s WALL (     281 calls)

     Called by c_bands:
     init_us_2    :      0.03s CPU      0.03s WALL (     563 calls)
     cegterg      :      4.74s CPU      5.26s WALL (     281 calls)

     Called by sum_band:

     Called by *egterg:
     h_psi        :      4.00s CPU      4.44s WALL (    1360 calls)
     g_psi        :      0.04s CPU      0.04s WALL (    1078 calls)
     cdiaghg      :      0.27s CPU      0.29s WALL (    1353 calls)

     Called by h_psi:
     h_psi:pot    :      3.98s CPU      4.42s WALL (    1360 calls)
     h_psi:calbec :      0.14s CPU      0.25s WALL (    1360 calls)
     vloc_psi     :      3.82s CPU      4.14s WALL (    1360 calls)
     add_vuspsi   :      0.01s CPU      0.01s WALL (    1360 calls)

     General routines
     calbec       :      0.19s CPU      0.32s WALL (    1389 calls)
     fft          :      1.31s CPU      1.45s WALL (    3180 calls)
     fftw         :      3.97s CPU      4.38s WALL (   17380 calls)
     davcio       :      0.32s CPU      1.22s WALL (    5010 calls)
 
     Parallel routines
     fft_scatter  :      2.15s CPU      2.58s WALL (   20560 calls)
 
     PWSCF        :    11.06s CPU        15.00s WALL

 
   This run was terminated on:   2:57: 0  11Feb2018            

=------------------------------------------------------------------------------=
   JOB DONE.
=------------------------------------------------------------------------------=
