
     Program PWSCF v.6.0 (svn rev. 13079) starts on 11Feb2018 at  2:59:10 

     This program is part of the open-source Quantum ESPRESSO suite
     for quantum simulation of materials; please cite
         "P. Giannozzi et al., J. Phys.:Condens. Matter 21 395502 (2009);
          URL http://www.quantum-espresso.org", 
     in publications or presentations arising from this work. More details at
     http://www.quantum-espresso.org/quote

     Parallel version (MPI), running on    28 processors
     R & G space division:  proc/nbgrp/npool/nimage =      28
     Reading input from inputs/water-1-md/584.in

     Current dimensions of program PWSCF are:
     Max number of different atomic species (ntypx) = 10
     Max number of k-points (npk) =  40000
     Max angular momentum in pseudopotentials (lmaxx) =  3

     Subspace diagonalization in iterative solution of the eigenvalue problem:
     a serial algorithm will be used

 
     Parallelization info
     --------------------
     sticks:   dense  smooth     PW     G-vecs:    dense   smooth      PW
     Min         136     136     33                 6338     6338     787
     Max         137     137     34                 6341     6341     792
     Sum        3809    3809    949               177509   177509   22119
 


     bravais-lattice index     =            1
     lattice parameter (alat)  =      20.0000  a.u.
     unit-cell volume          =    8000.0000 (a.u.)^3
     number of atoms/cell      =            3
     number of atomic types    =            2
     number of electrons       =         8.00
     number of Kohn-Sham states=            8
     kinetic-energy cutoff     =      30.0000  Ry
     charge density cutoff     =     120.0000  Ry
     convergence threshold     =      1.0E-08
     mixing beta               =       0.7000
     number of iterations used =            8  plain     mixing
     Exchange-correlation      = BLYP ( 1  3  1  3 0 0)
     nstep                     =         5000


     celldm(1)=  20.000000  celldm(2)=   0.000000  celldm(3)=   0.000000
     celldm(4)=   0.000000  celldm(5)=   0.000000  celldm(6)=   0.000000

     crystal axes: (cart. coord. in units of alat)
               a(1) = (   1.000000   0.000000   0.000000 )  
               a(2) = (   0.000000   1.000000   0.000000 )  
               a(3) = (   0.000000   0.000000   1.000000 )  

     reciprocal axes: (cart. coord. in units 2 pi/alat)
               b(1) = (  1.000000  0.000000  0.000000 )  
               b(2) = (  0.000000  1.000000  0.000000 )  
               b(3) = (  0.000000  0.000000  1.000000 )  


     PseudoPot. # 1 for  H read from file:
     ./H.blyp-hgh.UPF
     MD5 check sum: c576e69559cde411e611be972c763230
     Pseudo is Norm-conserving, Zval =  1.0
     Generated in analytical, separable form
     Using radial grid of  929 points,  0 beta functions with: 

     PseudoPot. # 2 for  O read from file:
     ./O.blyp-hgh.UPF
     MD5 check sum: d0b7156309aa9befef28faac7bc56342
     Pseudo is Norm-conserving, Zval =  6.0
     Generated in analytical, separable form
     Using radial grid of 1095 points,  1 beta functions with: 
                l(1) =   0

     atomic species   valence    mass     pseudopotential
        H              1.00     1.01000      H( 1.00)
        O              6.00    16.00000      O( 1.00)

     No symmetry found



   Cartesian axes

     site n.     atom                  positions (alat units)
         1           H   tau(   1) = (   0.9157365   0.7377508   0.8225930  )
         2           H   tau(   2) = (   0.4852022   0.0314627   0.2725205  )
         3           O   tau(   3) = (   0.1865209   0.3206695   0.2976341  )

     number of k points=     1  Marzari-Vanderbilt smearing, width (Ry)=  0.0250
                       cart. coord. in units 2pi/alat
        k(    1) = (   0.0000000   0.0000000   0.0000000), wk =   2.0000000

     Dense  grid:   177509 G-vectors     FFT dimensions: (  72,  72,  72)

     Estimated max dynamical RAM per process >       6.09Mb

     Estimated total allocated dynamical RAM >     170.64Mb

     Initial potential from superposition of free atoms
     Check: negative starting charge=   -0.348654

     starting charge    7.99998, renormalised to    8.00000

     negative rho (up, down):  3.487E-01 0.000E+00
     Starting wfc are    6 randomized atomic wfcs +    2 random wfc

     total cpu time spent up to now is        0.3 secs

     per-process dynamical memory:    18.8 Mb

     Self-consistent Calculation

     iteration #  1     ecut=    30.00 Ry     beta=0.70
     Davidson diagonalization with overlap
     ethr =  1.00E-02,  avg # of iterations =  7.0

     negative rho (up, down):  8.391E-02 0.000E+00

     total cpu time spent up to now is        0.3 secs

     total energy              =     -28.12392329 Ry
     Harris-Foulkes estimate   =     -32.07830709 Ry
     estimated scf accuracy    <       4.54346468 Ry

     iteration #  2     ecut=    30.00 Ry     beta=0.70
     Davidson diagonalization with overlap
     ethr =  1.00E-02,  avg # of iterations =  4.0

     negative rho (up, down):  6.146E-02 0.000E+00

     total cpu time spent up to now is        0.4 secs

     total energy              =     -32.62311595 Ry
     Harris-Foulkes estimate   =     -37.85636650 Ry
     estimated scf accuracy    <      12.76815342 Ry

     iteration #  3     ecut=    30.00 Ry     beta=0.70
     Davidson diagonalization with overlap
     ethr =  1.00E-02,  avg # of iterations =  4.0

     negative rho (up, down):  6.343E-02 0.000E+00

     total cpu time spent up to now is        0.4 secs

     total energy              =     -33.16934074 Ry
     Harris-Foulkes estimate   =     -32.96224747 Ry
     estimated scf accuracy    <       4.92082156 Ry

     iteration #  4     ecut=    30.00 Ry     beta=0.70
     Davidson diagonalization with overlap
     ethr =  1.00E-02,  avg # of iterations =  1.0

     negative rho (up, down):  2.526E-02 0.000E+00

     total cpu time spent up to now is        0.4 secs

     total energy              =     -30.22620202 Ry
     Harris-Foulkes estimate   =     -33.16993148 Ry
     estimated scf accuracy    <       5.22809072 Ry

     iteration #  5     ecut=    30.00 Ry     beta=0.70
     Davidson diagonalization with overlap
     ethr =  1.00E-02,  avg # of iterations =  7.0

     negative rho (up, down):  2.168E-02 0.000E+00

     total cpu time spent up to now is        0.5 secs

     total energy              =     -33.19377676 Ry
     Harris-Foulkes estimate   =     -33.26320103 Ry
     estimated scf accuracy    <      13.71023531 Ry

     iteration #  6     ecut=    30.00 Ry     beta=0.70
     Davidson diagonalization with overlap
     ethr =  1.00E-02,  avg # of iterations =  1.0

     negative rho (up, down):  6.614E-02 0.000E+00

     total cpu time spent up to now is        0.5 secs

     total energy              =     -32.76325759 Ry
     Harris-Foulkes estimate   =     -33.19744924 Ry
     estimated scf accuracy    <      13.38518773 Ry

     iteration #  7     ecut=    30.00 Ry     beta=0.70
     Davidson diagonalization with overlap
     ethr =  1.00E-02,  avg # of iterations =  1.0

     negative rho (up, down):  4.239E-03 0.000E+00

     total cpu time spent up to now is        0.5 secs

     total energy              =     -32.62885534 Ry
     Harris-Foulkes estimate   =     -32.86615073 Ry
     estimated scf accuracy    <       5.98568500 Ry

     iteration #  8     ecut=    30.00 Ry     beta=0.70
     Davidson diagonalization with overlap
     ethr =  1.00E-02,  avg # of iterations =  1.0

     negative rho (up, down):  1.621E-02 0.000E+00

     total cpu time spent up to now is        0.6 secs

     total energy              =     -31.63357370 Ry
     Harris-Foulkes estimate   =     -32.63315339 Ry
     estimated scf accuracy    <       5.49941949 Ry

     iteration #  9     ecut=    30.00 Ry     beta=0.70
     Davidson diagonalization with overlap
     ethr =  1.00E-02,  avg # of iterations =  2.0

     negative rho (up, down):  2.333E-02 0.000E+00

     total cpu time spent up to now is        0.6 secs

     total energy              =     -31.50595813 Ry
     Harris-Foulkes estimate   =     -31.66726479 Ry
     estimated scf accuracy    <       3.82996097 Ry

     iteration # 10     ecut=    30.00 Ry     beta=0.70
     Davidson diagonalization with overlap
     ethr =  1.00E-02,  avg # of iterations =  1.0

     negative rho (up, down):  2.536E-02 0.000E+00

     total cpu time spent up to now is        0.6 secs

     total energy              =     -31.57551314 Ry
     Harris-Foulkes estimate   =     -31.50514509 Ry
     estimated scf accuracy    <       1.66373046 Ry

     iteration # 11     ecut=    30.00 Ry     beta=0.70
     Davidson diagonalization with overlap
     ethr =  1.00E-02,  avg # of iterations =  1.0

     negative rho (up, down):  5.471E-02 0.000E+00

     total cpu time spent up to now is        0.7 secs

     total energy              =     -31.47806453 Ry
     Harris-Foulkes estimate   =     -31.61367130 Ry
     estimated scf accuracy    <       3.94085676 Ry

     iteration # 12     ecut=    30.00 Ry     beta=0.70
     Davidson diagonalization with overlap
     ethr =  1.00E-02,  avg # of iterations =  1.0

     negative rho (up, down):  3.648E-02 0.000E+00

     total cpu time spent up to now is        0.7 secs

     total energy              =     -31.26090215 Ry
     Harris-Foulkes estimate   =     -31.48779978 Ry
     estimated scf accuracy    <       0.71444065 Ry

     iteration # 13     ecut=    30.00 Ry     beta=0.70
     Davidson diagonalization with overlap
     ethr =  8.93E-03,  avg # of iterations =  1.0

     negative rho (up, down):  7.387E-02 0.000E+00

     total cpu time spent up to now is        0.7 secs

     total energy              =     -31.48065968 Ry
     Harris-Foulkes estimate   =     -31.98384299 Ry
     estimated scf accuracy    <       3.36485540 Ry

     iteration # 14     ecut=    30.00 Ry     beta=0.70
     Davidson diagonalization with overlap
     ethr =  8.93E-03,  avg # of iterations =  1.0

     negative rho (up, down):  2.010E-02 0.000E+00

     total cpu time spent up to now is        0.8 secs

     total energy              =     -31.37150940 Ry
     Harris-Foulkes estimate   =     -31.49656328 Ry
     estimated scf accuracy    <       0.98892454 Ry

     iteration # 15     ecut=    30.00 Ry     beta=0.70
     Davidson diagonalization with overlap
     ethr =  8.93E-03,  avg # of iterations =  1.0

     negative rho (up, down):  1.345E-05 0.000E+00

     total cpu time spent up to now is        0.8 secs

     total energy              =     -31.59629676 Ry
     Harris-Foulkes estimate   =     -31.68502552 Ry
     estimated scf accuracy    <       3.80569220 Ry

     iteration # 16     ecut=    30.00 Ry     beta=0.70
     Davidson diagonalization with overlap
     ethr =  8.93E-03,  avg # of iterations =  1.0

     negative rho (up, down):  2.106E-03 0.000E+00

     total cpu time spent up to now is        0.8 secs

     total energy              =     -31.41879634 Ry
     Harris-Foulkes estimate   =     -31.59477627 Ry
     estimated scf accuracy    <       4.32377875 Ry

     iteration # 17     ecut=    30.00 Ry     beta=0.70
     Davidson diagonalization with overlap
     ethr =  8.93E-03,  avg # of iterations =  1.0

     negative rho (up, down):  2.951E-04 0.000E+00

     total cpu time spent up to now is        0.9 secs

     total energy              =     -31.49994493 Ry
     Harris-Foulkes estimate   =     -31.49864013 Ry
     estimated scf accuracy    <       0.59478068 Ry

     iteration # 18     ecut=    30.00 Ry     beta=0.70
     Davidson diagonalization with overlap
     ethr =  7.43E-03,  avg # of iterations =  1.0

     negative rho (up, down):  1.310E-03 0.000E+00

     total cpu time spent up to now is        0.9 secs

     total energy              =     -31.47440425 Ry
     Harris-Foulkes estimate   =     -31.50008046 Ry
     estimated scf accuracy    <       0.70820373 Ry

     iteration # 19     ecut=    30.00 Ry     beta=0.70
     Davidson diagonalization with overlap
     ethr =  7.43E-03,  avg # of iterations =  1.0

     negative rho (up, down):  8.468E-04 0.000E+00

     total cpu time spent up to now is        0.9 secs

     total energy              =     -31.48723575 Ry
     Harris-Foulkes estimate   =     -31.49720349 Ry
     estimated scf accuracy    <       0.58649406 Ry

     iteration # 20     ecut=    30.00 Ry     beta=0.70
     Davidson diagonalization with overlap
     ethr =  7.33E-03,  avg # of iterations =  1.0

     negative rho (up, down):  5.470E-04 0.000E+00

     total cpu time spent up to now is        1.0 secs

     total energy              =     -31.49207221 Ry
     Harris-Foulkes estimate   =     -31.49239283 Ry
     estimated scf accuracy    <       0.06087916 Ry

     iteration # 21     ecut=    30.00 Ry     beta=0.70
     Davidson diagonalization with overlap
     ethr =  7.61E-04,  avg # of iterations =  1.0

     negative rho (up, down):  7.734E-04 0.000E+00

     total cpu time spent up to now is        1.0 secs

     total energy              =     -31.50883967 Ry
     Harris-Foulkes estimate   =     -31.51539583 Ry
     estimated scf accuracy    <       2.27740055 Ry

     iteration # 22     ecut=    30.00 Ry     beta=0.70
     Davidson diagonalization with overlap
     ethr =  7.61E-04,  avg # of iterations =  1.0

     negative rho (up, down):  3.245E-04 0.000E+00

     total cpu time spent up to now is        1.0 secs

     total energy              =     -31.49660881 Ry
     Harris-Foulkes estimate   =     -31.50925856 Ry
     estimated scf accuracy    <       1.74877787 Ry

     iteration # 23     ecut=    30.00 Ry     beta=0.70
     Davidson diagonalization with overlap
     ethr =  7.61E-04,  avg # of iterations =  1.0

     negative rho (up, down):  4.812E-04 0.000E+00

     total cpu time spent up to now is        1.1 secs

     total energy              =     -31.49927279 Ry
     Harris-Foulkes estimate   =     -31.49881513 Ry
     estimated scf accuracy    <       0.75306996 Ry

     iteration # 24     ecut=    30.00 Ry     beta=0.70
     Davidson diagonalization with overlap
     ethr =  7.61E-04,  avg # of iterations =  1.0

     negative rho (up, down):  5.252E-04 0.000E+00

     total cpu time spent up to now is        1.1 secs

     total energy              =     -31.49260642 Ry
     Harris-Foulkes estimate   =     -31.49928480 Ry
     estimated scf accuracy    <       0.80470241 Ry

     iteration # 25     ecut=    30.00 Ry     beta=0.70
     Davidson diagonalization with overlap
     ethr =  7.61E-04,  avg # of iterations =  1.0

     negative rho (up, down):  5.963E-04 0.000E+00

     total cpu time spent up to now is        1.1 secs

     total energy              =     -31.49163996 Ry
     Harris-Foulkes estimate   =     -31.49412663 Ry
     estimated scf accuracy    <       0.26801693 Ry

     iteration # 26     ecut=    30.00 Ry     beta=0.70
     Davidson diagonalization with overlap
     ethr =  7.61E-04,  avg # of iterations =  1.0

     negative rho (up, down):  3.539E-04 0.000E+00

     total cpu time spent up to now is        1.2 secs

     total energy              =     -31.49196624 Ry
     Harris-Foulkes estimate   =     -31.49234135 Ry
     estimated scf accuracy    <       0.08129189 Ry

     iteration # 27     ecut=    30.00 Ry     beta=0.70
     Davidson diagonalization with overlap
     ethr =  7.61E-04,  avg # of iterations =  1.0

     negative rho (up, down):  1.531E-04 0.000E+00

     total cpu time spent up to now is        1.2 secs

     total energy              =     -31.49154180 Ry
     Harris-Foulkes estimate   =     -31.49201235 Ry
     estimated scf accuracy    <       0.06264446 Ry

     iteration # 28     ecut=    30.00 Ry     beta=0.70
     Davidson diagonalization with overlap
     ethr =  7.61E-04,  avg # of iterations =  1.0

     negative rho (up, down):  6.902E-05 0.000E+00

     total cpu time spent up to now is        1.2 secs

     total energy              =     -31.49140126 Ry
     Harris-Foulkes estimate   =     -31.49162373 Ry
     estimated scf accuracy    <       0.03535589 Ry

     iteration # 29     ecut=    30.00 Ry     beta=0.70
     Davidson diagonalization with overlap
     ethr =  4.42E-04,  avg # of iterations =  1.0

     total cpu time spent up to now is        1.3 secs

     total energy              =     -31.49100764 Ry
     Harris-Foulkes estimate   =     -31.49143493 Ry
     estimated scf accuracy    <       0.01749804 Ry

     iteration # 30     ecut=    30.00 Ry     beta=0.70
     Davidson diagonalization with overlap
     ethr =  2.19E-04,  avg # of iterations =  1.0

     total cpu time spent up to now is        1.3 secs

     total energy              =     -31.49122921 Ry
     Harris-Foulkes estimate   =     -31.49123006 Ry
     estimated scf accuracy    <       0.00001659 Ry

     iteration # 31     ecut=    30.00 Ry     beta=0.70
     Davidson diagonalization with overlap
     ethr =  2.07E-07,  avg # of iterations = 18.0

     total cpu time spent up to now is        1.4 secs

     total energy              =     -31.49122892 Ry
     Harris-Foulkes estimate   =     -31.49122989 Ry
     estimated scf accuracy    <       0.00000901 Ry

     iteration # 32     ecut=    30.00 Ry     beta=0.70
     Davidson diagonalization with overlap
     ethr =  1.13E-07,  avg # of iterations =  1.0

     total cpu time spent up to now is        1.4 secs

     total energy              =     -31.49122892 Ry
     Harris-Foulkes estimate   =     -31.49122903 Ry
     estimated scf accuracy    <       0.00000018 Ry

     iteration # 33     ecut=    30.00 Ry     beta=0.70
     Davidson diagonalization with overlap
     ethr =  2.24E-09,  avg # of iterations =  1.0

     total cpu time spent up to now is        1.4 secs

     total energy              =     -31.49122890 Ry
     Harris-Foulkes estimate   =     -31.49122893 Ry
     estimated scf accuracy    <       0.00000003 Ry

     iteration # 34     ecut=    30.00 Ry     beta=0.70
     Davidson diagonalization with overlap
     ethr =  3.42E-10,  avg # of iterations =  1.0

     total cpu time spent up to now is        1.4 secs

     End of self-consistent calculation

          k = 0.0000 0.0000 0.0000 ( 22119 PWs)   bands (ev):

   -23.5912  -7.0205  -7.0041  -7.0038  -6.9002  -6.8815  -0.2301   0.6192

     the Fermi energy is    -6.8695 ev

!    total energy              =     -31.49122883 Ry
     Harris-Foulkes estimate   =     -31.49122890 Ry
     estimated scf accuracy    <          1.4E-09 Ry

     convergence has been achieved in  34 iterations

     Forces acting on atoms (Ry/au):

     atom    1 type  1   force =    -0.00010252   -0.00013391   -0.00012968
     atom    2 type  1   force =    -0.00103099    0.00070996   -0.00007633
     atom    3 type  2   force =     0.00113352   -0.00057604    0.00020602

     Total force =     0.001810     Total SCF correction =     0.000129

     Molecular Dynamics Calculation

     Starting temperature  =  1000.00 K

     temperature is controlled by Andersen thermostat
     Collision frequency = 1.0000/timestep
     mass H                =     1.01
     mass O                =    16.00
     Time step             =   100.00 a.u.,  4.8378 femto-seconds

     Entering Dynamics:    iteration =     1
                           time      =   0.0048 pico-seconds


     Andersen thermostat:    3 collisions

ATOMIC_POSITIONS (bohr)
H       18.139547865  14.967678115  16.911042462
H        9.739104262   0.485850721   5.615923832
O        3.739263193   6.409018036   5.913248046


     kinetic energy (Ekin) =     0.01677844 Ry
     temperature           =   883.03423454 K 
     Ekin + Etot (const)   =   -31.47445039 Ry

     Linear momentum :   -0.0000000000    0.0000000000    0.0000000000

     Writing output data file pwscf.save
     Check: negative starting charge=   -0.348654
     NEW-OLD atomic charge density approx. for the potential
     Check: negative starting charge=   -0.348692

     negative rho (up, down):  7.505E-02 0.000E+00

     total cpu time spent up to now is        1.7 secs

     per-process dynamical memory:    20.4 Mb

     Self-consistent Calculation

     iteration #  1     ecut=    30.00 Ry     beta=0.70
     Davidson diagonalization with overlap
     ethr =  1.00E-06,  avg # of iterations = 19.0

     negative rho (up, down):  1.731E-02 0.000E+00

     total cpu time spent up to now is        1.8 secs

     total energy              =     -31.44483675 Ry
     Harris-Foulkes estimate   =     -31.43213141 Ry
     estimated scf accuracy    <       0.03876167 Ry

     iteration #  2     ecut=    30.00 Ry     beta=0.70
     Davidson diagonalization with overlap
     ethr =  4.85E-04,  avg # of iterations =  2.0

     negative rho (up, down):  1.609E-02 0.000E+00

     total cpu time spent up to now is        1.8 secs

     total energy              =     -31.45747254 Ry
     Harris-Foulkes estimate   =     -31.85116872 Ry
     estimated scf accuracy    <       4.13530525 Ry

     iteration #  3     ecut=    30.00 Ry     beta=0.70
     Davidson diagonalization with overlap
     ethr =  4.85E-04,  avg # of iterations =  2.0

     negative rho (up, down):  1.522E-02 0.000E+00

     total cpu time spent up to now is        1.9 secs

     total energy              =     -31.46960453 Ry
     Harris-Foulkes estimate   =     -31.55992115 Ry
     estimated scf accuracy    <       1.19767428 Ry

     iteration #  4     ecut=    30.00 Ry     beta=0.70
     Davidson diagonalization with overlap
     ethr =  4.85E-04,  avg # of iterations =  1.0

     negative rho (up, down):  7.524E-03 0.000E+00

     total cpu time spent up to now is        1.9 secs

     total energy              =     -31.43164784 Ry
     Harris-Foulkes estimate   =     -31.48142899 Ry
     estimated scf accuracy    <       0.46368804 Ry

     iteration #  5     ecut=    30.00 Ry     beta=0.70
     Davidson diagonalization with overlap
     ethr =  4.85E-04,  avg # of iterations =  1.0

     negative rho (up, down):  2.337E-03 0.000E+00

     total cpu time spent up to now is        1.9 secs

     total energy              =     -31.48888996 Ry
     Harris-Foulkes estimate   =     -31.54564432 Ry
     estimated scf accuracy    <       1.68121668 Ry

     iteration #  6     ecut=    30.00 Ry     beta=0.70
     Davidson diagonalization with overlap
     ethr =  4.85E-04,  avg # of iterations =  1.0

     negative rho (up, down):  8.127E-04 0.000E+00

     total cpu time spent up to now is        2.0 secs

     total energy              =     -31.47666710 Ry
     Harris-Foulkes estimate   =     -31.50045303 Ry
     estimated scf accuracy    <       0.46903619 Ry

     iteration #  7     ecut=    30.00 Ry     beta=0.70
     Davidson diagonalization with overlap
     ethr =  4.85E-04,  avg # of iterations =  1.0

     negative rho (up, down):  3.389E-04 0.000E+00

     total cpu time spent up to now is        2.0 secs

     total energy              =     -31.49013133 Ry
     Harris-Foulkes estimate   =     -31.49967857 Ry
     estimated scf accuracy    <       0.47309900 Ry

     iteration #  8     ecut=    30.00 Ry     beta=0.70
     Davidson diagonalization with overlap
     ethr =  4.85E-04,  avg # of iterations =  1.0

     negative rho (up, down):  5.937E-05 0.000E+00

     total cpu time spent up to now is        2.0 secs

     total energy              =     -31.48191247 Ry
     Harris-Foulkes estimate   =     -31.49439777 Ry
     estimated scf accuracy    <       0.18269154 Ry

     iteration #  9     ecut=    30.00 Ry     beta=0.70
     Davidson diagonalization with overlap
     ethr =  4.85E-04,  avg # of iterations =  1.0

     negative rho (up, down):  5.278E-07 0.000E+00

     total cpu time spent up to now is        2.1 secs

     total energy              =     -31.49077604 Ry
     Harris-Foulkes estimate   =     -31.49398317 Ry
     estimated scf accuracy    <       0.15644079 Ry

     iteration # 10     ecut=    30.00 Ry     beta=0.70
     Davidson diagonalization with overlap
     ethr =  4.85E-04,  avg # of iterations =  1.0

     negative rho (up, down):  3.886E-07 0.000E+00

     total cpu time spent up to now is        2.1 secs

     total energy              =     -31.49105567 Ry
     Harris-Foulkes estimate   =     -31.49214577 Ry
     estimated scf accuracy    <       0.09388479 Ry

     iteration # 11     ecut=    30.00 Ry     beta=0.70
     Davidson diagonalization with overlap
     ethr =  4.85E-04,  avg # of iterations =  1.0

     total cpu time spent up to now is        2.1 secs

     total energy              =     -31.49054333 Ry
     Harris-Foulkes estimate   =     -31.49137231 Ry
     estimated scf accuracy    <       0.03112993 Ry

     iteration # 12     ecut=    30.00 Ry     beta=0.70
     Davidson diagonalization with overlap
     ethr =  3.89E-04,  avg # of iterations =  1.0

     negative rho (up, down):  1.079E-08 0.000E+00

     total cpu time spent up to now is        2.2 secs

     total energy              =     -31.49076303 Ry
     Harris-Foulkes estimate   =     -31.49119790 Ry
     estimated scf accuracy    <       0.00897774 Ry

     iteration # 13     ecut=    30.00 Ry     beta=0.70
     Davidson diagonalization with overlap
     ethr =  1.12E-04,  avg # of iterations =  1.0

     negative rho (up, down):  3.484E-08 0.000E+00

     total cpu time spent up to now is        2.2 secs

     total energy              =     -31.49105914 Ry
     Harris-Foulkes estimate   =     -31.49114915 Ry
     estimated scf accuracy    <       0.00516955 Ry

     iteration # 14     ecut=    30.00 Ry     beta=0.70
     Davidson diagonalization with overlap
     ethr =  6.46E-05,  avg # of iterations =  9.0

     total cpu time spent up to now is        2.3 secs

     total energy              =     -31.49105764 Ry
     Harris-Foulkes estimate   =     -31.49109028 Ry
     estimated scf accuracy    <       0.00150156 Ry

     iteration # 15     ecut=    30.00 Ry     beta=0.70
     Davidson diagonalization with overlap
     ethr =  1.88E-05,  avg # of iterations =  3.0

     total cpu time spent up to now is        2.3 secs

     total energy              =     -31.49107548 Ry
     Harris-Foulkes estimate   =     -31.49107614 Ry
     estimated scf accuracy    <       0.00002491 Ry

     iteration # 16     ecut=    30.00 Ry     beta=0.70
     Davidson diagonalization with overlap
     ethr =  3.11E-07,  avg # of iterations =  7.0

     total cpu time spent up to now is        2.3 secs

     total energy              =     -31.49107570 Ry
     Harris-Foulkes estimate   =     -31.49107570 Ry
     estimated scf accuracy    <       0.00000021 Ry

     iteration # 17     ecut=    30.00 Ry     beta=0.70
     Davidson diagonalization with overlap
     ethr =  2.67E-09,  avg # of iterations =  1.0

     total cpu time spent up to now is        2.4 secs

     total energy              =     -31.49107567 Ry
     Harris-Foulkes estimate   =     -31.49107570 Ry
     estimated scf accuracy    <       0.00000007 Ry

     iteration # 18     ecut=    30.00 Ry     beta=0.70
     Davidson diagonalization with overlap
     ethr =  8.76E-10,  avg # of iterations =  1.0

     total cpu time spent up to now is        2.4 secs

     End of self-consistent calculation

          k = 0.0000 0.0000 0.0000 ( 22119 PWs)   bands (ev):

   -23.5934  -7.0202  -7.0058  -7.0056  -6.9021  -6.8856  -0.2309   0.6198

     the Fermi energy is    -6.8713 ev

!    total energy              =     -31.49107567 Ry
     Harris-Foulkes estimate   =     -31.49107567 Ry
     estimated scf accuracy    <          5.1E-09 Ry

     convergence has been achieved in  18 iterations

     Forces acting on atoms (Ry/au):

     atom    1 type  1   force =    -0.00004643   -0.00016379   -0.00034518
     atom    2 type  1   force =    -0.00074085    0.00050330   -0.00030458
     atom    3 type  2   force =     0.00078728   -0.00033951    0.00064977

     Total force =     0.001483     Total SCF correction =     0.000032

     Entering Dynamics:    iteration =     2
                           time      =   0.0097 pico-seconds


     Andersen thermostat:    3 collisions

ATOMIC_POSITIONS (bohr)
H       18.059975335  14.700789888  16.836909766
H        9.454967008   0.387647702   5.572903538
O        3.762222373   6.432064421   5.920643329


     kinetic energy (Ekin) =     0.01054019 Ry
     temperature           =   554.72076270 K 
     Ekin + Etot (const)   =   -31.48053548 Ry
     Message from routine dynamics:
     Total linear momentum <> 0

     Linear momentum :    0.0791334797    0.2180204234    0.3053241209

     Writing output data file pwscf.save

     first order wave-functions extrapolation
     Check: negative starting charge=   -0.348692
     first order charge density extrapolation
     Check: negative starting charge=   -0.348756

     negative rho (up, down):  1.133E-01 0.000E+00

     total cpu time spent up to now is        2.7 secs

     per-process dynamical memory:    20.4 Mb

     Self-consistent Calculation

     iteration #  1     ecut=    30.00 Ry     beta=0.70
     Davidson diagonalization with overlap
     c_bands:  1 eigenvalues not converged
     ethr =  1.00E-06,  avg # of iterations = 20.0

     negative rho (up, down):  2.698E-02 0.000E+00

     total cpu time spent up to now is        2.8 secs

     total energy              =     -31.41164172 Ry
     Harris-Foulkes estimate   =     -31.41570847 Ry
     estimated scf accuracy    <       0.06833317 Ry

     iteration #  2     ecut=    30.00 Ry     beta=0.70
     Davidson diagonalization with overlap
     ethr =  8.54E-04,  avg # of iterations =  2.0

     negative rho (up, down):  2.439E-02 0.000E+00

     total cpu time spent up to now is        2.8 secs

     total energy              =     -31.48704309 Ry
     Harris-Foulkes estimate   =     -32.06702356 Ry
     estimated scf accuracy    <       4.52757057 Ry

     iteration #  3     ecut=    30.00 Ry     beta=0.70
     Davidson diagonalization with overlap
     ethr =  8.54E-04,  avg # of iterations =  2.0

     negative rho (up, down):  2.214E-02 0.000E+00

     total cpu time spent up to now is        2.9 secs

     total energy              =     -31.36821156 Ry
     Harris-Foulkes estimate   =     -31.49203856 Ry
     estimated scf accuracy    <       2.47834125 Ry

     iteration #  4     ecut=    30.00 Ry     beta=0.70
     Davidson diagonalization with overlap
     ethr =  8.54E-04,  avg # of iterations =  1.0

     negative rho (up, down):  7.546E-03 0.000E+00

     total cpu time spent up to now is        2.9 secs

     total energy              =     -31.42726837 Ry
     Harris-Foulkes estimate   =     -31.52056845 Ry
     estimated scf accuracy    <       2.49677449 Ry

     iteration #  5     ecut=    30.00 Ry     beta=0.70
     Davidson diagonalization with overlap
     ethr =  8.54E-04,  avg # of iterations =  1.0

     negative rho (up, down):  6.587E-03 0.000E+00

     total cpu time spent up to now is        2.9 secs

     total energy              =     -31.47443250 Ry
     Harris-Foulkes estimate   =     -31.49499841 Ry
     estimated scf accuracy    <       1.03941627 Ry

     iteration #  6     ecut=    30.00 Ry     beta=0.70
     Davidson diagonalization with overlap
     ethr =  8.54E-04,  avg # of iterations =  1.0

     negative rho (up, down):  1.856E-03 0.000E+00

     total cpu time spent up to now is        3.0 secs

     total energy              =     -31.49032995 Ry
     Harris-Foulkes estimate   =     -31.48529438 Ry
     estimated scf accuracy    <       0.00173538 Ry

     iteration #  7     ecut=    30.00 Ry     beta=0.70
     Davidson diagonalization with overlap
     ethr =  2.17E-05,  avg # of iterations = 14.0

     negative rho (up, down):  5.324E-04 0.000E+00

     total cpu time spent up to now is        3.0 secs

     total energy              =     -31.49450335 Ry
     Harris-Foulkes estimate   =     -31.49153663 Ry
     estimated scf accuracy    <       0.13293490 Ry

     iteration #  8     ecut=    30.00 Ry     beta=0.70
     Davidson diagonalization with overlap
     ethr =  2.17E-05,  avg # of iterations = 10.0

     negative rho (up, down):  6.169E-06 0.000E+00

     total cpu time spent up to now is        3.1 secs

     total energy              =     -31.48363436 Ry
     Harris-Foulkes estimate   =     -31.49529400 Ry
     estimated scf accuracy    <       0.39299133 Ry

     iteration #  9     ecut=    30.00 Ry     beta=0.70
     Davidson diagonalization with overlap
     ethr =  2.17E-05,  avg # of iterations =  2.0

     negative rho (up, down):  9.510E-08 0.000E+00

     total cpu time spent up to now is        3.1 secs

     total energy              =     -31.49145847 Ry
     Harris-Foulkes estimate   =     -31.49222525 Ry
     estimated scf accuracy    <       0.10814125 Ry

     iteration # 10     ecut=    30.00 Ry     beta=0.70
     Davidson diagonalization with overlap
     ethr =  2.17E-05,  avg # of iterations =  1.0

     total cpu time spent up to now is        3.1 secs

     total energy              =     -31.49113870 Ry
     Harris-Foulkes estimate   =     -31.49161145 Ry
     estimated scf accuracy    <       0.04188189 Ry

     iteration # 11     ecut=    30.00 Ry     beta=0.70
     Davidson diagonalization with overlap
     ethr =  2.17E-05,  avg # of iterations =  1.0

     total cpu time spent up to now is        3.2 secs

     total energy              =     -31.49114828 Ry
     Harris-Foulkes estimate   =     -31.49128295 Ry
     estimated scf accuracy    <       0.00646211 Ry

     iteration # 12     ecut=    30.00 Ry     beta=0.70
     Davidson diagonalization with overlap
     ethr =  2.17E-05,  avg # of iterations =  1.0

     total cpu time spent up to now is        3.2 secs

     total energy              =     -31.49122261 Ry
     Harris-Foulkes estimate   =     -31.49122354 Ry
     estimated scf accuracy    <       0.00009141 Ry

     iteration # 13     ecut=    30.00 Ry     beta=0.70
     Davidson diagonalization with overlap
     ethr =  1.14E-06,  avg # of iterations =  3.0

     total cpu time spent up to now is        3.2 secs

     total energy              =     -31.49122270 Ry
     Harris-Foulkes estimate   =     -31.49122300 Ry
     estimated scf accuracy    <       0.00001244 Ry

     iteration # 14     ecut=    30.00 Ry     beta=0.70
     Davidson diagonalization with overlap
     ethr =  1.56E-07,  avg # of iterations =  1.0

     total cpu time spent up to now is        3.3 secs

     total energy              =     -31.49122264 Ry
     Harris-Foulkes estimate   =     -31.49122281 Ry
     estimated scf accuracy    <       0.00000004 Ry

     iteration # 15     ecut=    30.00 Ry     beta=0.70
     Davidson diagonalization with overlap
     ethr =  4.94E-10,  avg # of iterations =  2.0

     total cpu time spent up to now is        3.3 secs

     total energy              =     -31.49122249 Ry
     Harris-Foulkes estimate   =     -31.49122264 Ry
     estimated scf accuracy    <       0.00000002 Ry

     iteration # 16     ecut=    30.00 Ry     beta=0.70
     Davidson diagonalization with overlap
     ethr =  1.90E-10,  avg # of iterations =  1.0

     total cpu time spent up to now is        3.3 secs

     total energy              =     -31.49122248 Ry
     Harris-Foulkes estimate   =     -31.49122249 Ry
     estimated scf accuracy    <       0.00000001 Ry

     iteration # 17     ecut=    30.00 Ry     beta=0.70
     Davidson diagonalization with overlap
     ethr =  1.62E-10,  avg # of iterations =  1.0

     total cpu time spent up to now is        3.3 secs

     End of self-consistent calculation

          k = 0.0000 0.0000 0.0000 ( 22119 PWs)   bands (ev):

   -23.5922  -7.0219  -7.0048  -7.0047  -6.9012  -6.8821  -0.2294   0.6181

     the Fermi energy is    -6.8704 ev

!    total energy              =     -31.49122247 Ry
     Harris-Foulkes estimate   =     -31.49122248 Ry
     estimated scf accuracy    <          1.0E-09 Ry

     convergence has been achieved in  17 iterations

     Forces acting on atoms (Ry/au):

     atom    1 type  1   force =     0.00016304   -0.00027222   -0.00030298
     atom    2 type  1   force =    -0.00068860    0.00071481   -0.00023736
     atom    3 type  2   force =     0.00052556   -0.00044259    0.00054035

     Total force =     0.001414     Total SCF correction =     0.000033

     Entering Dynamics:    iteration =     3
                           time      =   0.0145 pico-seconds


     Andersen thermostat:    3 collisions

ATOMIC_POSITIONS (bohr)
H       17.479508301  14.682810632  17.288812549
H        9.495784597   0.611362169   5.603992704
O        3.796287745   6.419077386   5.890154462


     kinetic energy (Ekin) =     0.03404971 Ry
     temperature           =  1792.00567984 K 
     Ekin + Etot (const)   =   -31.45717276 Ry
     Message from routine dynamics:
     Total linear momentum <> 0

     Linear momentum :    0.6376664842    0.0014310027   -0.0665774324

     Writing output data file pwscf.save

     second order wave-functions extrapolation
     Check: negative starting charge=   -0.348756
     second order charge density extrapolation
     Check: negative starting charge=   -0.347697

     negative rho (up, down):  9.448E-02 0.000E+00

     total cpu time spent up to now is        3.7 secs

     per-process dynamical memory:    20.4 Mb

     Self-consistent Calculation

     iteration #  1     ecut=    30.00 Ry     beta=0.70
     Davidson diagonalization with overlap
     c_bands:  1 eigenvalues not converged
     ethr =  1.00E-06,  avg # of iterations = 20.0

     negative rho (up, down):  2.223E-02 0.000E+00

     total cpu time spent up to now is        3.8 secs

     total energy              =     -31.45069560 Ry
     Harris-Foulkes estimate   =     -31.42865455 Ry
     estimated scf accuracy    <       0.02718442 Ry

     iteration #  2     ecut=    30.00 Ry     beta=0.70
     Davidson diagonalization with overlap
     ethr =  3.40E-04,  avg # of iterations =  2.0

     negative rho (up, down):  2.086E-02 0.000E+00

     total cpu time spent up to now is        3.8 secs

     total energy              =     -31.45302476 Ry
     Harris-Foulkes estimate   =     -31.79556728 Ry
     estimated scf accuracy    <       4.04020401 Ry

     iteration #  3     ecut=    30.00 Ry     beta=0.70
     Davidson diagonalization with overlap
     ethr =  3.40E-04,  avg # of iterations =  2.0

     negative rho (up, down):  2.027E-02 0.000E+00

     total cpu time spent up to now is        3.8 secs

     total energy              =     -31.45520237 Ry
     Harris-Foulkes estimate   =     -31.49711543 Ry
     estimated scf accuracy    <       1.08830346 Ry

     iteration #  4     ecut=    30.00 Ry     beta=0.70
     Davidson diagonalization with overlap
     ethr =  3.40E-04,  avg # of iterations =  1.0

     negative rho (up, down):  4.652E-03 0.000E+00

     total cpu time spent up to now is        3.9 secs

     total energy              =     -31.47876186 Ry
     Harris-Foulkes estimate   =     -31.47292154 Ry
     estimated scf accuracy    <       0.09785418 Ry

     iteration #  5     ecut=    30.00 Ry     beta=0.70
     Davidson diagonalization with overlap
     ethr =  3.40E-04,  avg # of iterations =  1.0

     negative rho (up, down):  2.587E-03 0.000E+00

     total cpu time spent up to now is        3.9 secs

     total energy              =     -31.46030454 Ry
     Harris-Foulkes estimate   =     -31.50360573 Ry
     estimated scf accuracy    <       1.21329903 Ry

     iteration #  6     ecut=    30.00 Ry     beta=0.70
     Davidson diagonalization with overlap
     ethr =  3.40E-04,  avg # of iterations =  1.0

     negative rho (up, down):  1.005E-03 0.000E+00

     total cpu time spent up to now is        3.9 secs

     total energy              =     -31.48250033 Ry
     Harris-Foulkes estimate   =     -31.49582573 Ry
     estimated scf accuracy    <       0.66476845 Ry

     iteration #  7     ecut=    30.00 Ry     beta=0.70
     Davidson diagonalization with overlap
     ethr =  3.40E-04,  avg # of iterations =  3.0

     negative rho (up, down):  3.418E-05 0.000E+00

     total cpu time spent up to now is        4.0 secs

     total energy              =     -31.49172271 Ry
     Harris-Foulkes estimate   =     -31.49134500 Ry
     estimated scf accuracy    <       0.02309388 Ry

     iteration #  8     ecut=    30.00 Ry     beta=0.70
     Davidson diagonalization with overlap
     ethr =  2.89E-04,  avg # of iterations =  1.0

     negative rho (up, down):  2.621E-08 0.000E+00

     total cpu time spent up to now is        4.0 secs

     total energy              =     -31.49049276 Ry
     Harris-Foulkes estimate   =     -31.49175833 Ry
     estimated scf accuracy    <       0.03896086 Ry

     iteration #  9     ecut=    30.00 Ry     beta=0.70
     Davidson diagonalization with overlap
     ethr =  2.89E-04,  avg # of iterations =  1.0

     total cpu time spent up to now is        4.0 secs

     total energy              =     -31.49145169 Ry
     Harris-Foulkes estimate   =     -31.49156292 Ry
     estimated scf accuracy    <       0.01794907 Ry

     iteration # 10     ecut=    30.00 Ry     beta=0.70
     Davidson diagonalization with overlap
     ethr =  2.24E-04,  avg # of iterations =  1.0

     total cpu time spent up to now is        4.1 secs

     total energy              =     -31.49131998 Ry
     Harris-Foulkes estimate   =     -31.49147021 Ry
     estimated scf accuracy    <       0.00879036 Ry

     iteration # 11     ecut=    30.00 Ry     beta=0.70
     Davidson diagonalization with overlap
     ethr =  1.10E-04,  avg # of iterations =  6.0

     total cpu time spent up to now is        4.1 secs

     total energy              =     -31.49138375 Ry
     Harris-Foulkes estimate   =     -31.49138666 Ry
     estimated scf accuracy    <       0.00015233 Ry

     iteration # 12     ecut=    30.00 Ry     beta=0.70
     Davidson diagonalization with overlap
     ethr =  1.90E-06,  avg # of iterations = 14.0

     total cpu time spent up to now is        4.1 secs

     total energy              =     -31.49138484 Ry
     Harris-Foulkes estimate   =     -31.49138522 Ry
     estimated scf accuracy    <       0.00000847 Ry

     iteration # 13     ecut=    30.00 Ry     beta=0.70
     Davidson diagonalization with overlap
     ethr =  1.06E-07,  avg # of iterations =  1.0

     total cpu time spent up to now is        4.2 secs

     total energy              =     -31.49138488 Ry
     Harris-Foulkes estimate   =     -31.49138510 Ry
     estimated scf accuracy    <       0.00000280 Ry

     iteration # 14     ecut=    30.00 Ry     beta=0.70
     Davidson diagonalization with overlap
     ethr =  3.50E-08,  avg # of iterations =  1.0

     total cpu time spent up to now is        4.2 secs

     total energy              =     -31.49138488 Ry
     Harris-Foulkes estimate   =     -31.49138489 Ry
     estimated scf accuracy    <       0.00000036 Ry

     iteration # 15     ecut=    30.00 Ry     beta=0.70
     Davidson diagonalization with overlap
     ethr =  4.51E-09,  avg # of iterations =  1.0

     total cpu time spent up to now is        4.2 secs

     total energy              =     -31.49138490 Ry
     Harris-Foulkes estimate   =     -31.49138488 Ry
     estimated scf accuracy    <       0.00000001 Ry

     iteration # 16     ecut=    30.00 Ry     beta=0.70
     Davidson diagonalization with overlap
     ethr =  1.72E-10,  avg # of iterations =  1.0

     total cpu time spent up to now is        4.3 secs

     End of self-consistent calculation

          k = 0.0000 0.0000 0.0000 ( 22119 PWs)   bands (ev):

   -23.5948  -7.0294  -7.0068  -7.0066  -6.9032  -6.8784  -0.2271   0.6188

     the Fermi energy is    -6.8724 ev

!    total energy              =     -31.49138491 Ry
     Harris-Foulkes estimate   =     -31.49138490 Ry
     estimated scf accuracy    <          1.1E-09 Ry

     convergence has been achieved in  16 iterations

     Forces acting on atoms (Ry/au):

     atom    1 type  1   force =     0.00056579   -0.00030143   -0.00042672
     atom    2 type  1   force =    -0.00075107    0.00109362   -0.00034025
     atom    3 type  2   force =     0.00018529   -0.00079218    0.00076697

     Total force =     0.001928     Total SCF correction =     0.000075

     Entering Dynamics:    iteration =     4
                           time      =   0.0194 pico-seconds


     Andersen thermostat:    3 collisions

ATOMIC_POSITIONS (bohr)
H       17.512341441  14.467092305  17.169302279
H        9.535381032   0.482419644   5.662983672
O        3.791715628   6.440834102   5.893974743


     kinetic energy (Ekin) =     0.00614017 Ry
     temperature           =   323.15150725 K 
     Ekin + Etot (const)   =   -31.48524475 Ry
     Message from routine dynamics:
     Total linear momentum <> 0

     Linear momentum :    0.0475791662    0.3080865553   -0.2397743175

     Writing output data file pwscf.save

     second order wave-functions extrapolation
     Check: negative starting charge=   -0.347697
     second order charge density extrapolation
     Check: negative starting charge=   -0.348215

     negative rho (up, down):  2.803E-02 0.000E+00

     total cpu time spent up to now is        4.6 secs

     per-process dynamical memory:    20.4 Mb

     Self-consistent Calculation

     iteration #  1     ecut=    30.00 Ry     beta=0.70
     Davidson diagonalization with overlap
     c_bands:  1 eigenvalues not converged
     ethr =  1.00E-06,  avg # of iterations = 20.0

     negative rho (up, down):  5.757E-03 0.000E+00

     total cpu time spent up to now is        4.7 secs

     total energy              =     -31.47921192 Ry
     Harris-Foulkes estimate   =     -31.46341853 Ry
     estimated scf accuracy    <       0.00837487 Ry

     iteration #  2     ecut=    30.00 Ry     beta=0.70
     Davidson diagonalization with overlap
     ethr =  1.05E-04,  avg # of iterations =  3.0

     negative rho (up, down):  5.535E-03 0.000E+00

     total cpu time spent up to now is        4.7 secs

     total energy              =     -31.45743866 Ry
     Harris-Foulkes estimate   =     -31.64861161 Ry
     estimated scf accuracy    <       4.03711394 Ry

     iteration #  3     ecut=    30.00 Ry     beta=0.70
     Davidson diagonalization with overlap
     ethr =  1.05E-04,  avg # of iterations =  2.0

     negative rho (up, down):  5.362E-03 0.000E+00

     total cpu time spent up to now is        4.7 secs

     total energy              =     -31.47037985 Ry
     Harris-Foulkes estimate   =     -31.51262382 Ry
     estimated scf accuracy    <       1.05780914 Ry

     iteration #  4     ecut=    30.00 Ry     beta=0.70
     Davidson diagonalization with overlap
     ethr =  1.05E-04,  avg # of iterations =  1.0

     negative rho (up, down):  1.298E-03 0.000E+00

     total cpu time spent up to now is        4.8 secs

     total energy              =     -31.48980605 Ry
     Harris-Foulkes estimate   =     -31.48653798 Ry
     estimated scf accuracy    <       0.02273954 Ry

     iteration #  5     ecut=    30.00 Ry     beta=0.70
     Davidson diagonalization with overlap
     ethr =  1.05E-04,  avg # of iterations =  3.0

     negative rho (up, down):  2.988E-04 0.000E+00

     total cpu time spent up to now is        4.8 secs

     total energy              =     -31.49100246 Ry
     Harris-Foulkes estimate   =     -31.49110082 Ry
     estimated scf accuracy    <       0.03325780 Ry

     iteration #  6     ecut=    30.00 Ry     beta=0.70
     Davidson diagonalization with overlap
     ethr =  1.05E-04,  avg # of iterations =  1.0

     negative rho (up, down):  2.461E-06 0.000E+00

     total cpu time spent up to now is        4.8 secs

     total energy              =     -31.49112769 Ry
     Harris-Foulkes estimate   =     -31.49124529 Ry
     estimated scf accuracy    <       0.00177410 Ry

     iteration #  7     ecut=    30.00 Ry     beta=0.70
     Davidson diagonalization with overlap
     ethr =  2.22E-05,  avg # of iterations = 16.0

     negative rho (up, down):  2.279E-08 0.000E+00

     total cpu time spent up to now is        4.9 secs

     total energy              =     -31.49115814 Ry
     Harris-Foulkes estimate   =     -31.49126734 Ry
     estimated scf accuracy    <       0.00476591 Ry

     iteration #  8     ecut=    30.00 Ry     beta=0.70
     Davidson diagonalization with overlap
     ethr =  2.22E-05,  avg # of iterations =  1.0

     total cpu time spent up to now is        4.9 secs

     total energy              =     -31.49121331 Ry
     Harris-Foulkes estimate   =     -31.49121456 Ry
     estimated scf accuracy    <       0.00000357 Ry

     iteration #  9     ecut=    30.00 Ry     beta=0.70
     Davidson diagonalization with overlap
     ethr =  4.46E-08,  avg # of iterations = 13.0

     total cpu time spent up to now is        5.0 secs

     total energy              =     -31.49121261 Ry
     Harris-Foulkes estimate   =     -31.49121380 Ry
     estimated scf accuracy    <       0.00001930 Ry

     iteration # 10     ecut=    30.00 Ry     beta=0.70
     Davidson diagonalization with overlap
     ethr =  4.46E-08,  avg # of iterations =  1.0

     total cpu time spent up to now is        5.0 secs

     total energy              =     -31.49121272 Ry
     Harris-Foulkes estimate   =     -31.49121274 Ry
     estimated scf accuracy    <       0.00000153 Ry

     iteration # 11     ecut=    30.00 Ry     beta=0.70
     Davidson diagonalization with overlap
     ethr =  1.92E-08,  avg # of iterations =  1.0

     total cpu time spent up to now is        5.0 secs

     total energy              =     -31.49121246 Ry
     Harris-Foulkes estimate   =     -31.49121273 Ry
     estimated scf accuracy    <       0.00000048 Ry

     iteration # 12     ecut=    30.00 Ry     beta=0.70
     Davidson diagonalization with overlap
     ethr =  5.99E-09,  avg # of iterations =  1.0

     total cpu time spent up to now is        5.1 secs

     End of self-consistent calculation

          k = 0.0000 0.0000 0.0000 ( 22119 PWs)   bands (ev):

   -23.5935  -7.0240  -7.0058  -7.0056  -6.9022  -6.8821  -0.2288   0.6188

     the Fermi energy is    -6.8714 ev

!    total energy              =     -31.49121247 Ry
     Harris-Foulkes estimate   =     -31.49121247 Ry
     estimated scf accuracy    <          5.6E-09 Ry

     convergence has been achieved in  12 iterations

     Forces acting on atoms (Ry/au):

     atom    1 type  1   force =     0.00046052   -0.00041086   -0.00035263
     atom    2 type  1   force =    -0.00049736    0.00064311   -0.00029422
     atom    3 type  2   force =     0.00003684   -0.00023225    0.00064685

     Total force =     0.001314     Total SCF correction =     0.000095

     Entering Dynamics:    iteration =     5
                           time      =   0.0242 pico-seconds


     Andersen thermostat:    3 collisions

ATOMIC_POSITIONS (bohr)
H       17.679135972  14.557820548  17.350528301
H        9.648012097   0.832824849   5.363157613
O        3.774076887   6.412987553   5.901461370


     kinetic energy (Ekin) =     0.02015671 Ry
     temperature           =  1060.82971029 K 
     Ekin + Etot (const)   =   -31.47105576 Ry
     Message from routine dynamics:
     Total linear momentum <> 0

     Linear momentum :    0.4819225419    0.4575484616   -0.2070720364

     Writing output data file pwscf.save

     second order wave-functions extrapolation
     Check: negative starting charge=   -0.348215
     second order charge density extrapolation
     Check: negative starting charge=   -0.347813

     negative rho (up, down):  4.319E-02 0.000E+00

     total cpu time spent up to now is        5.4 secs

     per-process dynamical memory:    20.4 Mb

     Self-consistent Calculation

     iteration #  1     ecut=    30.00 Ry     beta=0.70
     Davidson diagonalization with overlap
     c_bands:  1 eigenvalues not converged
     ethr =  1.00E-06,  avg # of iterations = 20.0

     negative rho (up, down):  9.418E-03 0.000E+00

     total cpu time spent up to now is        5.5 secs

     total energy              =     -31.45816944 Ry
     Harris-Foulkes estimate   =     -31.45039852 Ry
     estimated scf accuracy    <       0.03028375 Ry

     iteration #  2     ecut=    30.00 Ry     beta=0.70
     Davidson diagonalization with overlap
     ethr =  3.79E-04,  avg # of iterations =  2.0

     negative rho (up, down):  8.733E-03 0.000E+00

     total cpu time spent up to now is        5.5 secs

     total energy              =     -31.47720181 Ry
     Harris-Foulkes estimate   =     -31.86672772 Ry
     estimated scf accuracy    <       4.14647032 Ry

     iteration #  3     ecut=    30.00 Ry     beta=0.70
     Davidson diagonalization with overlap
     ethr =  3.79E-04,  avg # of iterations =  2.0

     negative rho (up, down):  8.550E-03 0.000E+00

     total cpu time spent up to now is        5.5 secs

     total energy              =     -31.47946703 Ry
     Harris-Foulkes estimate   =     -31.49784892 Ry
     estimated scf accuracy    <       0.87849512 Ry

     iteration #  4     ecut=    30.00 Ry     beta=0.70
     Davidson diagonalization with overlap
     ethr =  3.79E-04,  avg # of iterations =  1.0

     negative rho (up, down):  3.792E-03 0.000E+00

     total cpu time spent up to now is        5.6 secs

     total energy              =     -31.45319320 Ry
     Harris-Foulkes estimate   =     -31.48727233 Ry
     estimated scf accuracy    <       0.43004390 Ry

     iteration #  5     ecut=    30.00 Ry     beta=0.70
     Davidson diagonalization with overlap
     ethr =  3.79E-04,  avg # of iterations =  1.0

     negative rho (up, down):  1.213E-03 0.000E+00

     total cpu time spent up to now is        5.6 secs

     total energy              =     -31.46865988 Ry
     Harris-Foulkes estimate   =     -31.53579414 Ry
     estimated scf accuracy    <       2.42817101 Ry

     iteration #  6     ecut=    30.00 Ry     beta=0.70
     Davidson diagonalization with overlap
     ethr =  3.79E-04,  avg # of iterations =  3.0

     negative rho (up, down):  2.388E-04 0.000E+00

     total cpu time spent up to now is        5.6 secs

     total energy              =     -31.49134075 Ry
     Harris-Foulkes estimate   =     -31.49140292 Ry
     estimated scf accuracy    <       0.03619979 Ry

     iteration #  7     ecut=    30.00 Ry     beta=0.70
     Davidson diagonalization with overlap
     ethr =  3.79E-04,  avg # of iterations =  1.0

     negative rho (up, down):  7.666E-05 0.000E+00

     total cpu time spent up to now is        5.7 secs

     total energy              =     -31.49151590 Ry
     Harris-Foulkes estimate   =     -31.49150980 Ry
     estimated scf accuracy    <       0.00476524 Ry

     iteration #  8     ecut=    30.00 Ry     beta=0.70
     Davidson diagonalization with overlap
     ethr =  5.96E-05,  avg # of iterations = 11.0

     negative rho (up, down):  1.000E-07 0.000E+00

     total cpu time spent up to now is        5.7 secs

     total energy              =     -31.49153769 Ry
     Harris-Foulkes estimate   =     -31.49152066 Ry
     estimated scf accuracy    <       0.00691972 Ry

     iteration #  9     ecut=    30.00 Ry     beta=0.70
     Davidson diagonalization with overlap
     ethr =  5.96E-05,  avg # of iterations =  1.0

     total cpu time spent up to now is        5.7 secs

     total energy              =     -31.49134979 Ry
     Harris-Foulkes estimate   =     -31.49153894 Ry
     estimated scf accuracy    <       0.00716797 Ry

     iteration # 10     ecut=    30.00 Ry     beta=0.70
     Davidson diagonalization with overlap
     ethr =  5.96E-05,  avg # of iterations =  1.0

     total cpu time spent up to now is        5.8 secs

     total energy              =     -31.49148014 Ry
     Harris-Foulkes estimate   =     -31.49148128 Ry
     estimated scf accuracy    <       0.00108745 Ry

     iteration # 11     ecut=    30.00 Ry     beta=0.70
     Davidson diagonalization with overlap
     ethr =  1.36E-05,  avg # of iterations =  1.0

     total cpu time spent up to now is        5.8 secs

     total energy              =     -31.49146723 Ry
     Harris-Foulkes estimate   =     -31.49148023 Ry
     estimated scf accuracy    <       0.00101452 Ry

     iteration # 12     ecut=    30.00 Ry     beta=0.70
     Davidson diagonalization with overlap
     ethr =  1.27E-05,  avg # of iterations =  1.0

     total cpu time spent up to now is        5.8 secs

     total energy              =     -31.49146781 Ry
     Harris-Foulkes estimate   =     -31.49147152 Ry
     estimated scf accuracy    <       0.00011479 Ry

     iteration # 13     ecut=    30.00 Ry     beta=0.70
     Davidson diagonalization with overlap
     ethr =  1.43E-06,  avg # of iterations =  5.0

     total cpu time spent up to now is        5.9 secs

     total energy              =     -31.49146993 Ry
     Harris-Foulkes estimate   =     -31.49147089 Ry
     estimated scf accuracy    <       0.00005123 Ry

     iteration # 14     ecut=    30.00 Ry     beta=0.70
     Davidson diagonalization with overlap
     ethr =  6.40E-07,  avg # of iterations =  1.0

     total cpu time spent up to now is        5.9 secs

     total energy              =     -31.49147042 Ry
     Harris-Foulkes estimate   =     -31.49147040 Ry
     estimated scf accuracy    <       0.00000004 Ry

     iteration # 15     ecut=    30.00 Ry     beta=0.70
     Davidson diagonalization with overlap
     ethr =  5.54E-10,  avg # of iterations =  1.0

     total cpu time spent up to now is        5.9 secs

     End of self-consistent calculation

          k = 0.0000 0.0000 0.0000 ( 22119 PWs)   bands (ev):

   -23.5935  -7.0292  -7.0059  -7.0058  -6.9022  -6.8769  -0.2266   0.6148

     the Fermi energy is    -6.8715 ev

!    total energy              =     -31.49147038 Ry
     Harris-Foulkes estimate   =     -31.49147042 Ry
     estimated scf accuracy    <          7.1E-10 Ry

     convergence has been achieved in  15 iterations

     Forces acting on atoms (Ry/au):

     atom    1 type  1   force =     0.00033126   -0.00021335   -0.00037136
     atom    2 type  1   force =    -0.00114552    0.00108939   -0.00025832
     atom    3 type  2   force =     0.00081426   -0.00087604    0.00062967

     Total force =     0.002165     Total SCF correction =     0.000034

     Entering Dynamics:    iteration =     6
                           time      =   0.0290 pico-seconds


     Andersen thermostat:    3 collisions

ATOMIC_POSITIONS (bohr)
H       17.613094059  14.209691034  17.426407703
H        9.448106018   0.405015337   5.014159713
O        3.790864854   6.461968704   5.918701976


     kinetic energy (Ekin) =     0.02481433 Ry
     temperature           =  1305.95621026 K 
     Ekin + Etot (const)   =   -31.46665605 Ry
     Message from routine dynamics:
     Total linear momentum <> 0

     Linear momentum :   -0.0068411557   -0.2241944071    0.0585944113

     Writing output data file pwscf.save

     second order wave-functions extrapolation
     Check: negative starting charge=   -0.347813
     second order charge density extrapolation
     Check: negative starting charge=   -0.348848

     negative rho (up, down):  7.278E-02 0.000E+00

     total cpu time spent up to now is        6.3 secs

     per-process dynamical memory:    20.4 Mb

     Self-consistent Calculation

     iteration #  1     ecut=    30.00 Ry     beta=0.70
     Davidson diagonalization with overlap
     c_bands:  1 eigenvalues not converged
     ethr =  1.00E-06,  avg # of iterations = 20.0

     negative rho (up, down):  1.655E-02 0.000E+00

     total cpu time spent up to now is        6.4 secs

     total energy              =     -31.42052529 Ry
     Harris-Foulkes estimate   =     -31.43002752 Ry
     estimated scf accuracy    <       0.06888285 Ry

     iteration #  2     ecut=    30.00 Ry     beta=0.70
     Davidson diagonalization with overlap
     ethr =  8.61E-04,  avg # of iterations =  2.0

     negative rho (up, down):  1.493E-02 0.000E+00

     total cpu time spent up to now is        6.4 secs

     total energy              =     -31.48952620 Ry
     Harris-Foulkes estimate   =     -32.06698994 Ry
     estimated scf accuracy    <       4.50859113 Ry

     iteration #  3     ecut=    30.00 Ry     beta=0.70
     Davidson diagonalization with overlap
     ethr =  8.61E-04,  avg # of iterations =  2.0

     negative rho (up, down):  1.435E-02 0.000E+00

     total cpu time spent up to now is        6.5 secs

     total energy              =     -31.47951446 Ry
     Harris-Foulkes estimate   =     -31.53082674 Ry
     estimated scf accuracy    <       1.04111948 Ry

     iteration #  4     ecut=    30.00 Ry     beta=0.70
     Davidson diagonalization with overlap
     ethr =  8.61E-04,  avg # of iterations =  1.0

     negative rho (up, down):  1.319E-02 0.000E+00

     total cpu time spent up to now is        6.5 secs

     total energy              =     -31.42718950 Ry
     Harris-Foulkes estimate   =     -31.49520047 Ry
     estimated scf accuracy    <       1.84419008 Ry

     iteration #  5     ecut=    30.00 Ry     beta=0.70
     Davidson diagonalization with overlap
     ethr =  8.61E-04,  avg # of iterations =  1.0

     negative rho (up, down):  3.050E-03 0.000E+00

     total cpu time spent up to now is        6.5 secs

     total energy              =     -31.47162371 Ry
     Harris-Foulkes estimate   =     -31.49324419 Ry
     estimated scf accuracy    <       1.17309323 Ry

     iteration #  6     ecut=    30.00 Ry     beta=0.70
     Davidson diagonalization with overlap
     ethr =  8.61E-04,  avg # of iterations =  1.0

     negative rho (up, down):  9.799E-04 0.000E+00

     total cpu time spent up to now is        6.6 secs

     total energy              =     -31.49165080 Ry
     Harris-Foulkes estimate   =     -31.48940551 Ry
     estimated scf accuracy    <       0.05887174 Ry

     iteration #  7     ecut=    30.00 Ry     beta=0.70
     Davidson diagonalization with overlap
     ethr =  7.36E-04,  avg # of iterations =  1.0

     negative rho (up, down):  8.349E-05 0.000E+00

     total cpu time spent up to now is        6.6 secs

     total energy              =     -31.48940394 Ry
     Harris-Foulkes estimate   =     -31.49172562 Ry
     estimated scf accuracy    <       0.08116844 Ry

     iteration #  8     ecut=    30.00 Ry     beta=0.70
     Davidson diagonalization with overlap
     ethr =  7.36E-04,  avg # of iterations =  1.0

     negative rho (up, down):  1.779E-06 0.000E+00

     total cpu time spent up to now is        6.6 secs

     total energy              =     -31.49173946 Ry
     Harris-Foulkes estimate   =     -31.49153708 Ry
     estimated scf accuracy    <       0.03472789 Ry

     iteration #  9     ecut=    30.00 Ry     beta=0.70
     Davidson diagonalization with overlap
     ethr =  4.34E-04,  avg # of iterations =  1.0

     total cpu time spent up to now is        6.7 secs

     total energy              =     -31.49051037 Ry
     Harris-Foulkes estimate   =     -31.49177698 Ry
     estimated scf accuracy    <       0.05829999 Ry

     iteration # 10     ecut=    30.00 Ry     beta=0.70
     Davidson diagonalization with overlap
     ethr =  4.34E-04,  avg # of iterations =  1.0

     total cpu time spent up to now is        6.7 secs

     total energy              =     -31.49121548 Ry
     Harris-Foulkes estimate   =     -31.49122116 Ry
     estimated scf accuracy    <       0.00104326 Ry

     iteration # 11     ecut=    30.00 Ry     beta=0.70
     Davidson diagonalization with overlap
     ethr =  1.30E-05,  avg # of iterations = 15.0

     total cpu time spent up to now is        6.8 secs

     total energy              =     -31.49120636 Ry
     Harris-Foulkes estimate   =     -31.49121669 Ry
     estimated scf accuracy    <       0.00057500 Ry

     iteration # 12     ecut=    30.00 Ry     beta=0.70
     Davidson diagonalization with overlap
     ethr =  7.19E-06,  avg # of iterations =  1.0

     total cpu time spent up to now is        6.8 secs

     total energy              =     -31.49121106 Ry
     Harris-Foulkes estimate   =     -31.49121109 Ry
     estimated scf accuracy    <       0.00000415 Ry

     iteration # 13     ecut=    30.00 Ry     beta=0.70
     Davidson diagonalization with overlap
     ethr =  5.18E-08,  avg # of iterations =  3.0

     total cpu time spent up to now is        6.8 secs

     total energy              =     -31.49121024 Ry
     Harris-Foulkes estimate   =     -31.49121120 Ry
     estimated scf accuracy    <       0.00002874 Ry

     iteration # 14     ecut=    30.00 Ry     beta=0.70
     Davidson diagonalization with overlap
     ethr =  5.18E-08,  avg # of iterations =  1.0

     total cpu time spent up to now is        6.9 secs

     total energy              =     -31.49121051 Ry
     Harris-Foulkes estimate   =     -31.49121058 Ry
     estimated scf accuracy    <       0.00000004 Ry

     iteration # 15     ecut=    30.00 Ry     beta=0.70
     Davidson diagonalization with overlap
     ethr =  4.45E-10,  avg # of iterations =  1.0

     total cpu time spent up to now is        6.9 secs

     End of self-consistent calculation

          k = 0.0000 0.0000 0.0000 ( 22119 PWs)   bands (ev):

   -23.5937  -7.0231  -7.0062  -7.0061  -6.9025  -6.8838  -0.2288   0.6077

     the Fermi energy is    -6.8718 ev

!    total energy              =     -31.49121041 Ry
     Harris-Foulkes estimate   =     -31.49121051 Ry
     estimated scf accuracy    <          4.5E-10 Ry

     convergence has been achieved in  15 iterations

     Forces acting on atoms (Ry/au):

     atom    1 type  1   force =     0.00018453   -0.00051632   -0.00040264
     atom    2 type  1   force =    -0.00060057    0.00045924   -0.00031765
     atom    3 type  2   force =     0.00041605    0.00005708    0.00072029

     Total force =     0.001353     Total SCF correction =     0.000734
     SCF correction compared to forces is large: reduce conv_thr to get better values

     Entering Dynamics:    iteration =     7
                           time      =   0.0339 pico-seconds


     Andersen thermostat:    3 collisions

ATOMIC_POSITIONS (bohr)
H       17.411733885  14.077165285  17.312449765
H        9.149231161  -0.022753745   5.351626378
O        3.822442190   6.497337315   5.904592987


     kinetic energy (Ekin) =     0.02703380 Ry
     temperature           =  1422.76490777 K 
     Ekin + Etot (const)   =   -31.46417661 Ry
     Message from routine dynamics:
     Total linear momentum <> 0

     Linear momentum :    0.3369831543    0.0658291931   -0.4746217505

     Writing output data file pwscf.save

     second order wave-functions extrapolation
     Check: negative starting charge=   -0.348848
     second order charge density extrapolation
     Check: negative starting charge=   -0.349030

     negative rho (up, down):  5.719E-02 0.000E+00

     total cpu time spent up to now is        7.2 secs

     per-process dynamical memory:    20.4 Mb

     Self-consistent Calculation

     iteration #  1     ecut=    30.00 Ry     beta=0.70
     Davidson diagonalization with overlap
     ethr =  1.00E-06,  avg # of iterations = 18.0

     negative rho (up, down):  1.330E-02 0.000E+00

     total cpu time spent up to now is        7.5 secs

     total energy              =     -30.55571169 Ry
     Harris-Foulkes estimate   =     -31.68234007 Ry
     estimated scf accuracy    <       1.03653897 Ry

     iteration #  2     ecut=    30.00 Ry     beta=0.70
     Davidson diagonalization with overlap
     ethr =  1.00E-02,  avg # of iterations =  2.0

     negative rho (up, down):  1.055E-02 0.000E+00

     total cpu time spent up to now is        7.5 secs

     total energy              =     -31.49061247 Ry
     Harris-Foulkes estimate   =     -33.29524733 Ry
     estimated scf accuracy    <       5.63251400 Ry

     iteration #  3     ecut=    30.00 Ry     beta=0.70
     Davidson diagonalization with overlap
     ethr =  1.00E-02,  avg # of iterations =  2.0

     negative rho (up, down):  8.720E-03 0.000E+00

     total cpu time spent up to now is        7.6 secs

     total energy              =     -31.78444783 Ry
     Harris-Foulkes estimate   =     -32.31465269 Ry
     estimated scf accuracy    <       2.21933113 Ry

     iteration #  4     ecut=    30.00 Ry     beta=0.70
     Davidson diagonalization with overlap
     ethr =  1.00E-02,  avg # of iterations =  2.0

     negative rho (up, down):  8.586E-03 0.000E+00

     total cpu time spent up to now is        7.6 secs

     total energy              =     -31.76380433 Ry
     Harris-Foulkes estimate   =     -31.79334084 Ry
     estimated scf accuracy    <       1.65686039 Ry

     iteration #  5     ecut=    30.00 Ry     beta=0.70
     Davidson diagonalization with overlap
     ethr =  1.00E-02,  avg # of iterations =  1.0

     negative rho (up, down):  6.558E-03 0.000E+00

     total cpu time spent up to now is        7.6 secs

     total energy              =     -31.51633030 Ry
     Harris-Foulkes estimate   =     -31.76787710 Ry
     estimated scf accuracy    <       1.07175376 Ry

     iteration #  6     ecut=    30.00 Ry     beta=0.70
     Davidson diagonalization with overlap
     ethr =  1.00E-02,  avg # of iterations =  1.0

     negative rho (up, down):  4.348E-03 0.000E+00

     total cpu time spent up to now is        7.6 secs

     total energy              =     -31.37350938 Ry
     Harris-Foulkes estimate   =     -31.57882825 Ry
     estimated scf accuracy    <       2.68324436 Ry

     iteration #  7     ecut=    30.00 Ry     beta=0.70
     Davidson diagonalization with overlap
     ethr =  1.00E-02,  avg # of iterations =  1.0

     negative rho (up, down):  3.657E-03 0.000E+00

     total cpu time spent up to now is        7.7 secs

     total energy              =     -31.49000961 Ry
     Harris-Foulkes estimate   =     -31.74894686 Ry
     estimated scf accuracy    <       1.40295292 Ry

     iteration #  8     ecut=    30.00 Ry     beta=0.70
     Davidson diagonalization with overlap
     ethr =  1.00E-02,  avg # of iterations =  1.0

     negative rho (up, down):  3.162E-03 0.000E+00

     total cpu time spent up to now is        7.7 secs

     total energy              =     -31.53146040 Ry
     Harris-Foulkes estimate   =     -31.52073931 Ry
     estimated scf accuracy    <       1.50682353 Ry

     iteration #  9     ecut=    30.00 Ry     beta=0.70
     Davidson diagonalization with overlap
     ethr =  1.00E-02,  avg # of iterations =  1.0

     negative rho (up, down):  4.980E-05 0.000E+00

     total cpu time spent up to now is        7.7 secs

     total energy              =     -31.36681704 Ry
     Harris-Foulkes estimate   =     -31.56261965 Ry
     estimated scf accuracy    <       1.80506175 Ry

     iteration # 10     ecut=    30.00 Ry     beta=0.70
     Davidson diagonalization with overlap
     ethr =  1.00E-02,  avg # of iterations =  1.0

     negative rho (up, down):  1.964E-06 0.000E+00

     total cpu time spent up to now is        7.8 secs

     total energy              =     -31.63616807 Ry
     Harris-Foulkes estimate   =     -31.60410070 Ry
     estimated scf accuracy    <       3.49197695 Ry

     iteration # 11     ecut=    30.00 Ry     beta=0.70
     Davidson diagonalization with overlap
     ethr =  1.00E-02,  avg # of iterations =  1.0

     negative rho (up, down):  8.421E-06 0.000E+00

     total cpu time spent up to now is        7.8 secs

     total energy              =     -31.60449578 Ry
     Harris-Foulkes estimate   =     -31.63702151 Ry
     estimated scf accuracy    <       4.04026484 Ry

     iteration # 12     ecut=    30.00 Ry     beta=0.70
     Davidson diagonalization with overlap
     ethr =  1.00E-02,  avg # of iterations =  1.0

     negative rho (up, down):  8.586E-08 0.000E+00

     total cpu time spent up to now is        7.9 secs

     total energy              =     -31.66308163 Ry
     Harris-Foulkes estimate   =     -31.60492836 Ry
     estimated scf accuracy    <       3.52356350 Ry

     iteration # 13     ecut=    30.00 Ry     beta=0.70
     Davidson diagonalization with overlap
     ethr =  1.00E-02,  avg # of iterations =  1.0

     negative rho (up, down):  4.182E-05 0.000E+00

     total cpu time spent up to now is        7.9 secs

     total energy              =     -31.97176413 Ry
     Harris-Foulkes estimate   =     -31.67409794 Ry
     estimated scf accuracy    <       1.57200896 Ry

     iteration # 14     ecut=    30.00 Ry     beta=0.70
     Davidson diagonalization with overlap
     ethr =  1.00E-02,  avg # of iterations =  1.0

     negative rho (up, down):  2.596E-05 0.000E+00

     total cpu time spent up to now is        7.9 secs

     total energy              =     -31.88267940 Ry
     Harris-Foulkes estimate   =     -31.98245773 Ry
     estimated scf accuracy    <       3.07504584 Ry

     iteration # 15     ecut=    30.00 Ry     beta=0.70
     Davidson diagonalization with overlap
     ethr =  1.00E-02,  avg # of iterations =  1.0

     negative rho (up, down):  1.665E-04 0.000E+00

     total cpu time spent up to now is        8.0 secs

     total energy              =     -31.69874830 Ry
     Harris-Foulkes estimate   =     -31.88364243 Ry
     estimated scf accuracy    <       3.25509159 Ry

     iteration # 16     ecut=    30.00 Ry     beta=0.70
     Davidson diagonalization with overlap
     ethr =  1.00E-02,  avg # of iterations =  1.0

     negative rho (up, down):  2.045E-05 0.000E+00

     total cpu time spent up to now is        8.0 secs

     total energy              =     -31.35790205 Ry
     Harris-Foulkes estimate   =     -31.70279486 Ry
     estimated scf accuracy    <       2.18572813 Ry

     iteration # 17     ecut=    30.00 Ry     beta=0.70
     Davidson diagonalization with overlap
     ethr =  1.00E-02,  avg # of iterations =  1.0

     negative rho (up, down):  2.246E-07 0.000E+00

     total cpu time spent up to now is        8.0 secs

     total energy              =     -31.53638155 Ry
     Harris-Foulkes estimate   =     -31.57222797 Ry
     estimated scf accuracy    <       1.37513919 Ry

     iteration # 18     ecut=    30.00 Ry     beta=0.70
     Davidson diagonalization with overlap
     ethr =  1.00E-02,  avg # of iterations =  1.0

     negative rho (up, down):  8.614E-08 0.000E+00

     total cpu time spent up to now is        8.1 secs

     total energy              =     -31.50266541 Ry
     Harris-Foulkes estimate   =     -31.53735557 Ry
     estimated scf accuracy    <       1.71233668 Ry

     iteration # 19     ecut=    30.00 Ry     beta=0.70
     Davidson diagonalization with overlap
     ethr =  1.00E-02,  avg # of iterations =  1.0

     total cpu time spent up to now is        8.1 secs

     total energy              =     -31.44201954 Ry
     Harris-Foulkes estimate   =     -31.50485223 Ry
     estimated scf accuracy    <       1.10088555 Ry

     iteration # 20     ecut=    30.00 Ry     beta=0.70
     Davidson diagonalization with overlap
     ethr =  1.00E-02,  avg # of iterations =  1.0

     total cpu time spent up to now is        8.1 secs

     total energy              =     -31.59787408 Ry
     Harris-Foulkes estimate   =     -31.55376946 Ry
     estimated scf accuracy    <       0.99823250 Ry

     iteration # 21     ecut=    30.00 Ry     beta=0.70
     Davidson diagonalization with overlap
     ethr =  1.00E-02,  avg # of iterations =  1.0

     negative rho (up, down):  3.551E-08 0.000E+00

     total cpu time spent up to now is        8.2 secs

     total energy              =     -31.58014655 Ry
     Harris-Foulkes estimate   =     -31.59793930 Ry
     estimated scf accuracy    <       1.11523060 Ry

     iteration # 22     ecut=    30.00 Ry     beta=0.70
     Davidson diagonalization with overlap
     ethr =  1.00E-02,  avg # of iterations =  1.0

     negative rho (up, down):  1.308E-07 0.000E+00

     total cpu time spent up to now is        8.2 secs

     total energy              =     -31.58041298 Ry
     Harris-Foulkes estimate   =     -31.58021226 Ry
     estimated scf accuracy    <       1.11773942 Ry

     iteration # 23     ecut=    30.00 Ry     beta=0.70
     Davidson diagonalization with overlap
     ethr =  1.00E-02,  avg # of iterations =  1.0

     negative rho (up, down):  4.433E-08 0.000E+00

     total cpu time spent up to now is        8.2 secs

     total energy              =     -31.57931396 Ry
     Harris-Foulkes estimate   =     -31.58041605 Ry
     estimated scf accuracy    <       1.11730326 Ry

     iteration # 24     ecut=    30.00 Ry     beta=0.70
     Davidson diagonalization with overlap
     ethr =  1.00E-02,  avg # of iterations =  1.0

     negative rho (up, down):  5.840E-07 0.000E+00

     total cpu time spent up to now is        8.3 secs

     total energy              =     -31.58828351 Ry
     Harris-Foulkes estimate   =     -31.57931527 Ry
     estimated scf accuracy    <       1.11210254 Ry

     iteration # 25     ecut=    30.00 Ry     beta=0.70
     Davidson diagonalization with overlap
     ethr =  1.00E-02,  avg # of iterations =  1.0

     negative rho (up, down):  7.065E-07 0.000E+00

     total cpu time spent up to now is        8.3 secs

     total energy              =     -31.58670640 Ry
     Harris-Foulkes estimate   =     -31.58829135 Ry
     estimated scf accuracy    <       1.12614376 Ry

     iteration # 26     ecut=    30.00 Ry     beta=0.70
     Davidson diagonalization with overlap
     ethr =  1.00E-02,  avg # of iterations =  1.0

     negative rho (up, down):  1.298E-06 0.000E+00

     total cpu time spent up to now is        8.4 secs

     total energy              =     -31.58546678 Ry
     Harris-Foulkes estimate   =     -31.58670698 Ry
     estimated scf accuracy    <       1.12194106 Ry

     iteration # 27     ecut=    30.00 Ry     beta=0.70
     Davidson diagonalization with overlap
     ethr =  1.00E-02,  avg # of iterations =  1.0

     negative rho (up, down):  5.672E-07 0.000E+00

     total cpu time spent up to now is        8.4 secs

     total energy              =     -31.58666915 Ry
     Harris-Foulkes estimate   =     -31.58546718 Ry
     estimated scf accuracy    <       1.11916474 Ry

     iteration # 28     ecut=    30.00 Ry     beta=0.70
     Davidson diagonalization with overlap
     ethr =  1.00E-02,  avg # of iterations =  1.0

     negative rho (up, down):  3.435E-02 0.000E+00

     total cpu time spent up to now is        8.4 secs

     total energy              =     -30.80003675 Ry
     Harris-Foulkes estimate   =     -31.58666941 Ry
     estimated scf accuracy    <       1.12211248 Ry

     iteration # 29     ecut=    30.00 Ry     beta=0.70
     Davidson diagonalization with overlap
     ethr =  1.00E-02,  avg # of iterations =  2.0

     negative rho (up, down):  1.581E-05 0.000E+00

     total cpu time spent up to now is        8.5 secs

     total energy              =     -31.95970198 Ry
     Harris-Foulkes estimate   =     -32.86064782 Ry
     estimated scf accuracy    <       3.94737355 Ry

     iteration # 30     ecut=    30.00 Ry     beta=0.70
     Davidson diagonalization with overlap
     ethr =  1.00E-02,  avg # of iterations =  2.0

     negative rho (up, down):  7.417E-07 0.000E+00

     total cpu time spent up to now is        8.5 secs

     total energy              =     -31.77346022 Ry
     Harris-Foulkes estimate   =     -31.99103889 Ry
     estimated scf accuracy    <       1.30982776 Ry

     iteration # 31     ecut=    30.00 Ry     beta=0.70
     Davidson diagonalization with overlap
     ethr =  1.00E-02,  avg # of iterations =  1.0

     negative rho (up, down):  2.458E-08 0.000E+00

[...]

     total energy              =      45.97120555 Ry
     Harris-Foulkes estimate   =  -12706.20820470 Ry
     estimated scf accuracy    <      49.58910786 Ry

     iteration # 59     ecut=    30.00 Ry     beta=0.70
     Davidson diagonalization with overlap
     ethr =  1.00E-02,  avg # of iterations = 10.0

     negative rho (up, down):  2.149E+00 0.000E+00

     total cpu time spent up to now is       15.4 secs

     total energy              =    -150.33643953 Ry
     Harris-Foulkes estimate   =    -851.18500542 Ry
     estimated scf accuracy    <      42.53737197 Ry

     iteration # 60     ecut=    30.00 Ry     beta=0.70
     Davidson diagonalization with overlap
     ethr =  1.00E-02,  avg # of iterations =  9.0

     negative rho (up, down):  2.730E+00 0.000E+00

     total cpu time spent up to now is       15.5 secs

     total energy              =    -338.29525954 Ry
     Harris-Foulkes estimate   =   -8224.70145145 Ry
     estimated scf accuracy    <      46.60191986 Ry

     iteration # 61     ecut=    30.00 Ry     beta=0.70
     Davidson diagonalization with overlap
     ethr =  1.00E-02,  avg # of iterations =  9.0

     negative rho (up, down):  2.782E+00 0.000E+00

     total cpu time spent up to now is       15.5 secs

     total energy              =      24.41171673 Ry
     Harris-Foulkes estimate   =   -6311.63721861 Ry
     estimated scf accuracy    <      33.73124722 Ry

     iteration # 62     ecut=    30.00 Ry     beta=0.70
     Davidson diagonalization with overlap
     ethr =  1.00E-02,  avg # of iterations =  8.0

     negative rho (up, down):  2.465E+00 0.000E+00

     total cpu time spent up to now is       15.6 secs

     total energy              =    -139.25630979 Ry
     Harris-Foulkes estimate   =   -1796.92915818 Ry
     estimated scf accuracy    <      43.11145758 Ry

     iteration # 63     ecut=    30.00 Ry     beta=0.70
     Davidson diagonalization with overlap
     ethr =  1.00E-02,  avg # of iterations =  8.0

     negative rho (up, down):  2.336E+00 0.000E+00

     total cpu time spent up to now is       15.7 secs

     total energy              =    -856.87337995 Ry
     Harris-Foulkes estimate   =   -2093.36746097 Ry
     estimated scf accuracy    <      31.73000517 Ry

     iteration # 64     ecut=    30.00 Ry     beta=0.70
     Davidson diagonalization with overlap
     ethr =  1.00E-02,  avg # of iterations =  8.0

     negative rho (up, down):  1.905E+00 0.000E+00

     total cpu time spent up to now is       15.7 secs

     total energy              =   -1987.93481720 Ry
     Harris-Foulkes estimate   =   -3486.69002373 Ry
     estimated scf accuracy    <      31.36138045 Ry

     iteration # 65     ecut=    30.00 Ry     beta=0.70
     Davidson diagonalization with overlap
     ethr =  1.00E-02,  avg # of iterations =  8.0

     negative rho (up, down):  1.747E+00 0.000E+00

     total cpu time spent up to now is       15.8 secs

     total energy              =    -196.98551829 Ry
     Harris-Foulkes estimate   =  -20989.78784504 Ry
     estimated scf accuracy    <      28.45813237 Ry

     iteration # 66     ecut=    30.00 Ry     beta=0.70
     Davidson diagonalization with overlap
     ethr =  1.00E-02,  avg # of iterations =  8.0

     negative rho (up, down):  2.077E-01 0.000E+00

     total cpu time spent up to now is       15.8 secs

     total energy              =      73.83580455 Ry
     Harris-Foulkes estimate   =  -11406.48938876 Ry
     estimated scf accuracy    <      32.43899391 Ry

     iteration # 67     ecut=    30.00 Ry     beta=0.70
     Davidson diagonalization with overlap
     ethr =  1.00E-02,  avg # of iterations =  8.0

     negative rho (up, down):  2.821E-01 0.000E+00

     total cpu time spent up to now is       15.9 secs

     total energy              =    1563.91615718 Ry
     Harris-Foulkes estimate   =    -830.27317284 Ry
     estimated scf accuracy    <      24.00151909 Ry

     iteration # 68     ecut=    30.00 Ry     beta=0.70
     Davidson diagonalization with overlap
     ethr =  1.00E-02,  avg # of iterations =  7.0

     negative rho (up, down):  3.941E-01 0.000E+00

     total cpu time spent up to now is       15.9 secs

     total energy              =   -7811.58509291 Ry
     Harris-Foulkes estimate   =    -793.36579266 Ry
     estimated scf accuracy    <      24.92896751 Ry

     iteration # 69     ecut=    30.00 Ry     beta=0.70
     Davidson diagonalization with overlap
     ethr =  1.00E-02,  avg # of iterations =  7.0

     negative rho (up, down):  3.646E-01 0.000E+00

     total cpu time spent up to now is       16.0 secs

     total energy              =      47.74338576 Ry
     Harris-Foulkes estimate   =  -30304.55654564 Ry
     estimated scf accuracy    <      20.86164570 Ry

     iteration # 70     ecut=    30.00 Ry     beta=0.70
     Davidson diagonalization with overlap
     ethr =  1.00E-02,  avg # of iterations =  6.0

     negative rho (up, down):  2.434E-01 0.000E+00

     total cpu time spent up to now is       16.1 secs

     total energy              =   -7242.16835392 Ry
     Harris-Foulkes estimate   =    -664.68473995 Ry
     estimated scf accuracy    <      21.91549688 Ry

     iteration # 71     ecut=    30.00 Ry     beta=0.70
     Davidson diagonalization with overlap
     ethr =  1.00E-02,  avg # of iterations =  6.0

     negative rho (up, down):  1.898E-01 0.000E+00

     total cpu time spent up to now is       16.1 secs

     total energy              =      84.83194572 Ry
     Harris-Foulkes estimate   =  -21299.37091940 Ry
     estimated scf accuracy    <      30.83537817 Ry

     iteration # 72     ecut=    30.00 Ry     beta=0.70
     Davidson diagonalization with overlap
     ethr =  1.00E-02,  avg # of iterations =  8.0

     negative rho (up, down):  1.608E-01 0.000E+00

     total cpu time spent up to now is       16.2 secs

     total energy              =      14.72634722 Ry
     Harris-Foulkes estimate   =    -142.29375755 Ry
     estimated scf accuracy    <      15.46088552 Ry

     iteration # 73     ecut=    30.00 Ry     beta=0.70
     Davidson diagonalization with overlap
     ethr =  1.00E-02,  avg # of iterations =  5.0

     negative rho (up, down):  7.978E-03 0.000E+00

     total cpu time spent up to now is       16.2 secs

     total energy              =    -210.08345105 Ry
     Harris-Foulkes estimate   =    -167.35500824 Ry
     estimated scf accuracy    <      19.13966062 Ry

     iteration # 74     ecut=    30.00 Ry     beta=0.70
     Davidson diagonalization with overlap
     ethr =  1.00E-02,  avg # of iterations =  5.0

     negative rho (up, down):  4.642E-05 0.000E+00

     total cpu time spent up to now is       16.3 secs

     total energy              =      80.60873652 Ry
     Harris-Foulkes estimate   =   -2421.07551647 Ry
     estimated scf accuracy    <      20.96118504 Ry

     iteration # 75     ecut=    30.00 Ry     beta=0.70
     Davidson diagonalization with overlap
     ethr =  1.00E-02,  avg # of iterations =  9.0

     total cpu time spent up to now is       16.3 secs

     total energy              =     -33.09584843 Ry
     Harris-Foulkes estimate   =     -36.66808421 Ry
     estimated scf accuracy    <      13.08699036 Ry

     iteration # 76     ecut=    30.00 Ry     beta=0.70
     Davidson diagonalization with overlap
     ethr =  1.00E-02,  avg # of iterations =  2.0

     negative rho (up, down):  1.409E-06 0.000E+00

     total cpu time spent up to now is       16.4 secs

     total energy              =     -32.87151970 Ry
     Harris-Foulkes estimate   =     -33.93776076 Ry
     estimated scf accuracy    <       6.20758423 Ry

     iteration # 77     ecut=    30.00 Ry     beta=0.70
     Davidson diagonalization with overlap
     ethr =  1.00E-02,  avg # of iterations =  2.0

     negative rho (up, down):  3.085E-02 0.000E+00

     total cpu time spent up to now is       16.4 secs

     total energy              =     -30.89860200 Ry
     Harris-Foulkes estimate   =     -33.50222942 Ry
     estimated scf accuracy    <       7.74065638 Ry

     iteration # 78     ecut=    30.00 Ry     beta=0.70
     Davidson diagonalization with overlap
     ethr =  1.00E-02,  avg # of iterations =  4.0

     negative rho (up, down):  4.775E-02 0.000E+00

     total cpu time spent up to now is       16.5 secs

     total energy              =      10.76020430 Ry
     Harris-Foulkes estimate   =    -171.38195210 Ry
     estimated scf accuracy    <      17.26163139 Ry

     iteration # 79     ecut=    30.00 Ry     beta=0.70
     Davidson diagonalization with overlap
     ethr =  1.00E-02,  avg # of iterations =  4.0

     negative rho (up, down):  5.153E-03 0.000E+00

     total cpu time spent up to now is       16.5 secs

     total energy              =       5.76252435 Ry
     Harris-Foulkes estimate   =    -368.07653557 Ry
     estimated scf accuracy    <       9.12489753 Ry

     iteration # 80     ecut=    30.00 Ry     beta=0.70
     Davidson diagonalization with overlap
     ethr =  1.00E-02,  avg # of iterations =  4.0

     negative rho (up, down):  7.143E-03 0.000E+00

     total cpu time spent up to now is       16.5 secs

     total energy              =     -13.01210601 Ry
     Harris-Foulkes estimate   =     -44.48777078 Ry
     estimated scf accuracy    <       7.78053070 Ry

     iteration # 81     ecut=    30.00 Ry     beta=0.70
     Davidson diagonalization with overlap
     ethr =  1.00E-02,  avg # of iterations =  4.0

     negative rho (up, down):  6.858E-02 0.000E+00

     total cpu time spent up to now is       16.6 secs

     total energy              =     -23.55187583 Ry
     Harris-Foulkes estimate   =     -52.63996820 Ry
     estimated scf accuracy    <       7.49804563 Ry

     iteration # 82     ecut=    30.00 Ry     beta=0.70
     Davidson diagonalization with overlap
     ethr =  1.00E-02,  avg # of iterations =  4.0

     negative rho (up, down):  6.204E-02 0.000E+00

     total cpu time spent up to now is       16.6 secs

     total energy              =      11.12587838 Ry
     Harris-Foulkes estimate   =    -139.02058997 Ry
     estimated scf accuracy    <      17.57991859 Ry

     iteration # 83     ecut=    30.00 Ry     beta=0.70
     Davidson diagonalization with overlap
     ethr =  1.00E-02,  avg # of iterations =  4.0

     negative rho (up, down):  2.141E-01 0.000E+00

     total cpu time spent up to now is       16.7 secs

     total energy              =      13.51298235 Ry
     Harris-Foulkes estimate   =    -215.26769017 Ry
     estimated scf accuracy    <      13.16947883 Ry

     iteration # 84     ecut=    30.00 Ry     beta=0.70
     Davidson diagonalization with overlap
     ethr =  1.00E-02,  avg # of iterations =  4.0

     negative rho (up, down):  1.557E-01 0.000E+00

     total cpu time spent up to now is       16.7 secs

     total energy              =     -44.36630833 Ry
     Harris-Foulkes estimate   =    -820.06775414 Ry
     estimated scf accuracy    <      30.78329149 Ry

     iteration # 85     ecut=    30.00 Ry     beta=0.70
     Davidson diagonalization with overlap
     ethr =  1.00E-02,  avg # of iterations =  4.0

     negative rho (up, down):  1.730E-01 0.000E+00

     total cpu time spent up to now is       16.8 secs

     total energy              =    -935.16562312 Ry
     Harris-Foulkes estimate   =    -934.83041382 Ry
     estimated scf accuracy    <      50.99084811 Ry

     iteration # 86     ecut=    30.00 Ry     beta=0.70
     Davidson diagonalization with overlap
     ethr =  1.00E-02,  avg # of iterations =  5.0

     negative rho (up, down):  3.296E-01 0.000E+00

     total cpu time spent up to now is       16.8 secs

     total energy              =    -684.35467746 Ry
     Harris-Foulkes estimate   =   -6957.75109164 Ry
     estimated scf accuracy    <      46.38582650 Ry

     iteration # 87     ecut=    30.00 Ry     beta=0.70
     Davidson diagonalization with overlap
     ethr =  1.00E-02,  avg # of iterations =  5.0

     negative rho (up, down):  2.261E-01 0.000E+00

     total cpu time spent up to now is       16.9 secs

     total energy              =      57.68148524 Ry
     Harris-Foulkes estimate   =   -1721.73414139 Ry
     estimated scf accuracy    <      46.48920410 Ry

     iteration # 88     ecut=    30.00 Ry     beta=0.70
     Davidson diagonalization with overlap
     ethr =  1.00E-02,  avg # of iterations =  6.0

     negative rho (up, down):  6.128E-01 0.000E+00

     total cpu time spent up to now is       16.9 secs

     total energy              =    -342.52549017 Ry
     Harris-Foulkes estimate   =   -1630.88995025 Ry
     estimated scf accuracy    <      41.94845403 Ry

     iteration # 89     ecut=    30.00 Ry     beta=0.70
     Davidson diagonalization with overlap
     ethr =  1.00E-02,  avg # of iterations =  8.0

     negative rho (up, down):  7.910E-01 0.000E+00

     total cpu time spent up to now is       17.0 secs

     total energy              =    -198.92723091 Ry
     Harris-Foulkes estimate   =  -17372.84751208 Ry
     estimated scf accuracy    <      34.77088707 Ry

     iteration # 90     ecut=    30.00 Ry     beta=0.70
     Davidson diagonalization with overlap
     ethr =  1.00E-02,  avg # of iterations =  7.0

     negative rho (up, down):  1.180E+00 0.000E+00

     total cpu time spent up to now is       17.0 secs

     total energy              =     257.24407984 Ry
     Harris-Foulkes estimate   =   -4248.54664438 Ry
     estimated scf accuracy    <      45.10550172 Ry

     iteration # 91     ecut=    30.00 Ry     beta=0.70
     Davidson diagonalization with overlap
     ethr =  1.00E-02,  avg # of iterations =  9.0

     negative rho (up, down):  1.793E+00 0.000E+00

     total cpu time spent up to now is       17.1 secs

     total energy              =     -74.24217183 Ry
     Harris-Foulkes estimate   =   -8428.91446068 Ry
     estimated scf accuracy    <      40.99669490 Ry

     iteration # 92     ecut=    30.00 Ry     beta=0.70
     Davidson diagonalization with overlap
     ethr =  1.00E-02,  avg # of iterations =  9.0

     negative rho (up, down):  1.055E+00 0.000E+00

     total cpu time spent up to now is       17.1 secs

     total energy              =      95.70464170 Ry
     Harris-Foulkes estimate   =   -4275.20435074 Ry
     estimated scf accuracy    <      36.16088912 Ry

     iteration # 93     ecut=    30.00 Ry     beta=0.70
     Davidson diagonalization with overlap
     ethr =  1.00E-02,  avg # of iterations =  9.0

     negative rho (up, down):  1.852E+00 0.000E+00

     total cpu time spent up to now is       17.2 secs

     total energy              =    -128.95900273 Ry
     Harris-Foulkes estimate   =    -938.87264692 Ry
     estimated scf accuracy    <      17.91767354 Ry

     iteration # 94     ecut=    30.00 Ry     beta=0.70
     Davidson diagonalization with overlap
     ethr =  1.00E-02,  avg # of iterations =  9.0

     negative rho (up, down):  9.678E-01 0.000E+00

     total cpu time spent up to now is       17.3 secs

     total energy              =   -2171.78166958 Ry
     Harris-Foulkes estimate   =   -7913.58556811 Ry
     estimated scf accuracy    <      22.58125317 Ry

     iteration # 95     ecut=    30.00 Ry     beta=0.70
     Davidson diagonalization with overlap
     ethr =  1.00E-02,  avg # of iterations =  5.0

     negative rho (up, down):  1.680E-01 0.000E+00

     total cpu time spent up to now is       17.3 secs

     total energy              =     123.13551688 Ry
     Harris-Foulkes estimate   =  -53072.06345888 Ry
     estimated scf accuracy    <      21.36210959 Ry

     iteration # 96     ecut=    30.00 Ry     beta=0.70
     Davidson diagonalization with overlap
     ethr =  1.00E-02,  avg # of iterations =  9.0

     negative rho (up, down):  2.047E-01 0.000E+00

     total cpu time spent up to now is       17.4 secs

     total energy              =    1896.35621540 Ry
     Harris-Foulkes estimate   =    -339.57244992 Ry
     estimated scf accuracy    <      24.62776165 Ry

     iteration # 97     ecut=    30.00 Ry     beta=0.70
     Davidson diagonalization with overlap
     ethr =  1.00E-02,  avg # of iterations = 10.0

     negative rho (up, down):  2.370E-01 0.000E+00

     total cpu time spent up to now is       17.4 secs

     total energy              =     114.91777499 Ry
     Harris-Foulkes estimate   =    -859.17463708 Ry
     estimated scf accuracy    <      26.35762576 Ry

     iteration # 98     ecut=    30.00 Ry     beta=0.70
     Davidson diagonalization with overlap
     ethr =  1.00E-02,  avg # of iterations =  8.0

     negative rho (up, down):  1.574E-02 0.000E+00

     total cpu time spent up to now is       17.5 secs

     total energy              =     -13.02233017 Ry
     Harris-Foulkes estimate   =     -84.06921285 Ry
     estimated scf accuracy    <      30.40675817 Ry

     iteration # 99     ecut=    30.00 Ry     beta=0.70
     Davidson diagonalization with overlap
     ethr =  1.00E-02,  avg # of iterations =  5.0

     negative rho (up, down):  1.060E-02 0.000E+00

     total cpu time spent up to now is       17.5 secs

     total energy              =     -12.47534929 Ry
     Harris-Foulkes estimate   =     -66.60126797 Ry
     estimated scf accuracy    <      18.98801250 Ry

     iteration #100     ecut=    30.00 Ry     beta=0.70
     Davidson diagonalization with overlap
     ethr =  1.00E-02,  avg # of iterations =  4.0

     negative rho (up, down):  9.529E-03 0.000E+00

     total cpu time spent up to now is       17.6 secs

     total energy              =      -3.03595474 Ry
     Harris-Foulkes estimate   =    -174.87918564 Ry
     estimated scf accuracy    <      14.92883458 Ry

     End of self-consistent calculation

     convergence NOT achieved after 100 iterations: stopping

     Writing output data file pwscf.save
 
     init_run     :      0.09s CPU      0.11s WALL (       1 calls)
     electrons    :     11.35s CPU     14.44s WALL (      12 calls)
     update_pot   :      1.39s CPU      1.97s WALL (      11 calls)
     forces       :      0.29s CPU      0.30s WALL (      11 calls)

     Called by init_run:
     wfcinit      :      0.01s CPU      0.03s WALL (       1 calls)
     potinit      :      0.02s CPU      0.03s WALL (       1 calls)

     Called by electrons:
     c_bands      :      5.23s CPU      5.50s WALL (     324 calls)
     sum_band     :      0.94s CPU      1.00s WALL (     324 calls)
     v_of_rho     :      2.45s CPU      2.70s WALL (     336 calls)
     mix_rho      :      2.12s CPU      3.66s WALL (     324 calls)

     Called by c_bands:
     init_us_2    :      0.03s CPU      0.04s WALL (     649 calls)
     cegterg      :      5.15s CPU      5.31s WALL (     324 calls)

     Called by sum_band:

     Called by *egterg:
     h_psi        :      4.30s CPU      4.41s WALL (    1605 calls)
     g_psi        :      0.04s CPU      0.04s WALL (    1280 calls)
     cdiaghg      :      0.32s CPU      0.33s WALL (    1593 calls)

     Called by h_psi:
     h_psi:pot    :      4.27s CPU      4.39s WALL (    1605 calls)
     h_psi:calbec :      0.07s CPU      0.08s WALL (    1605 calls)
     vloc_psi     :      4.18s CPU      4.29s WALL (    1605 calls)
     add_vuspsi   :      0.01s CPU      0.01s WALL (    1605 calls)

     General routines
     calbec       :      0.16s CPU      0.19s WALL (    1659 calls)
     fft          :      1.61s CPU      1.83s WALL (    3718 calls)
     fftw         :      4.36s CPU      4.50s WALL (   19624 calls)
     davcio       :      0.33s CPU      1.34s WALL (    5425 calls)
 
     Parallel routines
     fft_scatter  :      2.39s CPU      2.66s WALL (   23342 calls)
 
     PWSCF        :    13.48s CPU        17.67s WALL

 
   This run was terminated on:   2:59:28  11Feb2018            

=------------------------------------------------------------------------------=
   JOB DONE.
=------------------------------------------------------------------------------=
