
     Program PWSCF v.6.0 (svn rev. 13079) starts on 10Feb2018 at 23:38:50 

     This program is part of the open-source Quantum ESPRESSO suite
     for quantum simulation of materials; please cite
         "P. Giannozzi et al., J. Phys.:Condens. Matter 21 395502 (2009);
          URL http://www.quantum-espresso.org", 
     in publications or presentations arising from this work. More details at
     http://www.quantum-espresso.org/quote

     Parallel version (MPI), running on    28 processors
     R & G space division:  proc/nbgrp/npool/nimage =      28
     Reading input from inputs/water-1-md/9.in

     Current dimensions of program PWSCF are:
     Max number of different atomic species (ntypx) = 10
     Max number of k-points (npk) =  40000
     Max angular momentum in pseudopotentials (lmaxx) =  3

     Subspace diagonalization in iterative solution of the eigenvalue problem:
     a serial algorithm will be used

 
     Parallelization info
     --------------------
     sticks:   dense  smooth     PW     G-vecs:    dense   smooth      PW
     Min         136     136     33                 6338     6338     787
     Max         137     137     34                 6341     6341     792
     Sum        3809    3809    949               177509   177509   22119
 


     bravais-lattice index     =            1
     lattice parameter (alat)  =      20.0000  a.u.
     unit-cell volume          =    8000.0000 (a.u.)^3
     number of atoms/cell      =            3
     number of atomic types    =            2
     number of electrons       =         8.00
     number of Kohn-Sham states=            8
     kinetic-energy cutoff     =      30.0000  Ry
     charge density cutoff     =     120.0000  Ry
     convergence threshold     =      1.0E-08
     mixing beta               =       0.7000
     number of iterations used =            8  plain     mixing
     Exchange-correlation      = BLYP ( 1  3  1  3 0 0)
     nstep                     =         5000


     celldm(1)=  20.000000  celldm(2)=   0.000000  celldm(3)=   0.000000
     celldm(4)=   0.000000  celldm(5)=   0.000000  celldm(6)=   0.000000

     crystal axes: (cart. coord. in units of alat)
               a(1) = (   1.000000   0.000000   0.000000 )  
               a(2) = (   0.000000   1.000000   0.000000 )  
               a(3) = (   0.000000   0.000000   1.000000 )  

     reciprocal axes: (cart. coord. in units 2 pi/alat)
               b(1) = (  1.000000  0.000000  0.000000 )  
               b(2) = (  0.000000  1.000000  0.000000 )  
               b(3) = (  0.000000  0.000000  1.000000 )  


     PseudoPot. # 1 for  H read from file:
     ./H.blyp-hgh.UPF
     MD5 check sum: c576e69559cde411e611be972c763230
     Pseudo is Norm-conserving, Zval =  1.0
     Generated in analytical, separable form
     Using radial grid of  929 points,  0 beta functions with: 

     PseudoPot. # 2 for  O read from file:
     ./O.blyp-hgh.UPF
     MD5 check sum: d0b7156309aa9befef28faac7bc56342
     Pseudo is Norm-conserving, Zval =  6.0
     Generated in analytical, separable form
     Using radial grid of 1095 points,  1 beta functions with: 
                l(1) =   0

     atomic species   valence    mass     pseudopotential
        H              1.00     1.01000      H( 1.00)
        O              6.00    16.00000      O( 1.00)

     No symmetry found



   Cartesian axes

     site n.     atom                  positions (alat units)
         1           H   tau(   1) = (   0.3868402   0.8954954   0.9716064  )
         2           H   tau(   2) = (   0.3768162   0.0645333   0.3275312  )
         3           O   tau(   3) = (   0.0513215   0.5891812   0.9098487  )

     number of k points=     1  Marzari-Vanderbilt smearing, width (Ry)=  0.0250
                       cart. coord. in units 2pi/alat
        k(    1) = (   0.0000000   0.0000000   0.0000000), wk =   2.0000000

     Dense  grid:   177509 G-vectors     FFT dimensions: (  72,  72,  72)

     Estimated max dynamical RAM per process >       6.09Mb

     Estimated total allocated dynamical RAM >     170.64Mb

     Initial potential from superposition of free atoms
     Check: negative starting charge=   -0.353027

     starting charge    7.99998, renormalised to    8.00000

     negative rho (up, down):  3.530E-01 0.000E+00
     Starting wfc are    6 randomized atomic wfcs +    2 random wfc

     total cpu time spent up to now is        0.2 secs

     per-process dynamical memory:    18.8 Mb

     Self-consistent Calculation

     iteration #  1     ecut=    30.00 Ry     beta=0.70
     Davidson diagonalization with overlap
     ethr =  1.00E-02,  avg # of iterations =  8.0

     negative rho (up, down):  8.662E-02 0.000E+00

     total cpu time spent up to now is        0.3 secs

     total energy              =     -28.03423687 Ry
     Harris-Foulkes estimate   =     -32.07354786 Ry
     estimated scf accuracy    <       4.63640525 Ry

     iteration #  2     ecut=    30.00 Ry     beta=0.70
     Davidson diagonalization with overlap
     ethr =  1.00E-02,  avg # of iterations =  4.0

     negative rho (up, down):  6.347E-02 0.000E+00

     total cpu time spent up to now is        0.3 secs

     total energy              =     -32.68509620 Ry
     Harris-Foulkes estimate   =     -38.05016795 Ry
     estimated scf accuracy    <      13.05925012 Ry

     iteration #  3     ecut=    30.00 Ry     beta=0.70
     Davidson diagonalization with overlap
     ethr =  1.00E-02,  avg # of iterations =  2.0

     negative rho (up, down):  6.542E-02 0.000E+00

     total cpu time spent up to now is        0.3 secs

     total energy              =     -33.23070050 Ry
     Harris-Foulkes estimate   =     -33.02301215 Ry
     estimated scf accuracy    <       5.08995011 Ry

     iteration #  4     ecut=    30.00 Ry     beta=0.70
     Davidson diagonalization with overlap
     ethr =  1.00E-02,  avg # of iterations =  1.0

     negative rho (up, down):  2.595E-02 0.000E+00

     total cpu time spent up to now is        0.4 secs

     total energy              =     -30.14116289 Ry
     Harris-Foulkes estimate   =     -33.23122287 Ry
     estimated scf accuracy    <       5.39192061 Ry

     iteration #  5     ecut=    30.00 Ry     beta=0.70
     Davidson diagonalization with overlap
     ethr =  1.00E-02,  avg # of iterations =  7.0

     negative rho (up, down):  2.494E-02 0.000E+00

     total cpu time spent up to now is        0.4 secs

     total energy              =     -33.40539070 Ry
     Harris-Foulkes estimate   =     -33.42573051 Ry
     estimated scf accuracy    <      14.09363380 Ry

     iteration #  6     ecut=    30.00 Ry     beta=0.70
     Davidson diagonalization with overlap
     ethr =  1.00E-02,  avg # of iterations =  1.0

     negative rho (up, down):  2.493E-02 0.000E+00

     total cpu time spent up to now is        0.4 secs

     total energy              =     -33.39757726 Ry
     Harris-Foulkes estimate   =     -33.40890232 Ry
     estimated scf accuracy    <      14.06365106 Ry

     iteration #  7     ecut=    30.00 Ry     beta=0.70
     Davidson diagonalization with overlap
     ethr =  1.00E-02,  avg # of iterations =  1.0

     negative rho (up, down):  3.075E-02 0.000E+00

     total cpu time spent up to now is        0.5 secs

     total energy              =     -33.37425177 Ry
     Harris-Foulkes estimate   =     -33.39885512 Ry
     estimated scf accuracy    <      14.05584172 Ry

     iteration #  8     ecut=    30.00 Ry     beta=0.70
     Davidson diagonalization with overlap
     ethr =  1.00E-02,  avg # of iterations =  1.0

     negative rho (up, down):  1.143E-01 0.000E+00

     total cpu time spent up to now is        0.5 secs

     total energy              =     -32.94643140 Ry
     Harris-Foulkes estimate   =     -33.37533946 Ry
     estimated scf accuracy    <      14.00077874 Ry

     iteration #  9     ecut=    30.00 Ry     beta=0.70
     Davidson diagonalization with overlap
     ethr =  1.00E-02,  avg # of iterations =  1.0

     negative rho (up, down):  5.935E-02 0.000E+00

     total cpu time spent up to now is        0.5 secs

     total energy              =     -32.53104330 Ry
     Harris-Foulkes estimate   =     -33.00802015 Ry
     estimated scf accuracy    <       6.81133675 Ry

     iteration # 10     ecut=    30.00 Ry     beta=0.70
     Davidson diagonalization with overlap
     ethr =  1.00E-02,  avg # of iterations =  1.0

     negative rho (up, down):  6.554E-03 0.000E+00

     total cpu time spent up to now is        0.6 secs

     total energy              =     -31.83200906 Ry
     Harris-Foulkes estimate   =     -32.56010360 Ry
     estimated scf accuracy    <       5.50567132 Ry

     iteration # 11     ecut=    30.00 Ry     beta=0.70
     Davidson diagonalization with overlap
     ethr =  1.00E-02,  avg # of iterations =  2.0

     negative rho (up, down):  2.732E-03 0.000E+00

     total cpu time spent up to now is        0.6 secs

     total energy              =     -31.61514468 Ry
     Harris-Foulkes estimate   =     -31.85582041 Ry
     estimated scf accuracy    <       4.25755196 Ry

     iteration # 12     ecut=    30.00 Ry     beta=0.70
     Davidson diagonalization with overlap
     ethr =  1.00E-02,  avg # of iterations =  1.0

     negative rho (up, down):  1.792E-03 0.000E+00

     total cpu time spent up to now is        0.6 secs

     total energy              =     -30.80465173 Ry
     Harris-Foulkes estimate   =     -31.61944181 Ry
     estimated scf accuracy    <       4.05432167 Ry

     iteration # 13     ecut=    30.00 Ry     beta=0.70
     Davidson diagonalization with overlap
     ethr =  1.00E-02,  avg # of iterations =  1.0

     negative rho (up, down):  9.374E-03 0.000E+00

     total cpu time spent up to now is        0.7 secs

     total energy              =     -31.48623536 Ry
     Harris-Foulkes estimate   =     -32.09006900 Ry
     estimated scf accuracy    <       3.60433836 Ry

     iteration # 14     ecut=    30.00 Ry     beta=0.70
     Davidson diagonalization with overlap
     ethr =  1.00E-02,  avg # of iterations =  1.0

     negative rho (up, down):  7.399E-03 0.000E+00

     total cpu time spent up to now is        0.7 secs

     total energy              =     -31.49765910 Ry
     Harris-Foulkes estimate   =     -31.49580063 Ry
     estimated scf accuracy    <       0.57701910 Ry

     iteration # 15     ecut=    30.00 Ry     beta=0.70
     Davidson diagonalization with overlap
     ethr =  7.21E-03,  avg # of iterations =  1.0

     negative rho (up, down):  1.847E-03 0.000E+00

     total cpu time spent up to now is        0.7 secs

     total energy              =     -31.41028087 Ry
     Harris-Foulkes estimate   =     -31.49836195 Ry
     estimated scf accuracy    <       0.73203013 Ry

     iteration # 16     ecut=    30.00 Ry     beta=0.70
     Davidson diagonalization with overlap
     ethr =  7.21E-03,  avg # of iterations =  1.0

     negative rho (up, down):  1.020E-03 0.000E+00

     total cpu time spent up to now is        0.8 secs

     total energy              =     -31.46756270 Ry
     Harris-Foulkes estimate   =     -31.63795694 Ry
     estimated scf accuracy    <       3.91865147 Ry

     iteration # 17     ecut=    30.00 Ry     beta=0.70
     Davidson diagonalization with overlap
     ethr =  7.21E-03,  avg # of iterations =  1.0

     negative rho (up, down):  2.552E-03 0.000E+00

     total cpu time spent up to now is        0.8 secs

     total energy              =     -31.49373601 Ry
     Harris-Foulkes estimate   =     -31.49161876 Ry
     estimated scf accuracy    <       0.04619433 Ry

     iteration # 18     ecut=    30.00 Ry     beta=0.70
     Davidson diagonalization with overlap
     ethr =  5.77E-04,  avg # of iterations =  1.0

     negative rho (up, down):  3.507E-03 0.000E+00

     total cpu time spent up to now is        0.8 secs

     total energy              =     -31.47893069 Ry
     Harris-Foulkes estimate   =     -31.49909838 Ry
     estimated scf accuracy    <       0.87385422 Ry

     iteration # 19     ecut=    30.00 Ry     beta=0.70
     Davidson diagonalization with overlap
     ethr =  5.77E-04,  avg # of iterations =  1.0

     negative rho (up, down):  2.404E-03 0.000E+00

     total cpu time spent up to now is        0.9 secs

     total energy              =     -31.50495855 Ry
     Harris-Foulkes estimate   =     -31.49194821 Ry
     estimated scf accuracy    <       0.07078050 Ry

     iteration # 20     ecut=    30.00 Ry     beta=0.70
     Davidson diagonalization with overlap
     ethr =  5.77E-04,  avg # of iterations =  1.0

     negative rho (up, down):  4.360E-04 0.000E+00

     total cpu time spent up to now is        0.9 secs

     total energy              =     -31.44293772 Ry
     Harris-Foulkes estimate   =     -31.54638499 Ry
     estimated scf accuracy    <       2.65218452 Ry

     iteration # 21     ecut=    30.00 Ry     beta=0.70
     Davidson diagonalization with overlap
     ethr =  5.77E-04,  avg # of iterations =  1.0

     negative rho (up, down):  2.018E-04 0.000E+00

     total cpu time spent up to now is        0.9 secs

     total energy              =     -31.49359032 Ry
     Harris-Foulkes estimate   =     -31.49486003 Ry
     estimated scf accuracy    <       0.39723906 Ry

     iteration # 22     ecut=    30.00 Ry     beta=0.70
     Davidson diagonalization with overlap
     ethr =  5.77E-04,  avg # of iterations =  1.0

     negative rho (up, down):  2.049E-05 0.000E+00

     total cpu time spent up to now is        0.9 secs

     total energy              =     -31.48786255 Ry
     Harris-Foulkes estimate   =     -31.49371343 Ry
     estimated scf accuracy    <       0.27170326 Ry

     iteration # 23     ecut=    30.00 Ry     beta=0.70
     Davidson diagonalization with overlap
     ethr =  5.77E-04,  avg # of iterations =  1.0

     negative rho (up, down):  1.138E-05 0.000E+00

     total cpu time spent up to now is        1.0 secs

     total energy              =     -31.49108137 Ry
     Harris-Foulkes estimate   =     -31.49135622 Ry
     estimated scf accuracy    <       0.01147128 Ry

     iteration # 24     ecut=    30.00 Ry     beta=0.70
     Davidson diagonalization with overlap
     ethr =  1.43E-04,  avg # of iterations =  1.0

     negative rho (up, down):  4.147E-06 0.000E+00

     total cpu time spent up to now is        1.0 secs

     total energy              =     -31.49124846 Ry
     Harris-Foulkes estimate   =     -31.49127162 Ry
     estimated scf accuracy    <       0.00342121 Ry

     iteration # 25     ecut=    30.00 Ry     beta=0.70
     Davidson diagonalization with overlap
     ethr =  4.28E-05,  avg # of iterations =  1.0

     negative rho (up, down):  5.528E-06 0.000E+00

     total cpu time spent up to now is        1.0 secs

     total energy              =     -31.49108862 Ry
     Harris-Foulkes estimate   =     -31.49125211 Ry
     estimated scf accuracy    <       0.00181579 Ry

     iteration # 26     ecut=    30.00 Ry     beta=0.70
     Davidson diagonalization with overlap
     ethr =  2.27E-05,  avg # of iterations =  1.0

     total cpu time spent up to now is        1.1 secs

     total energy              =     -31.49135955 Ry
     Harris-Foulkes estimate   =     -31.49179871 Ry
     estimated scf accuracy    <       0.06048076 Ry

     iteration # 27     ecut=    30.00 Ry     beta=0.70
     Davidson diagonalization with overlap
     ethr =  2.27E-05,  avg # of iterations =  1.0

     total cpu time spent up to now is        1.1 secs

     total energy              =     -31.49118080 Ry
     Harris-Foulkes estimate   =     -31.49144124 Ry
     estimated scf accuracy    <       0.02360213 Ry

     iteration # 28     ecut=    30.00 Ry     beta=0.70
     Davidson diagonalization with overlap
     ethr =  2.27E-05,  avg # of iterations =  1.0

     total cpu time spent up to now is        1.1 secs

     total energy              =     -31.49121589 Ry
     Harris-Foulkes estimate   =     -31.49125652 Ry
     estimated scf accuracy    <       0.00405645 Ry

     iteration # 29     ecut=    30.00 Ry     beta=0.70
     Davidson diagonalization with overlap
     ethr =  2.27E-05,  avg # of iterations =  1.0

     total cpu time spent up to now is        1.2 secs

     total energy              =     -31.49121238 Ry
     Harris-Foulkes estimate   =     -31.49122713 Ry
     estimated scf accuracy    <       0.00083896 Ry

     iteration # 30     ecut=    30.00 Ry     beta=0.70
     Davidson diagonalization with overlap
     ethr =  1.05E-05,  avg # of iterations =  1.0

     total cpu time spent up to now is        1.2 secs

     total energy              =     -31.49122060 Ry
     Harris-Foulkes estimate   =     -31.49122013 Ry
     estimated scf accuracy    <       0.00000016 Ry

     iteration # 31     ecut=    30.00 Ry     beta=0.70
     Davidson diagonalization with overlap
     ethr =  1.97E-09,  avg # of iterations = 14.0

     total cpu time spent up to now is        1.2 secs

     total energy              =     -31.49122061 Ry
     Harris-Foulkes estimate   =     -31.49122063 Ry
     estimated scf accuracy    <       0.00000155 Ry

     iteration # 32     ecut=    30.00 Ry     beta=0.70
     Davidson diagonalization with overlap
     ethr =  1.97E-09,  avg # of iterations =  1.0

     total cpu time spent up to now is        1.3 secs

     total energy              =     -31.49122100 Ry
     Harris-Foulkes estimate   =     -31.49122062 Ry
     estimated scf accuracy    <       0.00000012 Ry

     iteration # 33     ecut=    30.00 Ry     beta=0.70
     Davidson diagonalization with overlap
     ethr =  1.50E-09,  avg # of iterations =  1.0

     total cpu time spent up to now is        1.3 secs

     End of self-consistent calculation

          k = 0.0000 0.0000 0.0000 ( 22119 PWs)   bands (ev):

   -23.6599  -7.0738  -7.0667  -7.0665  -7.0179  -6.8960  -0.2266   0.5896

     the Fermi energy is    -6.9327 ev

!    total energy              =     -31.49122103 Ry
     Harris-Foulkes estimate   =     -31.49122101 Ry
     estimated scf accuracy    <          8.1E-09 Ry

     convergence has been achieved in  33 iterations

     Forces acting on atoms (Ry/au):

     atom    1 type  1   force =    -0.00024141    0.00014452    0.00127766
     atom    2 type  1   force =     0.00023694   -0.00073870   -0.00135007
     atom    3 type  2   force =     0.00000447    0.00059418    0.00007241

     Total force =     0.002120     Total SCF correction =     0.000043

     Molecular Dynamics Calculation

     Starting temperature  =  1000.00 K

     temperature is controlled by Andersen thermostat
     Collision frequency = 1.0000/timestep
     mass H                =     1.01
     mass O                =    16.00
     Time step             =   100.00 a.u.,  4.8378 femto-seconds

     Entering Dynamics:    iteration =     1
                           time      =   0.0048 pico-seconds


     Andersen thermostat:    3 collisions

ATOMIC_POSITIONS (bohr)
H        7.967050880  18.187233135  19.240939749
H        7.544142311   1.515667770   6.354394959
O        1.011402135  11.751914614  18.221429717


     kinetic energy (Ekin) =     0.01319564 Ry
     temperature           =   694.47456190 K 
     Ekin + Etot (const)   =   -31.47802540 Ry

     Linear momentum :    0.0000000000    0.0000000000    0.0000000000

     Writing output data file pwscf.save
     Check: negative starting charge=   -0.353027
     NEW-OLD atomic charge density approx. for the potential
     Check: negative starting charge=   -0.353431

     negative rho (up, down):  7.979E-02 0.000E+00

     total cpu time spent up to now is        1.5 secs

     per-process dynamical memory:    20.4 Mb

     Self-consistent Calculation

     iteration #  1     ecut=    30.00 Ry     beta=0.70
     Davidson diagonalization with overlap
     c_bands:  1 eigenvalues not converged
     ethr =  1.00E-06,  avg # of iterations = 20.0

     negative rho (up, down):  1.854E-02 0.000E+00

     total cpu time spent up to now is        1.6 secs

     total energy              =     -31.44834386 Ry
     Harris-Foulkes estimate   =     -31.42976844 Ry
     estimated scf accuracy    <       0.03221298 Ry

     iteration #  2     ecut=    30.00 Ry     beta=0.70
     Davidson diagonalization with overlap
     ethr =  4.03E-04,  avg # of iterations =  2.0

     negative rho (up, down):  1.730E-02 0.000E+00

     total cpu time spent up to now is        1.7 secs

     total energy              =     -31.46699115 Ry
     Harris-Foulkes estimate   =     -31.86629979 Ry
     estimated scf accuracy    <       4.26905115 Ry

     iteration #  3     ecut=    30.00 Ry     beta=0.70
     Davidson diagonalization with overlap
     ethr =  4.03E-04,  avg # of iterations =  2.0

     negative rho (up, down):  1.689E-02 0.000E+00

     total cpu time spent up to now is        1.7 secs

     total energy              =     -31.46807888 Ry
     Harris-Foulkes estimate   =     -31.49237065 Ry
     estimated scf accuracy    <       0.91600045 Ry

     iteration #  4     ecut=    30.00 Ry     beta=0.70
     Davidson diagonalization with overlap
     ethr =  4.03E-04,  avg # of iterations =  1.0

     negative rho (up, down):  5.719E-03 0.000E+00

     total cpu time spent up to now is        1.7 secs

     total energy              =     -31.44565026 Ry
     Harris-Foulkes estimate   =     -31.47847309 Ry
     estimated scf accuracy    <       0.39647377 Ry

     iteration #  5     ecut=    30.00 Ry     beta=0.70
     Davidson diagonalization with overlap
     ethr =  4.03E-04,  avg # of iterations =  1.0

     negative rho (up, down):  2.903E-03 0.000E+00

     total cpu time spent up to now is        1.7 secs

     total energy              =     -31.46133322 Ry
     Harris-Foulkes estimate   =     -31.55408177 Ry
     estimated scf accuracy    <       2.78644257 Ry

     iteration #  6     ecut=    30.00 Ry     beta=0.70
     Davidson diagonalization with overlap
     ethr =  4.03E-04,  avg # of iterations =  1.0

     negative rho (up, down):  7.280E-04 0.000E+00

     total cpu time spent up to now is        1.8 secs

     total energy              =     -31.49079245 Ry
     Harris-Foulkes estimate   =     -31.48926718 Ry
     estimated scf accuracy    <       0.02181679 Ry

     iteration #  7     ecut=    30.00 Ry     beta=0.70
     Davidson diagonalization with overlap
     ethr =  2.73E-04,  avg # of iterations =  4.0

     negative rho (up, down):  2.769E-04 0.000E+00

     total cpu time spent up to now is        1.8 secs

     total energy              =     -31.49107123 Ry
     Harris-Foulkes estimate   =     -31.49102311 Ry
     estimated scf accuracy    <       0.00013663 Ry

     iteration #  8     ecut=    30.00 Ry     beta=0.70
     Davidson diagonalization with overlap
     ethr =  1.71E-06,  avg # of iterations = 16.0

     negative rho (up, down):  1.528E-06 0.000E+00

     total cpu time spent up to now is        1.9 secs

     total energy              =     -31.49100303 Ry
     Harris-Foulkes estimate   =     -31.49109268 Ry
     estimated scf accuracy    <       0.00094805 Ry

     iteration #  9     ecut=    30.00 Ry     beta=0.70
     Davidson diagonalization with overlap
     ethr =  1.71E-06,  avg # of iterations =  2.0

     negative rho (up, down):  7.990E-08 0.000E+00

     total cpu time spent up to now is        1.9 secs

     total energy              =     -31.49101464 Ry
     Harris-Foulkes estimate   =     -31.49136122 Ry
     estimated scf accuracy    <       0.02650153 Ry

     iteration # 10     ecut=    30.00 Ry     beta=0.70
     Davidson diagonalization with overlap
     ethr =  1.71E-06,  avg # of iterations =  1.0

     total cpu time spent up to now is        1.9 secs

     total energy              =     -31.49104478 Ry
     Harris-Foulkes estimate   =     -31.49113354 Ry
     estimated scf accuracy    <       0.00281202 Ry

     iteration # 11     ecut=    30.00 Ry     beta=0.70
     Davidson diagonalization with overlap
     ethr =  1.71E-06,  avg # of iterations =  1.0

     total cpu time spent up to now is        2.0 secs

     total energy              =     -31.49111175 Ry
     Harris-Foulkes estimate   =     -31.49111916 Ry
     estimated scf accuracy    <       0.00135901 Ry

     iteration # 12     ecut=    30.00 Ry     beta=0.70
     Davidson diagonalization with overlap
     ethr =  1.71E-06,  avg # of iterations =  1.0

     total cpu time spent up to now is        2.0 secs

     total energy              =     -31.49109673 Ry
     Harris-Foulkes estimate   =     -31.49111276 Ry
     estimated scf accuracy    <       0.00072006 Ry

     iteration # 13     ecut=    30.00 Ry     beta=0.70
     Davidson diagonalization with overlap
     ethr =  1.71E-06,  avg # of iterations =  1.0

     total cpu time spent up to now is        2.0 secs

     total energy              =     -31.49110520 Ry
     Harris-Foulkes estimate   =     -31.49110547 Ry
     estimated scf accuracy    <       0.00001184 Ry

     iteration # 14     ecut=    30.00 Ry     beta=0.70
     Davidson diagonalization with overlap
     ethr =  1.48E-07,  avg # of iterations =  1.0

     total cpu time spent up to now is        2.1 secs

     total energy              =     -31.49110524 Ry
     Harris-Foulkes estimate   =     -31.49110528 Ry
     estimated scf accuracy    <       0.00000056 Ry

     iteration # 15     ecut=    30.00 Ry     beta=0.70
     Davidson diagonalization with overlap
     ethr =  6.98E-09,  avg # of iterations =  1.0

     total cpu time spent up to now is        2.1 secs

     End of self-consistent calculation

          k = 0.0000 0.0000 0.0000 ( 22119 PWs)   bands (ev):

   -23.6613  -7.0719  -7.0677  -7.0674  -7.0213  -6.8973  -0.2295   0.5866

     the Fermi energy is    -6.9336 ev

!    total energy              =     -31.49110526 Ry
     Harris-Foulkes estimate   =     -31.49110525 Ry
     estimated scf accuracy    <          1.4E-09 Ry

     convergence has been achieved in  15 iterations

     Forces acting on atoms (Ry/au):

     atom    1 type  1   force =    -0.00009136    0.00018917    0.00146109
     atom    2 type  1   force =     0.00029599   -0.00081182   -0.00123653
     atom    3 type  2   force =    -0.00020464    0.00062266   -0.00022455

     Total force =     0.002221     Total SCF correction =     0.000090

     Entering Dynamics:    iteration =     2
                           time      =   0.0097 pico-seconds


     Andersen thermostat:    3 collisions

ATOMIC_POSITIONS (bohr)
H        8.018472159  18.365437910  19.401942196
H        7.610614116   1.352998308   6.517203737
O        1.003960134  11.750933948  18.200989133


     kinetic energy (Ekin) =     0.00856561 Ry
     temperature           =   450.80046717 K 
     Ekin + Etot (const)   =   -31.48253965 Ry
     Message from routine dynamics:
     Total linear momentum <> 0

     Linear momentum :   -0.0482643422    0.4839037204    0.0463385468

     Writing output data file pwscf.save

     first order wave-functions extrapolation
     Check: negative starting charge=   -0.353431
     first order charge density extrapolation
     Check: negative starting charge=   -0.354162

     negative rho (up, down):  1.126E-01 0.000E+00

     total cpu time spent up to now is        2.4 secs

     per-process dynamical memory:    20.4 Mb

     Self-consistent Calculation

     iteration #  1     ecut=    30.00 Ry     beta=0.70
     Davidson diagonalization with overlap
     c_bands:  1 eigenvalues not converged
     ethr =  1.00E-06,  avg # of iterations = 20.0

     negative rho (up, down):  2.701E-02 0.000E+00

     total cpu time spent up to now is        2.5 secs

     total energy              =     -31.41283263 Ry
     Harris-Foulkes estimate   =     -31.41509851 Ry
     estimated scf accuracy    <       0.06661867 Ry

     iteration #  2     ecut=    30.00 Ry     beta=0.70
     Davidson diagonalization with overlap
     ethr =  8.33E-04,  avg # of iterations =  2.0

     negative rho (up, down):  2.456E-02 0.000E+00

     total cpu time spent up to now is        2.5 secs

     total energy              =     -31.48325738 Ry
     Harris-Foulkes estimate   =     -32.05942885 Ry
     estimated scf accuracy    <       4.61221006 Ry

     iteration #  3     ecut=    30.00 Ry     beta=0.70
     Davidson diagonalization with overlap
     ethr =  8.33E-04,  avg # of iterations =  2.0

     negative rho (up, down):  2.378E-02 0.000E+00

     total cpu time spent up to now is        2.6 secs

     total energy              =     -31.47280515 Ry
     Harris-Foulkes estimate   =     -31.50890351 Ry
     estimated scf accuracy    <       1.22257576 Ry

     iteration #  4     ecut=    30.00 Ry     beta=0.70
     Davidson diagonalization with overlap
     ethr =  8.33E-04,  avg # of iterations =  1.0

     negative rho (up, down):  1.795E-02 0.000E+00

     total cpu time spent up to now is        2.6 secs

     total energy              =     -31.35664465 Ry
     Harris-Foulkes estimate   =     -31.48208448 Ry
     estimated scf accuracy    <       1.47685938 Ry

     iteration #  5     ecut=    30.00 Ry     beta=0.70
     Davidson diagonalization with overlap
     ethr =  8.33E-04,  avg # of iterations =  1.0

     negative rho (up, down):  7.927E-03 0.000E+00

     total cpu time spent up to now is        2.6 secs

     total energy              =     -31.46836431 Ry
     Harris-Foulkes estimate   =     -31.58800449 Ry
     estimated scf accuracy    <       2.94790824 Ry

     iteration #  6     ecut=    30.00 Ry     beta=0.70
     Davidson diagonalization with overlap
     ethr =  8.33E-04,  avg # of iterations =  1.0

     negative rho (up, down):  1.989E-03 0.000E+00

     total cpu time spent up to now is        2.7 secs

     total energy              =     -31.49038351 Ry
     Harris-Foulkes estimate   =     -31.48761678 Ry
     estimated scf accuracy    <       0.33082166 Ry

     iteration #  7     ecut=    30.00 Ry     beta=0.70
     Davidson diagonalization with overlap
     ethr =  8.33E-04,  avg # of iterations =  1.0

     negative rho (up, down):  8.812E-04 0.000E+00

     total cpu time spent up to now is        2.7 secs

     total energy              =     -31.49113744 Ry
     Harris-Foulkes estimate   =     -31.49126971 Ry
     estimated scf accuracy    <       0.11243295 Ry

     iteration #  8     ecut=    30.00 Ry     beta=0.70
     Davidson diagonalization with overlap
     ethr =  8.33E-04,  avg # of iterations =  1.0

     negative rho (up, down):  4.228E-06 0.000E+00

     total cpu time spent up to now is        2.7 secs

     total energy              =     -31.49059986 Ry
     Harris-Foulkes estimate   =     -31.49141284 Ry
     estimated scf accuracy    <       0.03022206 Ry

     iteration #  9     ecut=    30.00 Ry     beta=0.70
     Davidson diagonalization with overlap
     ethr =  3.78E-04,  avg # of iterations =  6.0

     negative rho (up, down):  4.335E-07 0.000E+00

     total cpu time spent up to now is        2.8 secs

     total energy              =     -31.49128703 Ry
     Harris-Foulkes estimate   =     -31.49142144 Ry
     estimated scf accuracy    <       0.01489712 Ry

     iteration # 10     ecut=    30.00 Ry     beta=0.70
     Davidson diagonalization with overlap
     ethr =  1.86E-04,  avg # of iterations =  3.0

     total cpu time spent up to now is        2.8 secs

     total energy              =     -31.49116091 Ry
     Harris-Foulkes estimate   =     -31.49132226 Ry
     estimated scf accuracy    <       0.00426234 Ry

     iteration # 11     ecut=    30.00 Ry     beta=0.70
     Davidson diagonalization with overlap
     ethr =  5.33E-05,  avg # of iterations =  1.0

     total cpu time spent up to now is        2.9 secs

     total energy              =     -31.49125189 Ry
     Harris-Foulkes estimate   =     -31.49132831 Ry
     estimated scf accuracy    <       0.00477626 Ry

     iteration # 12     ecut=    30.00 Ry     beta=0.70
     Davidson diagonalization with overlap
     ethr =  5.33E-05,  avg # of iterations =  1.0

     total cpu time spent up to now is        2.9 secs

     total energy              =     -31.49127407 Ry
     Harris-Foulkes estimate   =     -31.49128590 Ry
     estimated scf accuracy    <       0.00013136 Ry

     iteration # 13     ecut=    30.00 Ry     beta=0.70
     Davidson diagonalization with overlap
     ethr =  1.64E-06,  avg # of iterations = 14.0

     total cpu time spent up to now is        3.0 secs

     total energy              =     -31.49127877 Ry
     Harris-Foulkes estimate   =     -31.49129965 Ry
     estimated scf accuracy    <       0.00162797 Ry

     iteration # 14     ecut=    30.00 Ry     beta=0.70
     Davidson diagonalization with overlap
     ethr =  1.64E-06,  avg # of iterations =  1.0

     total cpu time spent up to now is        3.1 secs

     total energy              =     -31.49128180 Ry
     Harris-Foulkes estimate   =     -31.49128556 Ry
     estimated scf accuracy    <       0.00018612 Ry

     iteration # 15     ecut=    30.00 Ry     beta=0.70
     Davidson diagonalization with overlap
     ethr =  1.64E-06,  avg # of iterations =  1.0

     total cpu time spent up to now is        3.1 secs

     total energy              =     -31.49128361 Ry
     Harris-Foulkes estimate   =     -31.49128357 Ry
     estimated scf accuracy    <       0.00000001 Ry

     iteration # 16     ecut=    30.00 Ry     beta=0.70
     Davidson diagonalization with overlap
     ethr =  1.35E-10,  avg # of iterations =  2.0

     total cpu time spent up to now is        3.2 secs

     End of self-consistent calculation

          k = 0.0000 0.0000 0.0000 ( 22119 PWs)   bands (ev):

   -23.6670  -7.0762  -7.0727  -7.0725  -7.0334  -6.8952  -0.2311   0.5828

     the Fermi energy is    -6.9388 ev

!    total energy              =     -31.49128362 Ry
     Harris-Foulkes estimate   =     -31.49128361 Ry
     estimated scf accuracy    <          2.8E-10 Ry

     convergence has been achieved in  16 iterations

     Forces acting on atoms (Ry/au):

     atom    1 type  1   force =    -0.00009129    0.00037364    0.00172158
     atom    2 type  1   force =     0.00028042   -0.00093738   -0.00175736
     atom    3 type  2   force =    -0.00018913    0.00056374    0.00003578

     Total force =     0.002741     Total SCF correction =     0.000096

     Entering Dynamics:    iteration =     3
                           time      =   0.0145 pico-seconds


     Andersen thermostat:    3 collisions

ATOMIC_POSITIONS (bohr)
H        8.239092993  18.086777624  19.509091295
H        7.757017425   1.415372637   6.837063793
O        0.980791735  11.764586998  18.174034180


     kinetic energy (Ekin) =     0.01639027 Ry
     temperature           =   862.60504563 K 
     Ekin + Etot (const)   =   -31.47489335 Ry
     Message from routine dynamics:
     Total linear momentum <> 0

     Linear momentum :    0.3047675616   -0.3500624036   -0.1369358232

     Writing output data file pwscf.save

     second order wave-functions extrapolation
     Check: negative starting charge=   -0.354162
     second order charge density extrapolation
     Check: negative starting charge=   -0.354167

     negative rho (up, down):  6.489E-02 0.000E+00

     total cpu time spent up to now is        3.6 secs

     per-process dynamical memory:    20.4 Mb

     Self-consistent Calculation

     iteration #  1     ecut=    30.00 Ry     beta=0.70
     Davidson diagonalization with overlap
     c_bands:  1 eigenvalues not converged
     ethr =  1.00E-06,  avg # of iterations = 20.0

     negative rho (up, down):  1.486E-02 0.000E+00

     total cpu time spent up to now is        3.7 secs

     total energy              =     -31.43456739 Ry
     Harris-Foulkes estimate   =     -31.43449240 Ry
     estimated scf accuracy    <       0.05189837 Ry

     iteration #  2     ecut=    30.00 Ry     beta=0.70
     Davidson diagonalization with overlap
     ethr =  6.49E-04,  avg # of iterations =  2.0

     negative rho (up, down):  1.361E-02 0.000E+00

     total cpu time spent up to now is        3.8 secs

     total energy              =     -31.48821156 Ry
     Harris-Foulkes estimate   =     -32.00857307 Ry
     estimated scf accuracy    <       4.50227706 Ry

     iteration #  3     ecut=    30.00 Ry     beta=0.70
     Davidson diagonalization with overlap
     ethr =  6.49E-04,  avg # of iterations =  2.0

     negative rho (up, down):  1.334E-02 0.000E+00

     total cpu time spent up to now is        3.8 secs

     total energy              =     -31.48081564 Ry
     Harris-Foulkes estimate   =     -31.50188164 Ry
     estimated scf accuracy    <       1.48674335 Ry

     iteration #  4     ecut=    30.00 Ry     beta=0.70
     Davidson diagonalization with overlap
     ethr =  6.49E-04,  avg # of iterations =  1.0

     negative rho (up, down):  9.771E-03 0.000E+00

     total cpu time spent up to now is        3.8 secs

     total energy              =     -31.41477621 Ry
     Harris-Foulkes estimate   =     -31.48743579 Ry
     estimated scf accuracy    <       1.06368844 Ry

     iteration #  5     ecut=    30.00 Ry     beta=0.70
     Davidson diagonalization with overlap
     ethr =  6.49E-04,  avg # of iterations =  1.0

     negative rho (up, down):  2.702E-03 0.000E+00

     total cpu time spent up to now is        3.9 secs

     total energy              =     -31.46079655 Ry
     Harris-Foulkes estimate   =     -31.54385500 Ry
     estimated scf accuracy    <       2.76248848 Ry

     iteration #  6     ecut=    30.00 Ry     beta=0.70
     Davidson diagonalization with overlap
     ethr =  6.49E-04,  avg # of iterations =  1.0

     negative rho (up, down):  6.018E-04 0.000E+00

     total cpu time spent up to now is        3.9 secs

     total energy              =     -31.49114504 Ry
     Harris-Foulkes estimate   =     -31.48906817 Ry
     estimated scf accuracy    <       0.01334084 Ry

     iteration #  7     ecut=    30.00 Ry     beta=0.70
     Davidson diagonalization with overlap
     ethr =  1.67E-04,  avg # of iterations =  7.0

     negative rho (up, down):  3.291E-04 0.000E+00

     total cpu time spent up to now is        3.9 secs

     total energy              =     -31.49133466 Ry
     Harris-Foulkes estimate   =     -31.49134481 Ry
     estimated scf accuracy    <       0.05842607 Ry

     iteration #  8     ecut=    30.00 Ry     beta=0.70
     Davidson diagonalization with overlap
     ethr =  1.67E-04,  avg # of iterations =  1.0

     negative rho (up, down):  4.638E-07 0.000E+00

     total cpu time spent up to now is        4.0 secs

     total energy              =     -31.49048463 Ry
     Harris-Foulkes estimate   =     -31.49133867 Ry
     estimated scf accuracy    <       0.05565044 Ry

     iteration #  9     ecut=    30.00 Ry     beta=0.70
     Davidson diagonalization with overlap
     ethr =  1.67E-04,  avg # of iterations =  1.0

     total cpu time spent up to now is        4.0 secs

     total energy              =     -31.49069473 Ry
     Harris-Foulkes estimate   =     -31.49084155 Ry
     estimated scf accuracy    <       0.00176343 Ry

     iteration # 10     ecut=    30.00 Ry     beta=0.70
     Davidson diagonalization with overlap
     ethr =  2.20E-05,  avg # of iterations =  5.0

     total cpu time spent up to now is        4.0 secs

     total energy              =     -31.49076278 Ry
     Harris-Foulkes estimate   =     -31.49104494 Ry
     estimated scf accuracy    <       0.02403405 Ry

     iteration # 11     ecut=    30.00 Ry     beta=0.70
     Davidson diagonalization with overlap
     ethr =  2.20E-05,  avg # of iterations =  1.0

     total cpu time spent up to now is        4.1 secs

     total energy              =     -31.49076298 Ry
     Harris-Foulkes estimate   =     -31.49085260 Ry
     estimated scf accuracy    <       0.00314481 Ry

     iteration # 12     ecut=    30.00 Ry     beta=0.70
     Davidson diagonalization with overlap
     ethr =  2.20E-05,  avg # of iterations =  1.0

     total cpu time spent up to now is        4.1 secs

     total energy              =     -31.49082710 Ry
     Harris-Foulkes estimate   =     -31.49083263 Ry
     estimated scf accuracy    <       0.00097502 Ry

     iteration # 13     ecut=    30.00 Ry     beta=0.70
     Davidson diagonalization with overlap
     ethr =  1.22E-05,  avg # of iterations =  1.0

     total cpu time spent up to now is        4.1 secs

     total energy              =     -31.49082054 Ry
     Harris-Foulkes estimate   =     -31.49082796 Ry
     estimated scf accuracy    <       0.00047056 Ry

     iteration # 14     ecut=    30.00 Ry     beta=0.70
     Davidson diagonalization with overlap
     ethr =  5.88E-06,  avg # of iterations =  1.0

     total cpu time spent up to now is        4.2 secs

     total energy              =     -31.49082347 Ry
     Harris-Foulkes estimate   =     -31.49082365 Ry
     estimated scf accuracy    <       0.00001147 Ry

     iteration # 15     ecut=    30.00 Ry     beta=0.70
     Davidson diagonalization with overlap
     ethr =  1.43E-07,  avg # of iterations =  9.0

     total cpu time spent up to now is        4.2 secs

     End of self-consistent calculation

          k = 0.0000 0.0000 0.0000 ( 22119 PWs)   bands (ev):

   -23.6574  -7.0673  -7.0637  -7.0635  -7.0101  -6.9031  -0.2308   0.5953

     the Fermi energy is    -6.9297 ev

!    total energy              =     -31.49082357 Ry
     Harris-Foulkes estimate   =     -31.49082357 Ry
     estimated scf accuracy    <          1.4E-09 Ry

     convergence has been achieved in  15 iterations

     Forces acting on atoms (Ry/au):

     atom    1 type  1   force =    -0.00008293    0.00004543    0.00084808
     atom    2 type  1   force =     0.00013968   -0.00059497   -0.00102586
     atom    3 type  2   force =    -0.00005675    0.00054953    0.00017779

     Total force =     0.001578     Total SCF correction =     0.000216
     SCF correction compared to forces is large: reduce conv_thr to get better values

     Entering Dynamics:    iteration =     4
                           time      =   0.0194 pico-seconds


     Andersen thermostat:    3 collisions

ATOMIC_POSITIONS (bohr)
H        8.226609445  17.951135258  19.427359145
H        7.561697560   1.074090030   6.630419310
O        0.993909325  11.794692887  18.192237955


     kinetic energy (Ekin) =     0.01996978 Ry
     temperature           =  1050.99156677 K 
     Ekin + Etot (const)   =   -31.47085379 Ry
     Message from routine dynamics:
     Total linear momentum <> 0

     Linear momentum :    0.6585480540    0.4524520681   -0.2987964083

     Writing output data file pwscf.save

     second order wave-functions extrapolation
     Check: negative starting charge=   -0.354167
     second order charge density extrapolation
     Check: negative starting charge=   -0.354514

     negative rho (up, down):  6.185E-02 0.000E+00

     total cpu time spent up to now is        4.5 secs

     per-process dynamical memory:    20.4 Mb

     Self-consistent Calculation

     iteration #  1     ecut=    30.00 Ry     beta=0.70
     Davidson diagonalization with overlap
     c_bands:  1 eigenvalues not converged
     ethr =  1.00E-06,  avg # of iterations = 20.0

     negative rho (up, down):  1.406E-02 0.000E+00

     total cpu time spent up to now is        4.6 secs

     total energy              =     -31.46062454 Ry
     Harris-Foulkes estimate   =     -31.44047924 Ry
     estimated scf accuracy    <       0.02193201 Ry

     iteration #  2     ecut=    30.00 Ry     beta=0.70
     Davidson diagonalization with overlap
     ethr =  2.74E-04,  avg # of iterations =  2.0

     negative rho (up, down):  1.327E-02 0.000E+00

     total cpu time spent up to now is        4.6 secs

     total energy              =     -31.46305846 Ry
     Harris-Foulkes estimate   =     -31.78934470 Ry
     estimated scf accuracy    <       4.13484003 Ry

     iteration #  3     ecut=    30.00 Ry     beta=0.70
     Davidson diagonalization with overlap
     ethr =  2.74E-04,  avg # of iterations =  2.0

     negative rho (up, down):  1.292E-02 0.000E+00

     total cpu time spent up to now is        4.7 secs

     total energy              =     -31.46813591 Ry
     Harris-Foulkes estimate   =     -31.49708933 Ry
     estimated scf accuracy    <       0.87333698 Ry

     iteration #  4     ecut=    30.00 Ry     beta=0.70
     Davidson diagonalization with overlap
     ethr =  2.74E-04,  avg # of iterations =  1.0

     negative rho (up, down):  3.257E-03 0.000E+00

     total cpu time spent up to now is        4.7 secs

     total energy              =     -31.47521150 Ry
     Harris-Foulkes estimate   =     -31.48015004 Ry
     estimated scf accuracy    <       0.15959234 Ry

     iteration #  5     ecut=    30.00 Ry     beta=0.70
     Davidson diagonalization with overlap
     ethr =  2.74E-04,  avg # of iterations =  3.0

     negative rho (up, down):  1.871E-03 0.000E+00

     total cpu time spent up to now is        4.7 secs

     total energy              =     -31.46925610 Ry
     Harris-Foulkes estimate   =     -31.51016458 Ry
     estimated scf accuracy    <       1.56349195 Ry

     iteration #  6     ecut=    30.00 Ry     beta=0.70
     Davidson diagonalization with overlap
     ethr =  2.74E-04,  avg # of iterations =  1.0

     negative rho (up, down):  5.843E-04 0.000E+00

     total cpu time spent up to now is        4.8 secs

     total energy              =     -31.49024199 Ry
     Harris-Foulkes estimate   =     -31.49041476 Ry
     estimated scf accuracy    <       0.03830085 Ry

     iteration #  7     ecut=    30.00 Ry     beta=0.70
     Davidson diagonalization with overlap
     ethr =  2.74E-04,  avg # of iterations =  3.0

     negative rho (up, down):  5.640E-05 0.000E+00

     total cpu time spent up to now is        4.8 secs

     total energy              =     -31.49099197 Ry
     Harris-Foulkes estimate   =     -31.49116997 Ry
     estimated scf accuracy    <       0.01462274 Ry

     iteration #  8     ecut=    30.00 Ry     beta=0.70
     Davidson diagonalization with overlap
     ethr =  1.83E-04,  avg # of iterations =  1.0

     negative rho (up, down):  1.007E-07 0.000E+00

     total cpu time spent up to now is        4.9 secs

     total energy              =     -31.49106446 Ry
     Harris-Foulkes estimate   =     -31.49107619 Ry
     estimated scf accuracy    <       0.00107828 Ry

     iteration #  9     ecut=    30.00 Ry     beta=0.70
     Davidson diagonalization with overlap
     ethr =  1.35E-05,  avg # of iterations =  5.0

     total cpu time spent up to now is        4.9 secs

     total energy              =     -31.49109073 Ry
     Harris-Foulkes estimate   =     -31.49109549 Ry
     estimated scf accuracy    <       0.00057094 Ry

     iteration # 10     ecut=    30.00 Ry     beta=0.70
     Davidson diagonalization with overlap
     ethr =  7.14E-06,  avg # of iterations =  1.0

     total cpu time spent up to now is        5.0 secs

     total energy              =     -31.49109108 Ry
     Harris-Foulkes estimate   =     -31.49109261 Ry
     estimated scf accuracy    <       0.00010237 Ry

     iteration # 11     ecut=    30.00 Ry     beta=0.70
     Davidson diagonalization with overlap
     ethr =  1.28E-06,  avg # of iterations =  3.0

     total cpu time spent up to now is        5.0 secs

     total energy              =     -31.49109237 Ry
     Harris-Foulkes estimate   =     -31.49109207 Ry
     estimated scf accuracy    <       0.00000001 Ry

     iteration # 12     ecut=    30.00 Ry     beta=0.70
     Davidson diagonalization with overlap
     ethr =  1.72E-10,  avg # of iterations =  2.0

     total cpu time spent up to now is        5.1 secs

     total energy              =     -31.49109268 Ry
     Harris-Foulkes estimate   =     -31.49109238 Ry
     estimated scf accuracy    <       0.00000003 Ry

     iteration # 13     ecut=    30.00 Ry     beta=0.70
     Davidson diagonalization with overlap
     ethr =  1.72E-10,  avg # of iterations =  2.0

     total cpu time spent up to now is        5.1 secs

     total energy              =     -31.49109269 Ry
     Harris-Foulkes estimate   =     -31.49109269 Ry
     estimated scf accuracy    <       0.00000039 Ry

     iteration # 14     ecut=    30.00 Ry     beta=0.70
     Davidson diagonalization with overlap
     ethr =  1.72E-10,  avg # of iterations =  1.0

     total cpu time spent up to now is        5.2 secs

     total energy              =     -31.49109273 Ry
     Harris-Foulkes estimate   =     -31.49109269 Ry
     estimated scf accuracy    <       0.00000004 Ry

     iteration # 15     ecut=    30.00 Ry     beta=0.70
     Davidson diagonalization with overlap
     ethr =  1.72E-10,  avg # of iterations =  1.0

     total cpu time spent up to now is        5.2 secs

     End of self-consistent calculation

          k = 0.0000 0.0000 0.0000 ( 22119 PWs)   bands (ev):

   -23.6614  -7.0719  -7.0678  -7.0675  -7.0209  -6.8985  -0.2295   0.5878

     the Fermi energy is    -6.9338 ev

!    total energy              =     -31.49109277 Ry
     Harris-Foulkes estimate   =     -31.49109273 Ry
     estimated scf accuracy    <          1.2E-11 Ry

     convergence has been achieved in  15 iterations

     Forces acting on atoms (Ry/au):

     atom    1 type  1   force =    -0.00019229    0.00036450    0.00129302
     atom    2 type  1   force =     0.00017943   -0.00061421   -0.00135025
     atom    3 type  2   force =     0.00001287    0.00024971    0.00005723

     Total force =     0.002035     Total SCF correction =     0.000088

     Entering Dynamics:    iteration =     5
                           time      =   0.0242 pico-seconds


     Andersen thermostat:    3 collisions

ATOMIC_POSITIONS (bohr)
H        8.041210013  18.248490105  19.746327058
H        7.028992493   1.282903237   6.337167267
O        1.039239672  11.762741029  18.190614641


     kinetic energy (Ekin) =     0.03235561 Ry
     temperature           =  1702.84666448 K 
     Ekin + Etot (const)   =   -31.45873716 Ry
     Message from routine dynamics:
     Total linear momentum <> 0

     Linear momentum :    0.2555715914    0.0401351917   -0.1541686132

     Writing output data file pwscf.save

     second order wave-functions extrapolation
     Check: negative starting charge=   -0.354514
     second order charge density extrapolation
     Check: negative starting charge=   -0.353983

     negative rho (up, down):  7.196E-02 0.000E+00

     total cpu time spent up to now is        5.6 secs

     per-process dynamical memory:    20.4 Mb

     Self-consistent Calculation

     iteration #  1     ecut=    30.00 Ry     beta=0.70
     Davidson diagonalization with overlap
     c_bands:  1 eigenvalues not converged
     ethr =  1.00E-06,  avg # of iterations = 20.0

     negative rho (up, down):  1.665E-02 0.000E+00

     total cpu time spent up to now is        5.7 secs

     total energy              =     -31.45954467 Ry
     Harris-Foulkes estimate   =     -31.43593178 Ry
     estimated scf accuracy    <       0.02349051 Ry

     iteration #  2     ecut=    30.00 Ry     beta=0.70
     Davidson diagonalization with overlap
     ethr =  2.94E-04,  avg # of iterations =  2.0

     negative rho (up, down):  1.591E-02 0.000E+00

     total cpu time spent up to now is        5.8 secs

     total energy              =     -31.42459456 Ry
     Harris-Foulkes estimate   =     -31.64687087 Ry
     estimated scf accuracy    <       3.54314051 Ry

     iteration #  3     ecut=    30.00 Ry     beta=0.70
     Davidson diagonalization with overlap
     ethr =  2.94E-04,  avg # of iterations =  2.0

     negative rho (up, down):  1.496E-02 0.000E+00

     total cpu time spent up to now is        5.8 secs

     total energy              =     -31.46405401 Ry
     Harris-Foulkes estimate   =     -31.57284271 Ry
     estimated scf accuracy    <       1.25545780 Ry

     iteration #  4     ecut=    30.00 Ry     beta=0.70
     Davidson diagonalization with overlap
     ethr =  2.94E-04,  avg # of iterations =  1.0

     negative rho (up, down):  3.616E-03 0.000E+00

     total cpu time spent up to now is        5.8 secs

     total energy              =     -31.48158949 Ry
     Harris-Foulkes estimate   =     -31.47992880 Ry
     estimated scf accuracy    <       0.10741250 Ry

     iteration #  5     ecut=    30.00 Ry     beta=0.70
     Davidson diagonalization with overlap
     ethr =  2.94E-04,  avg # of iterations =  3.0

     negative rho (up, down):  1.569E-03 0.000E+00

     total cpu time spent up to now is        5.9 secs

     total energy              =     -31.48836163 Ry
     Harris-Foulkes estimate   =     -31.49807208 Ry
     estimated scf accuracy    <       0.71558978 Ry

     iteration #  6     ecut=    30.00 Ry     beta=0.70
     Davidson diagonalization with overlap
     ethr =  2.94E-04,  avg # of iterations =  3.0

     negative rho (up, down):  1.311E-03 0.000E+00

     total cpu time spent up to now is        5.9 secs

     total energy              =     -31.49095638 Ry
     Harris-Foulkes estimate   =     -31.49734946 Ry
     estimated scf accuracy    <       0.23924379 Ry

     iteration #  7     ecut=    30.00 Ry     beta=0.70
     Davidson diagonalization with overlap
     ethr =  2.94E-04,  avg # of iterations =  1.0

     negative rho (up, down):  4.870E-04 0.000E+00

     total cpu time spent up to now is        5.9 secs

     total energy              =     -31.49024772 Ry
     Harris-Foulkes estimate   =     -31.49289257 Ry
     estimated scf accuracy    <       0.06174907 Ry

     iteration #  8     ecut=    30.00 Ry     beta=0.70
     Davidson diagonalization with overlap
     ethr =  2.94E-04,  avg # of iterations =  3.0

     negative rho (up, down):  2.122E-06 0.000E+00

     total cpu time spent up to now is        6.0 secs

     total energy              =     -31.49167195 Ry
     Harris-Foulkes estimate   =     -31.49265789 Ry
     estimated scf accuracy    <       0.02691310 Ry

     iteration #  9     ecut=    30.00 Ry     beta=0.70
     Davidson diagonalization with overlap
     ethr =  2.94E-04,  avg # of iterations =  1.0

     total cpu time spent up to now is        6.0 secs

     total energy              =     -31.49223818 Ry
     Harris-Foulkes estimate   =     -31.49243279 Ry
     estimated scf accuracy    <       0.01151518 Ry

     iteration # 10     ecut=    30.00 Ry     beta=0.70
     Davidson diagonalization with overlap
     ethr =  1.44E-04,  avg # of iterations =  1.0

     total cpu time spent up to now is        6.0 secs

     total energy              =     -31.49231953 Ry
     Harris-Foulkes estimate   =     -31.49233291 Ry
     estimated scf accuracy    <       0.00046883 Ry

     iteration # 11     ecut=    30.00 Ry     beta=0.70
     Davidson diagonalization with overlap
     ethr =  5.86E-06,  avg # of iterations =  8.0

     total cpu time spent up to now is        6.1 secs

     total energy              =     -31.49232384 Ry
     Harris-Foulkes estimate   =     -31.49232506 Ry
     estimated scf accuracy    <       0.00004250 Ry

     iteration # 12     ecut=    30.00 Ry     beta=0.70
     Davidson diagonalization with overlap
     ethr =  5.31E-07,  avg # of iterations =  9.0

     total cpu time spent up to now is        6.1 secs

     total energy              =     -31.49232350 Ry
     Harris-Foulkes estimate   =     -31.49232484 Ry
     estimated scf accuracy    <       0.00002532 Ry

     iteration # 13     ecut=    30.00 Ry     beta=0.70
     Davidson diagonalization with overlap
     ethr =  3.16E-07,  avg # of iterations =  1.0

     total cpu time spent up to now is        6.1 secs

     total energy              =     -31.49232409 Ry
     Harris-Foulkes estimate   =     -31.49232423 Ry
     estimated scf accuracy    <       0.00001375 Ry

     iteration # 14     ecut=    30.00 Ry     beta=0.70
     Davidson diagonalization with overlap
     ethr =  1.72E-07,  avg # of iterations =  1.0

     total cpu time spent up to now is        6.2 secs

     total energy              =     -31.49232424 Ry
     Harris-Foulkes estimate   =     -31.49232414 Ry
     estimated scf accuracy    <       0.00000355 Ry

     iteration # 15     ecut=    30.00 Ry     beta=0.70
     Davidson diagonalization with overlap
     ethr =  4.44E-08,  avg # of iterations =  1.0

     total cpu time spent up to now is        6.2 secs

     total energy              =     -31.49232426 Ry
     Harris-Foulkes estimate   =     -31.49232424 Ry
     estimated scf accuracy    <       0.00000151 Ry

     iteration # 16     ecut=    30.00 Ry     beta=0.70
     Davidson diagonalization with overlap
     ethr =  1.89E-08,  avg # of iterations =  1.0

     total cpu time spent up to now is        6.4 secs

     End of self-consistent calculation

          k = 0.0000 0.0000 0.0000 ( 22119 PWs)   bands (ev):

   -23.6804  -7.0906  -7.0853  -7.0852  -7.0656  -6.8808  -0.2320   0.5726

     the Fermi energy is    -6.9514 ev

!    total energy              =     -31.49232427 Ry
     Harris-Foulkes estimate   =     -31.49232428 Ry
     estimated scf accuracy    <          8.0E-10 Ry

     convergence has been achieved in  16 iterations

     Forces acting on atoms (Ry/au):

     atom    1 type  1   force =    -0.00038134    0.00103899    0.00306838
     atom    2 type  1   force =     0.00057370   -0.00159009   -0.00301556
     atom    3 type  2   force =    -0.00019236    0.00055110   -0.00005282

     Total force =     0.004789     Total SCF correction =     0.000326

     Entering Dynamics:    iteration =     6
                           time      =   0.0290 pico-seconds


     Andersen thermostat:    3 collisions

ATOMIC_POSITIONS (bohr)
H        8.011622323  17.672457919  19.661275257
H        6.668444869   1.048524543   6.654809539
O        1.063866964  11.813898216  18.175932367


     kinetic energy (Ekin) =     0.03277515 Ry
     temperature           =  1724.92671895 K 
     Ekin + Etot (const)   =   -31.45954912 Ry
     Message from routine dynamics:
     Total linear momentum <> 0

     Linear momentum :    0.0271839412   -0.0722010692   -0.2133873842

     Writing output data file pwscf.save

     second order wave-functions extrapolation
     Check: negative starting charge=   -0.353983
     second order charge density extrapolation
     Check: negative starting charge=   -0.352045

     negative rho (up, down):  8.789E-02 0.000E+00

     total cpu time spent up to now is        6.7 secs

     per-process dynamical memory:    20.4 Mb

     Self-consistent Calculation

     iteration #  1     ecut=    30.00 Ry     beta=0.70
     Davidson diagonalization with overlap
     ethr =  1.00E-06,  avg # of iterations =  9.0

     negative rho (up, down):  1.726E-02 0.000E+00

     total cpu time spent up to now is        6.8 secs

     total energy              =      -2.29254570 Ry
     Harris-Foulkes estimate   =     -73.71517795 Ry
     estimated scf accuracy    <       5.79090121 Ry

     iteration #  2     ecut=    30.00 Ry     beta=0.70
     Davidson diagonalization with overlap
     ethr =  1.00E-02,  avg # of iterations =  3.0

     negative rho (up, down):  1.146E-02 0.000E+00

     total cpu time spent up to now is        6.8 secs

     total energy              =     -31.38893432 Ry
     Harris-Foulkes estimate   =     -35.21548277 Ry
     estimated scf accuracy    <       7.98050359 Ry

     iteration #  3     ecut=    30.00 Ry     beta=0.70
     Davidson diagonalization with overlap
     ethr =  1.00E-02,  avg # of iterations =  4.0

     negative rho (up, down):  6.275E-03 0.000E+00

     total cpu time spent up to now is        6.8 secs

     total energy              =     -31.52777115 Ry
     Harris-Foulkes estimate   =     -33.36890024 Ry
     estimated scf accuracy    <       7.01143149 Ry

     iteration #  4     ecut=    30.00 Ry     beta=0.70
     Davidson diagonalization with overlap
     ethr =  1.00E-02,  avg # of iterations =  2.0

     negative rho (up, down):  6.267E-03 0.000E+00

     total cpu time spent up to now is        6.9 secs

     total energy              =     -32.49553909 Ry
     Harris-Foulkes estimate   =     -32.39057439 Ry
     estimated scf accuracy    <       2.28010506 Ry

     iteration #  5     ecut=    30.00 Ry     beta=0.70
     Davidson diagonalization with overlap
     ethr =  1.00E-02,  avg # of iterations =  1.0

     negative rho (up, down):  6.286E-03 0.000E+00

     total cpu time spent up to now is        6.9 secs

     total energy              =     -32.52119926 Ry
     Harris-Foulkes estimate   =     -32.49497379 Ry
     estimated scf accuracy    <       2.36290336 Ry

     iteration #  6     ecut=    30.00 Ry     beta=0.70
     Davidson diagonalization with overlap
     ethr =  1.00E-02,  avg # of iterations =  1.0

     negative rho (up, down):  5.765E-03 0.000E+00

     total cpu time spent up to now is        6.9 secs

     total energy              =     -32.36451116 Ry
     Harris-Foulkes estimate   =     -32.52126586 Ry
     estimated scf accuracy    <       2.40448047 Ry

     iteration #  7     ecut=    30.00 Ry     beta=0.70
     Davidson diagonalization with overlap
     ethr =  1.00E-02,  avg # of iterations =  1.0

     negative rho (up, down):  5.083E-03 0.000E+00

     total cpu time spent up to now is        7.0 secs

     total energy              =     -32.15936799 Ry
     Harris-Foulkes estimate   =     -32.36438672 Ry
     estimated scf accuracy    <       2.28186171 Ry

     iteration #  8     ecut=    30.00 Ry     beta=0.70
     Davidson diagonalization with overlap
     ethr =  1.00E-02,  avg # of iterations =  1.0

     negative rho (up, down):  4.273E-03 0.000E+00

     total cpu time spent up to now is        7.0 secs

     total energy              =     -31.90500992 Ry
     Harris-Foulkes estimate   =     -32.18860215 Ry
     estimated scf accuracy    <       2.46191123 Ry

     iteration #  9     ecut=    30.00 Ry     beta=0.70
     Davidson diagonalization with overlap
     ethr =  1.00E-02,  avg # of iterations =  1.0

     negative rho (up, down):  5.875E-02 0.000E+00

     total cpu time spent up to now is        7.0 secs

     total energy              =     -31.15144765 Ry
     Harris-Foulkes estimate   =     -31.91764259 Ry
     estimated scf accuracy    <       3.33040472 Ry

     iteration # 10     ecut=    30.00 Ry     beta=0.70
     Davidson diagonalization with overlap
     ethr =  1.00E-02,  avg # of iterations =  2.0

     negative rho (up, down):  4.125E-01 0.000E+00

     total cpu time spent up to now is        7.1 secs

     total energy              =     -33.94478680 Ry
     Harris-Foulkes estimate   =     -32.13251321 Ry
     estimated scf accuracy    <       4.77365678 Ry

     iteration # 11     ecut=    30.00 Ry     beta=0.70
     Davidson diagonalization with overlap
     ethr =  1.00E-02,  avg # of iterations =  6.0

     negative rho (up, down):  5.168E-01 0.000E+00

     total cpu time spent up to now is        7.1 secs

     total energy              =     -35.39777464 Ry
     Harris-Foulkes estimate   =     -34.93080072 Ry
     estimated scf accuracy    <      18.71621108 Ry

     iteration # 12     ecut=    30.00 Ry     beta=0.70
     Davidson diagonalization with overlap
     ethr =  1.00E-02,  avg # of iterations =  2.0

     negative rho (up, down):  4.962E-01 0.000E+00

     total cpu time spent up to now is        7.2 secs

     total energy              =     -35.57544855 Ry
     Harris-Foulkes estimate   =     -35.45685249 Ry
     estimated scf accuracy    <      19.26218159 Ry

     iteration # 13     ecut=    30.00 Ry     beta=0.70
     Davidson diagonalization with overlap
     ethr =  1.00E-02,  avg # of iterations =  2.0

     negative rho (up, down):  2.301E-01 0.000E+00

     total cpu time spent up to now is        7.2 secs

     total energy              =     -34.07424652 Ry
     Harris-Foulkes estimate   =     -35.65918215 Ry
     estimated scf accuracy    <      19.40604811 Ry

     iteration # 14     ecut=    30.00 Ry     beta=0.70
     Davidson diagonalization with overlap
     ethr =  1.00E-02,  avg # of iterations =  2.0

     negative rho (up, down):  3.009E-01 0.000E+00

     total cpu time spent up to now is        7.2 secs

     total energy              =     -33.43022185 Ry
     Harris-Foulkes estimate   =     -34.17341975 Ry
     estimated scf accuracy    <      16.92425215 Ry

     iteration # 15     ecut=    30.00 Ry     beta=0.70
     Davidson diagonalization with overlap
     ethr =  1.00E-02,  avg # of iterations =  2.0

     negative rho (up, down):  3.379E-01 0.000E+00

     total cpu time spent up to now is        7.3 secs

     total energy              =     -33.35739681 Ry
     Harris-Foulkes estimate   =     -33.96014893 Ry
     estimated scf accuracy    <      20.31304178 Ry

     iteration # 16     ecut=    30.00 Ry     beta=0.70
     Davidson diagonalization with overlap
     ethr =  1.00E-02,  avg # of iterations =  2.0

     negative rho (up, down):  3.381E-01 0.000E+00

     total cpu time spent up to now is        7.3 secs

     total energy              =     -32.43766833 Ry
     Harris-Foulkes estimate   =     -33.67129992 Ry
     estimated scf accuracy    <      19.86014846 Ry

     iteration # 17     ecut=    30.00 Ry     beta=0.70
     Davidson diagonalization with overlap
     ethr =  1.00E-02,  avg # of iterations =  3.0

     negative rho (up, down):  1.659E-01 0.000E+00

     total cpu time spent up to now is        7.3 secs

     total energy              =     -19.32177900 Ry
     Harris-Foulkes estimate   =     -39.97059969 Ry
     estimated scf accuracy    <      20.09574006 Ry

     iteration # 18     ecut=    30.00 Ry     beta=0.70
     Davidson diagonalization with overlap
     ethr =  1.00E-02,  avg # of iterations =  5.0

     negative rho (up, down):  9.267E-01 0.000E+00

     total cpu time spent up to now is        7.4 secs

     total energy              =     -30.52329431 Ry
     Harris-Foulkes estimate   =     -31.87886066 Ry
     estimated scf accuracy    <       4.56167007 Ry

     iteration # 19     ecut=    30.00 Ry     beta=0.70
     Davidson diagonalization with overlap
     ethr =  1.00E-02,  avg # of iterations =  3.0

     negative rho (up, down):  5.736E-01 0.000E+00

     total cpu time spent up to now is        7.4 secs

     total energy              =     -30.14619505 Ry
     Harris-Foulkes estimate   =     -31.16147803 Ry
     estimated scf accuracy    <       3.67478477 Ry

     iteration # 20     ecut=    30.00 Ry     beta=0.70
     Davidson diagonalization with overlap
     ethr =  1.00E-02,  avg # of iterations =  7.0

     negative rho (up, down):  2.950E-01 0.000E+00

     total cpu time spent up to now is        7.5 secs

     total energy              =     -32.31369005 Ry
     Harris-Foulkes estimate   =     -33.61649704 Ry
     estimated scf accuracy    <       6.43371745 Ry

     iteration # 21     ecut=    30.00 Ry     beta=0.70
     Davidson diagonalization with overlap
     ethr =  1.00E-02,  avg # of iterations =  2.0

     negative rho (up, down):  1.821E-01 0.000E+00

     total cpu time spent up to now is        7.5 secs

     total energy              =     -31.64699576 Ry
     Harris-Foulkes estimate   =     -32.34330936 Ry
     estimated scf accuracy    <       4.18348415 Ry

     iteration # 22     ecut=    30.00 Ry     beta=0.70
     Davidson diagonalization with overlap
     ethr =  1.00E-02,  avg # of iterations =  1.0

     negative rho (up, down):  1.331E-01 0.000E+00

     total cpu time spent up to now is        7.5 secs

     total energy              =     -31.33481553 Ry
     Harris-Foulkes estimate   =     -31.66156779 Ry
     estimated scf accuracy    <       2.99312563 Ry

     iteration # 23     ecut=    30.00 Ry     beta=0.70
     Davidson diagonalization with overlap
     ethr =  1.00E-02,  avg # of iterations =  1.0

     negative rho (up, down):  1.497E-01 0.000E+00

     total cpu time spent up to now is        7.6 secs

     total energy              =     -31.23748249 Ry
     Harris-Foulkes estimate   =     -31.63229214 Ry
     estimated scf accuracy    <       4.17559543 Ry

     iteration # 24     ecut=    30.00 Ry     beta=0.70
     Davidson diagonalization with overlap
     ethr =  1.00E-02,  avg # of iterations =  2.0

     negative rho (up, down):  3.065E-02 0.000E+00

     total cpu time spent up to now is        7.6 secs

     total energy              =     -31.08952014 Ry
     Harris-Foulkes estimate   =     -31.57132842 Ry
     estimated scf accuracy    <       2.89763910 Ry

     iteration # 25     ecut=    30.00 Ry     beta=0.70
     Davidson diagonalization with overlap
     ethr =  1.00E-02,  avg # of iterations =  2.0

     negative rho (up, down):  2.518E-03 0.000E+00

     total cpu time spent up to now is        7.6 secs

     total energy              =     -31.86321614 Ry
     Harris-Foulkes estimate   =     -31.90414220 Ry
     estimated scf accuracy    <       4.37033400 Ry

     iteration # 26     ecut=    30.00 Ry     beta=0.70
     Davidson diagonalization with overlap
     ethr =  1.00E-02,  avg # of iterations =  1.0

     negative rho (up, down):  3.456E-03 0.000E+00

     total cpu time spent up to now is        7.7 secs

     total energy              =     -32.05242351 Ry
     Harris-Foulkes estimate   =     -31.86483611 Ry
     estimated scf accuracy    <       4.28172082 Ry

     iteration # 27     ecut=    30.00 Ry     beta=0.70
     Davidson diagonalization with overlap
     ethr =  1.00E-02,  avg # of iterations =  1.0

     negative rho (up, down):  5.395E-03 0.000E+00

     total cpu time spent up to now is        7.7 secs

     total energy              =     -31.93494715 Ry
     Harris-Foulkes estimate   =     -32.05435391 Ry
     estimated scf accuracy    <       4.56390644 Ry

     iteration # 28     ecut=    30.00 Ry     beta=0.70
     Davidson diagonalization with overlap
     ethr =  1.00E-02,  avg # of iterations =  1.0

     negative rho (up, down):  1.458E-03 0.000E+00

     total cpu time spent up to now is        7.7 secs

     total energy              =     -31.85410437 Ry
     Harris-Foulkes estimate   =     -31.93967653 Ry
     estimated scf accuracy    <       4.31345427 Ry

     iteration # 29     ecut=    30.00 Ry     beta=0.70
     Davidson diagonalization with overlap
     ethr =  1.00E-02,  avg # of iterations =  1.0

     negative rho (up, down):  6.278E-04 0.000E+00

     total cpu time spent up to now is        7.8 secs

     total energy              =     -31.75144649 Ry
     Harris-Foulkes estimate   =     -31.85514414 Ry
     estimated scf accuracy    <       4.17114354 Ry

     iteration # 30     ecut=    30.00 Ry     beta=0.70
     Davidson diagonalization with overlap
     ethr =  1.00E-02,  avg # of iterations =  1.0

     negative rho (up, down):  5.105E-03 0.000E+00

     total cpu time spent up to now is        7.8 secs

     total energy              =     -31.58063657 Ry
     Harris-Foulkes estimate   =     -31.75199195 Ry
     estimated scf accuracy    <       4.01102959 Ry

     iteration # 31     ecut=    30.00 Ry     beta=0.70
     Davidson diagonalization with overlap
     ethr =  1.00E-02,  avg # of iterations =  1.0

     negative rho (up, down):  5.758E-03 0.000E+00

     total cpu time spent up to now is        7.8 secs

     total energy              =     -31.60299336 Ry
     Harris-Foulkes estimate   =     -31.57751788 Ry
     estimated scf accuracy    <       3.89006981 Ry

     iteration # 32     ecut=    30.00 Ry     beta=0.70
     Davidson diagonalization with overlap
     ethr =  1.00E-02,  avg # of iterations =  1.0

     negative rho (up, down):  2.671E-03 0.000E+00

     total cpu time spent up to now is        7.9 secs

     total energy              =     -31.36865872 Ry
     Harris-Foulkes estimate   =     -31.60488978 Ry
     estimated scf accuracy    <       4.39859049 Ry

     iteration # 33     ecut=    30.00 Ry     beta=0.70
     Davidson diagonalization with overlap
     ethr =  1.00E-02,  avg # of iterations =  1.0

     negative rho (up, down):  3.822E-02 0.000E+00

     total cpu time spent up to now is        7.9 secs

     total energy              =     -31.50792508 Ry
     Harris-Foulkes estimate   =     -31.57802098 Ry
     estimated scf accuracy    <       0.98854620 Ry

     iteration # 34     ecut=    30.00 Ry     beta=0.70
     Davidson diagonalization with overlap
     ethr =  1.00E-02,  avg # of iterations =  1.0

     negative rho (up, down):  2.213E-02 0.000E+00

     total cpu time spent up to now is        7.9 secs

     total energy              =     -31.88239315 Ry
     Harris-Foulkes estimate   =     -31.51387941 Ry
     estimated scf accuracy    <       0.65128002 Ry

     iteration # 35     ecut=    30.00 Ry     beta=0.70
     Davidson diagonalization with overlap
     ethr =  8.14E-03,  avg # of iterations =  1.0

     negative rho (up, down):  1.260E-03 0.000E+00

     total cpu time spent up to now is        8.0 secs

     total energy              =     -31.96491775 Ry
     Harris-Foulkes estimate   =     -32.17306173 Ry
     estimated scf accuracy    <       3.72548129 Ry

     iteration # 36     ecut=    30.00 Ry     beta=0.70
     Davidson diagonalization with overlap
     ethr =  8.14E-03,  avg # of iterations =  1.0

     negative rho (up, down):  3.391E-04 0.000E+00

     total cpu time spent up to now is        8.0 secs

     total energy              =     -31.73158739 Ry
     Harris-Foulkes estimate   =     -31.96605307 Ry
     estimated scf accuracy    <       3.44910360 Ry

     iteration # 37     ecut=    30.00 Ry     beta=0.70
     Davidson diagonalization with overlap
     ethr =  8.14E-03,  avg # of iterations =  1.0

     negative rho (up, down):  1.465E-04 0.000E+00

     total cpu time spent up to now is        8.0 secs

     total energy              =     -31.30005833 Ry
     Harris-Foulkes estimate   =     -31.73316166 Ry
     estimated scf accuracy    <       3.06611455 Ry

     iteration # 38     ecut=    30.00 Ry     beta=0.70
     Davidson diagonalization with overlap
     ethr =  8.14E-03,  avg # of iterations =  1.0

     total cpu time spent up to now is        8.1 secs

     total energy              =     -31.28566595 Ry
     Harris-Foulkes estimate   =     -31.65331792 Ry
     estimated scf accuracy    <       4.29695355 Ry

     iteration # 39     ecut=    30.00 Ry     beta=0.70
     Davidson diagonalization with overlap
     ethr =  8.14E-03,  avg # of iterations =  1.0

     negative rho (up, down):  2.063E-08 0.000E+00

     total cpu time spent up to now is        8.1 secs

     total energy              =     -31.63960617 Ry
     Harris-Foulkes estimate   =     -31.63650175 Ry
     estimated scf accuracy    <       0.83351614 Ry

     iteration # 40     ecut=    30.00 Ry     beta=0.70
     Davidson diagonalization with overlap
     ethr =  8.14E-03,  avg # of iterations =  1.0

     total cpu time spent up to now is        8.1 secs

     total energy              =     -31.62892516 Ry
     Harris-Foulkes estimate   =     -31.63986225 Ry
     estimated scf accuracy    <       0.82532570 Ry

     iteration # 41     ecut=    30.00 Ry     beta=0.70
     Davidson diagonalization with overlap
     ethr =  8.14E-03,  avg # of iterations =  1.0

     negative rho (up, down):  3.299E-08 0.000E+00

     total cpu time spent up to now is        8.2 secs

     total energy              =     -31.65137197 Ry
     Harris-Foulkes estimate   =     -31.62912814 Ry
     estimated scf accuracy    <       0.82015282 Ry

     iteration # 42     ecut=    30.00 Ry     beta=0.70
     Davidson diagonalization with overlap
     ethr =  8.14E-03,  avg # of iterations =  1.0

     negative rho (up, down):  1.328E-07 0.000E+00

     total cpu time spent up to now is        8.2 secs

     total energy              =     -31.63824354 Ry
     Harris-Foulkes estimate   =     -31.65271906 Ry
     estimated scf accuracy    <       0.90520497 Ry

     iteration # 43     ecut=    30.00 Ry     beta=0.70
     Davidson diagonalization with overlap
     ethr =  8.14E-03,  avg # of iterations =  1.0

     negative rho (up, down):  3.311E-06 0.000E+00

     total cpu time spent up to now is        8.2 secs

     total energy              =     -31.57179748 Ry
     Harris-Foulkes estimate   =     -31.63947499 Ry
     estimated scf accuracy    <       1.15095156 Ry

     iteration # 44     ecut=    30.00 Ry     beta=0.70
     Davidson diagonalization with overlap
     ethr =  8.14E-03,  avg # of iterations =  1.0

     negative rho (up, down):  8.890E-07 0.000E+00

     total cpu time spent up to now is        8.3 secs

     total energy              =     -31.61897055 Ry
     Harris-Foulkes estimate   =     -31.57236768 Ry
     estimated scf accuracy    <       0.88712537 Ry

     iteration # 45     ecut=    30.00 Ry     beta=0.70
     Davidson diagonalization with overlap
     ethr =  8.14E-03,  avg # of iterations =  1.0

     negative rho (up, down):  1.244E-07 0.000E+00

     total cpu time spent up to now is        8.3 secs

     total energy              =     -31.63283555 Ry
     Harris-Foulkes estimate   =     -31.61916390 Ry
     estimated scf accuracy    <       0.89139003 Ry

     iteration # 46     ecut=    30.00 Ry     beta=0.70
     Davidson diagonalization with overlap
     ethr =  8.14E-03,  avg # of iterations =  1.0

     negative rho (up, down):  3.894E-07 0.000E+00

     total cpu time spent up to now is        8.3 secs

     total energy              =     -31.47932756 Ry
     Harris-Foulkes estimate   =     -31.64028252 Ry
     estimated scf accuracy    <       1.03397663 Ry

     iteration # 47     ecut=    30.00 Ry     beta=0.70
     Davidson diagonalization with overlap
     ethr =  8.14E-03,  avg # of iterations =  1.0

     total cpu time spent up to now is        8.4 secs

     total energy              =     -31.36263229 Ry
     Harris-Foulkes estimate   =     -31.52769342 Ry
     estimated scf accuracy    <       3.32255777 Ry

     iteration # 48     ecut=    30.00 Ry     beta=0.70
     Davidson diagonalization with overlap
     ethr =  8.14E-03,  avg # of iterations =  1.0

     negative rho (up, down):  8.700E-07 0.000E+00

     total cpu time spent up to now is        8.4 secs

     total energy              =     -31.69293494 Ry
     Harris-Foulkes estimate   =     -31.59601161 Ry
     estimated scf accuracy    <       0.78916079 Ry

     iteration # 49     ecut=    30.00 Ry     beta=0.70
     Davidson diagonalization with overlap
     ethr =  8.14E-03,  avg # of iterations =  1.0

     total cpu time spent up to now is        8.4 secs

     total energy              =     -31.63036684 Ry
     Harris-Foulkes estimate   =     -31.69355597 Ry
     estimated scf accuracy    <       0.94912574 Ry

     iteration # 50     ecut=    30.00 Ry     beta=0.70
     Davidson diagonalization with overlap
     ethr =  8.14E-03,  avg # of iterations =  1.0

     total cpu time spent up to now is        8.5 secs

     total energy              =     -31.60648206 Ry
     Harris-Foulkes estimate   =     -31.63056636 Ry
     estimated scf accuracy    <       0.89510091 Ry

     iteration # 51     ecut=    30.00 Ry     beta=0.70
     Davidson diagonalization with overlap
     ethr =  8.14E-03,  avg # of iterations =  1.0

     total cpu time spent up to now is        8.5 secs

     total energy              =     -31.57135316 Ry
     Harris-Foulkes estimate   =     -31.60652752 Ry
     estimated scf accuracy    <       0.84462269 Ry

     iteration # 52     ecut=    30.00 Ry     beta=0.70
     Davidson diagonalization with overlap
     ethr =  8.14E-03,  avg # of iterations =  1.0

[...]

     total cpu time spent up to now is       19.2 secs

     total energy              =     -82.53639068 Ry
     Harris-Foulkes estimate   =     -81.67407534 Ry
     estimated scf accuracy    <      67.01721824 Ry

     iteration # 59     ecut=    30.00 Ry     beta=0.70
     Davidson diagonalization with overlap
     ethr =  7.92E-03,  avg # of iterations =  7.0

     total cpu time spent up to now is       19.2 secs

     total energy              =      76.81452048 Ry
     Harris-Foulkes estimate   =    -400.37667718 Ry
     estimated scf accuracy    <      16.71624994 Ry

     iteration # 60     ecut=    30.00 Ry     beta=0.70
     Davidson diagonalization with overlap
     ethr =  7.92E-03,  avg # of iterations =  4.0

     negative rho (up, down):  5.373E-02 0.000E+00

     total cpu time spent up to now is       19.3 secs

     total energy              =     -63.83380700 Ry
     Harris-Foulkes estimate   =     -72.58343523 Ry
     estimated scf accuracy    <      55.38869473 Ry

     iteration # 61     ecut=    30.00 Ry     beta=0.70
     Davidson diagonalization with overlap
     ethr =  7.92E-03,  avg # of iterations =  6.0

     negative rho (up, down):  3.867E-02 0.000E+00

     total cpu time spent up to now is       19.3 secs

     total energy              =      21.15307632 Ry
     Harris-Foulkes estimate   =    -318.93979845 Ry
     estimated scf accuracy    <      16.78435392 Ry

     iteration # 62     ecut=    30.00 Ry     beta=0.70
     Davidson diagonalization with overlap
     ethr =  7.92E-03,  avg # of iterations =  8.0

     negative rho (up, down):  6.449E-03 0.000E+00

     total cpu time spent up to now is       19.4 secs

     total energy              =      65.79686340 Ry
     Harris-Foulkes estimate   =    -222.42146501 Ry
     estimated scf accuracy    <      24.11623633 Ry

     iteration # 63     ecut=    30.00 Ry     beta=0.70
     Davidson diagonalization with overlap
     ethr =  7.92E-03,  avg # of iterations =  9.0

     negative rho (up, down):  3.068E-02 0.000E+00

     total cpu time spent up to now is       19.4 secs

     total energy              =     -82.30438112 Ry
     Harris-Foulkes estimate   =    -189.61932631 Ry
     estimated scf accuracy    <      29.18393474 Ry

     iteration # 64     ecut=    30.00 Ry     beta=0.70
     Davidson diagonalization with overlap
     ethr =  7.92E-03,  avg # of iterations =  7.0

     negative rho (up, down):  3.624E-02 0.000E+00

     total cpu time spent up to now is       19.5 secs

     total energy              =       2.21320433 Ry
     Harris-Foulkes estimate   =    -684.71917799 Ry
     estimated scf accuracy    <      33.48454044 Ry

     iteration # 65     ecut=    30.00 Ry     beta=0.70
     Davidson diagonalization with overlap
     ethr =  7.92E-03,  avg # of iterations =  5.0

     negative rho (up, down):  3.316E-02 0.000E+00

     total cpu time spent up to now is       19.5 secs

     total energy              =     -65.13122568 Ry
     Harris-Foulkes estimate   =     -77.63251603 Ry
     estimated scf accuracy    <      50.67381268 Ry

     iteration # 66     ecut=    30.00 Ry     beta=0.70
     Davidson diagonalization with overlap
     ethr =  7.92E-03,  avg # of iterations =  9.0

     negative rho (up, down):  8.917E-03 0.000E+00

     total cpu time spent up to now is       19.6 secs

     total energy              =       4.47756480 Ry
     Harris-Foulkes estimate   =    -106.26202267 Ry
     estimated scf accuracy    <      32.79951309 Ry

     iteration # 67     ecut=    30.00 Ry     beta=0.70
     Davidson diagonalization with overlap
     ethr =  7.92E-03,  avg # of iterations =  6.0

     negative rho (up, down):  8.110E-02 0.000E+00

     total cpu time spent up to now is       19.6 secs

     total energy              =     -67.52549061 Ry
     Harris-Foulkes estimate   =     -64.68098118 Ry
     estimated scf accuracy    <      45.58947138 Ry

     iteration # 68     ecut=    30.00 Ry     beta=0.70
     Davidson diagonalization with overlap
     ethr =  7.92E-03,  avg # of iterations =  1.0

     negative rho (up, down):  1.718E+00 0.000E+00

     total cpu time spent up to now is       19.6 secs

     total energy              =     -88.42739721 Ry
     Harris-Foulkes estimate   =     -67.53592939 Ry
     estimated scf accuracy    <      48.80761478 Ry

     iteration # 69     ecut=    30.00 Ry     beta=0.70
     Davidson diagonalization with overlap
     ethr =  7.92E-03,  avg # of iterations = 15.0

     negative rho (up, down):  1.752E+00 0.000E+00

     total cpu time spent up to now is       19.7 secs

     total energy              =   -1364.01266694 Ry
     Harris-Foulkes estimate   =    -955.62922837 Ry
     estimated scf accuracy    <      52.08307357 Ry

     iteration # 70     ecut=    30.00 Ry     beta=0.70
     Davidson diagonalization with overlap
     ethr =  7.92E-03,  avg # of iterations =  8.0

     negative rho (up, down):  1.194E-01 0.000E+00

     total cpu time spent up to now is       19.8 secs

     total energy              =     136.73839566 Ry
     Harris-Foulkes estimate   =   -4255.30618674 Ry
     estimated scf accuracy    <      48.23586713 Ry

     iteration # 71     ecut=    30.00 Ry     beta=0.70
     Davidson diagonalization with overlap
     ethr =  7.92E-03,  avg # of iterations =  8.0

     negative rho (up, down):  4.182E-02 0.000E+00

     total cpu time spent up to now is       19.8 secs

     total energy              =      63.15569959 Ry
     Harris-Foulkes estimate   =    -364.44803800 Ry
     estimated scf accuracy    <      24.45695584 Ry

     iteration # 72     ecut=    30.00 Ry     beta=0.70
     Davidson diagonalization with overlap
     ethr =  7.92E-03,  avg # of iterations =  6.0

     negative rho (up, down):  3.080E-03 0.000E+00

     total cpu time spent up to now is       19.9 secs

     total energy              =      54.70561063 Ry
     Harris-Foulkes estimate   =    -302.66068299 Ry
     estimated scf accuracy    <      24.91777162 Ry

     iteration # 73     ecut=    30.00 Ry     beta=0.70
     Davidson diagonalization with overlap
     ethr =  7.92E-03,  avg # of iterations =  7.0

     negative rho (up, down):  8.567E-02 0.000E+00

     total cpu time spent up to now is       19.9 secs

     total energy              =     -13.07496201 Ry
     Harris-Foulkes estimate   =    -141.86045036 Ry
     estimated scf accuracy    <      41.78906977 Ry

     iteration # 74     ecut=    30.00 Ry     beta=0.70
     Davidson diagonalization with overlap
     ethr =  7.92E-03,  avg # of iterations =  8.0

     total cpu time spent up to now is       20.0 secs

     total energy              =      52.93469220 Ry
     Harris-Foulkes estimate   =    -207.78598437 Ry
     estimated scf accuracy    <      27.99468450 Ry

     iteration # 75     ecut=    30.00 Ry     beta=0.70
     Davidson diagonalization with overlap
     ethr =  7.92E-03,  avg # of iterations =  5.0

     negative rho (up, down):  9.918E-02 0.000E+00

     total cpu time spent up to now is       20.0 secs

     total energy              =     -49.86406374 Ry
     Harris-Foulkes estimate   =     -52.62075151 Ry
     estimated scf accuracy    <      31.74379750 Ry

     iteration # 76     ecut=    30.00 Ry     beta=0.70
     Davidson diagonalization with overlap
     ethr =  7.92E-03,  avg # of iterations = 10.0

     negative rho (up, down):  2.812E-02 0.000E+00

     total cpu time spent up to now is       20.1 secs

     total energy              =       6.54352242 Ry
     Harris-Foulkes estimate   =    -357.03736955 Ry
     estimated scf accuracy    <      39.03332239 Ry

     iteration # 77     ecut=    30.00 Ry     beta=0.70
     Davidson diagonalization with overlap
     ethr =  7.92E-03,  avg # of iterations =  5.0

     negative rho (up, down):  4.917E-03 0.000E+00

     total cpu time spent up to now is       20.1 secs

     total energy              =     140.05319901 Ry
     Harris-Foulkes estimate   =   -4057.69172922 Ry
     estimated scf accuracy    <      39.12349361 Ry

     iteration # 78     ecut=    30.00 Ry     beta=0.70
     Davidson diagonalization with overlap
     ethr =  7.92E-03,  avg # of iterations =  6.0

     negative rho (up, down):  3.787E-02 0.000E+00

     total cpu time spent up to now is       20.2 secs

     total energy              =     -36.12761654 Ry
     Harris-Foulkes estimate   =    -120.46480572 Ry
     estimated scf accuracy    <      31.25201300 Ry

     iteration # 79     ecut=    30.00 Ry     beta=0.70
     Davidson diagonalization with overlap
     ethr =  7.92E-03,  avg # of iterations =  4.0

     negative rho (up, down):  2.144E-01 0.000E+00

     total cpu time spent up to now is       20.2 secs

     total energy              =     -90.76907360 Ry
     Harris-Foulkes estimate   =    -365.89780998 Ry
     estimated scf accuracy    <      41.80439457 Ry

     iteration # 80     ecut=    30.00 Ry     beta=0.70
     Davidson diagonalization with overlap
     ethr =  7.92E-03,  avg # of iterations =  5.0

     negative rho (up, down):  4.622E-01 0.000E+00

     total cpu time spent up to now is       20.3 secs

     total energy              =    -372.54716824 Ry
     Harris-Foulkes estimate   =    -925.19493040 Ry
     estimated scf accuracy    <      43.43891034 Ry

     iteration # 81     ecut=    30.00 Ry     beta=0.70
     Davidson diagonalization with overlap
     ethr =  7.92E-03,  avg # of iterations =  8.0

     negative rho (up, down):  7.015E-01 0.000E+00

     total cpu time spent up to now is       20.3 secs

     total energy              =   -1826.31043198 Ry
     Harris-Foulkes estimate   =   -3096.47536597 Ry
     estimated scf accuracy    <      32.96353711 Ry

     iteration # 82     ecut=    30.00 Ry     beta=0.70
     Davidson diagonalization with overlap
     ethr =  7.92E-03,  avg # of iterations =  9.0

     negative rho (up, down):  2.870E-01 0.000E+00

     total cpu time spent up to now is       20.4 secs

     total energy              =      76.67292516 Ry
     Harris-Foulkes estimate   =   -4782.04435212 Ry
     estimated scf accuracy    <      34.07866456 Ry

     iteration # 83     ecut=    30.00 Ry     beta=0.70
     Davidson diagonalization with overlap
     ethr =  7.92E-03,  avg # of iterations =  9.0

     negative rho (up, down):  5.847E-01 0.000E+00

     total cpu time spent up to now is       20.5 secs

     total energy              =     -60.22586171 Ry
     Harris-Foulkes estimate   =   -1143.63201835 Ry
     estimated scf accuracy    <      34.47886628 Ry

     iteration # 84     ecut=    30.00 Ry     beta=0.70
     Davidson diagonalization with overlap
     ethr =  7.92E-03,  avg # of iterations =  6.0

     negative rho (up, down):  7.826E-01 0.000E+00

     total cpu time spent up to now is       20.5 secs

     total energy              =      80.82444930 Ry
     Harris-Foulkes estimate   =   -2803.73134528 Ry
     estimated scf accuracy    <      36.35736579 Ry

     iteration # 85     ecut=    30.00 Ry     beta=0.70
     Davidson diagonalization with overlap
     ethr =  7.92E-03,  avg # of iterations =  7.0

     negative rho (up, down):  9.056E-01 0.000E+00

     total cpu time spent up to now is       20.6 secs

     total energy              =     -18.76315396 Ry
     Harris-Foulkes estimate   =    -319.40142984 Ry
     estimated scf accuracy    <      28.90987715 Ry

     iteration # 86     ecut=    30.00 Ry     beta=0.70
     Davidson diagonalization with overlap
     ethr =  7.92E-03,  avg # of iterations =  5.0

     negative rho (up, down):  1.583E+00 0.000E+00

     total cpu time spent up to now is       20.6 secs

     total energy              =      62.01223556 Ry
     Harris-Foulkes estimate   =    -564.08247503 Ry
     estimated scf accuracy    <      26.15569129 Ry

     iteration # 87     ecut=    30.00 Ry     beta=0.70
     Davidson diagonalization with overlap
     ethr =  7.92E-03,  avg # of iterations = 16.0

     negative rho (up, down):  5.128E-01 0.000E+00

     total cpu time spent up to now is       20.7 secs

     total energy              =      64.13937258 Ry
     Harris-Foulkes estimate   =    -646.14208174 Ry
     estimated scf accuracy    <      37.77684346 Ry

     iteration # 88     ecut=    30.00 Ry     beta=0.70
     Davidson diagonalization with overlap
     ethr =  7.92E-03,  avg # of iterations = 12.0

     negative rho (up, down):  8.479E-02 0.000E+00

     total cpu time spent up to now is       20.7 secs

     total energy              =      91.79680827 Ry
     Harris-Foulkes estimate   =  -17033.41082083 Ry
     estimated scf accuracy    <      24.83902579 Ry

     iteration # 89     ecut=    30.00 Ry     beta=0.70
     Davidson diagonalization with overlap
     ethr =  7.92E-03,  avg # of iterations = 12.0

     negative rho (up, down):  6.616E-02 0.000E+00

     total cpu time spent up to now is       20.8 secs

     total energy              =    -590.40786630 Ry
     Harris-Foulkes estimate   =    -284.12411925 Ry
     estimated scf accuracy    <      37.68816838 Ry

     iteration # 90     ecut=    30.00 Ry     beta=0.70
     Davidson diagonalization with overlap
     ethr =  7.92E-03,  avg # of iterations =  5.0

     negative rho (up, down):  1.294E-01 0.000E+00

     total cpu time spent up to now is       20.9 secs

     total energy              =       8.03131934 Ry
     Harris-Foulkes estimate   =   -4402.83377198 Ry
     estimated scf accuracy    <      21.09403667 Ry

     iteration # 91     ecut=    30.00 Ry     beta=0.70
     Davidson diagonalization with overlap
     ethr =  7.92E-03,  avg # of iterations =  6.0

     negative rho (up, down):  9.153E-02 0.000E+00

     total cpu time spent up to now is       20.9 secs

     total energy              =      76.56655272 Ry
     Harris-Foulkes estimate   =    -454.67769302 Ry
     estimated scf accuracy    <      25.92681204 Ry

     iteration # 92     ecut=    30.00 Ry     beta=0.70
     Davidson diagonalization with overlap
     ethr =  7.92E-03,  avg # of iterations =  8.0

     negative rho (up, down):  4.442E-02 0.000E+00

     total cpu time spent up to now is       21.0 secs

     total energy              =      40.28346761 Ry
     Harris-Foulkes estimate   =    -195.06918869 Ry
     estimated scf accuracy    <      17.84734675 Ry

     iteration # 93     ecut=    30.00 Ry     beta=0.70
     Davidson diagonalization with overlap
     ethr =  7.92E-03,  avg # of iterations =  6.0

     negative rho (up, down):  5.550E-03 0.000E+00

     total cpu time spent up to now is       21.0 secs

     total energy              =       7.28872597 Ry
     Harris-Foulkes estimate   =   -2970.55177093 Ry
     estimated scf accuracy    <       8.58250223 Ry

     iteration # 94     ecut=    30.00 Ry     beta=0.70
     Davidson diagonalization with overlap
     ethr =  7.92E-03,  avg # of iterations =  4.0

     negative rho (up, down):  2.884E-03 0.000E+00

     total cpu time spent up to now is       21.1 secs

     total energy              =     -36.23041447 Ry
     Harris-Foulkes estimate   =     -36.61903898 Ry
     estimated scf accuracy    <      10.97583416 Ry

     iteration # 95     ecut=    30.00 Ry     beta=0.70
     Davidson diagonalization with overlap
     ethr =  7.92E-03,  avg # of iterations =  2.0

     negative rho (up, down):  1.944E-02 0.000E+00

     total cpu time spent up to now is       21.1 secs

     total energy              =     -34.34261696 Ry
     Harris-Foulkes estimate   =     -36.25651850 Ry
     estimated scf accuracy    <       9.74106550 Ry

     iteration # 96     ecut=    30.00 Ry     beta=0.70
     Davidson diagonalization with overlap
     ethr =  7.92E-03,  avg # of iterations =  3.0

     negative rho (up, down):  1.752E-02 0.000E+00

     total cpu time spent up to now is       21.1 secs

     total energy              =     -34.26569642 Ry
     Harris-Foulkes estimate   =     -34.60533657 Ry
     estimated scf accuracy    <       9.15142560 Ry

     iteration # 97     ecut=    30.00 Ry     beta=0.70
     Davidson diagonalization with overlap
     ethr =  7.92E-03,  avg # of iterations =  4.0

     negative rho (up, down):  1.144E-01 0.000E+00

     total cpu time spent up to now is       21.2 secs

     total energy              =    -267.84850697 Ry
     Harris-Foulkes estimate   =     -47.98050488 Ry
     estimated scf accuracy    <       8.14093351 Ry

     iteration # 98     ecut=    30.00 Ry     beta=0.70
     Davidson diagonalization with overlap
     ethr =  7.92E-03,  avg # of iterations = 12.0

     negative rho (up, down):  2.907E-02 0.000E+00

     total cpu time spent up to now is       21.2 secs

     total energy              =     129.99315984 Ry
     Harris-Foulkes estimate   =   -4335.73367703 Ry
     estimated scf accuracy    <      42.39714206 Ry

     iteration # 99     ecut=    30.00 Ry     beta=0.70
     Davidson diagonalization with overlap
     ethr =  7.92E-03,  avg # of iterations =  8.0

     negative rho (up, down):  8.277E-02 0.000E+00

     total cpu time spent up to now is       21.3 secs

     total energy              =      17.41515803 Ry
     Harris-Foulkes estimate   =    -505.96930102 Ry
     estimated scf accuracy    <      10.14922722 Ry

     iteration #100     ecut=    30.00 Ry     beta=0.70
     Davidson diagonalization with overlap
     ethr =  7.92E-03,  avg # of iterations =  6.0

     negative rho (up, down):  8.761E-02 0.000E+00

     total cpu time spent up to now is       21.3 secs

     total energy              =      30.30375152 Ry
     Harris-Foulkes estimate   =    -492.67565642 Ry
     estimated scf accuracy    <      21.50240807 Ry

     End of self-consistent calculation

     convergence NOT achieved after 100 iterations: stopping

     Writing output data file pwscf.save
 
     init_run     :      0.09s CPU      0.11s WALL (       1 calls)
     electrons    :     13.86s CPU     17.99s WALL (      12 calls)
     update_pot   :      1.35s CPU      2.12s WALL (      11 calls)
     forces       :      0.33s CPU      0.37s WALL (      11 calls)

     Called by init_run:
     wfcinit      :      0.01s CPU      0.02s WALL (       1 calls)
     potinit      :      0.02s CPU      0.03s WALL (       1 calls)

     Called by electrons:
     c_bands      :      6.03s CPU      6.50s WALL (     438 calls)
     sum_band     :      1.28s CPU      1.36s WALL (     438 calls)
     v_of_rho     :      3.31s CPU      3.56s WALL (     450 calls)
     mix_rho      :      2.72s CPU      5.00s WALL (     438 calls)

     Called by c_bands:
     init_us_2    :      0.04s CPU      0.05s WALL (     877 calls)
     cegterg      :      5.93s CPU      6.26s WALL (     438 calls)

     Called by sum_band:

     Called by *egterg:
     h_psi        :      5.02s CPU      5.27s WALL (    1785 calls)
     g_psi        :      0.05s CPU      0.05s WALL (    1346 calls)
     cdiaghg      :      0.33s CPU      0.35s WALL (    1773 calls)

     Called by h_psi:
     h_psi:pot    :      4.99s CPU      5.24s WALL (    1785 calls)
     h_psi:calbec :      0.13s CPU      0.24s WALL (    1785 calls)
     vloc_psi     :      4.84s CPU      4.98s WALL (    1785 calls)
     add_vuspsi   :      0.01s CPU      0.02s WALL (    1785 calls)

     General routines
     calbec       :      0.21s CPU      0.35s WALL (    1839 calls)
     fft          :      1.99s CPU      2.15s WALL (    4972 calls)
     fftw         :      5.17s CPU      5.36s WALL (   23288 calls)
     davcio       :      0.43s CPU      1.92s WALL (    7705 calls)
 
     Parallel routines
     fft_scatter  :      2.71s CPU      2.90s WALL (   28260 calls)
 
     PWSCF        :    16.00s CPU        21.42s WALL

 
   This run was terminated on:  23:39:11  10Feb2018            

=------------------------------------------------------------------------------=
   JOB DONE.
=------------------------------------------------------------------------------=
