
     Program PWSCF v.6.0 (svn rev. 13079) starts on 20Apr2018 at 20:40:51 

     This program is part of the open-source Quantum ESPRESSO suite
     for quantum simulation of materials; please cite
         "P. Giannozzi et al., J. Phys.:Condens. Matter 21 395502 (2009);
          URL http://www.quantum-espresso.org", 
     in publications or presentations arising from this work. More details at
     http://www.quantum-espresso.org/quote

     Parallel version (MPI), running on    28 processors
     R & G space division:  proc/nbgrp/npool/nimage =      28
     Reading input from ../Echeck-in/1000.in
Warning: card &IONS ignored
Warning: card     POT_EXTRAPOLATION='SECOND-ORDER' ignored
Warning: card     WFC_EXTRAPOLATION='SECOND-ORDER' ignored
Warning: card     ION_TEMPERATURE = 'ANDERSEN' ignored
Warning: card     TEMPW = 1000 ignored
Warning: card / ignored

     Current dimensions of program PWSCF are:
     Max number of different atomic species (ntypx) = 10
     Max number of k-points (npk) =  40000
     Max angular momentum in pseudopotentials (lmaxx) =  3

     Subspace diagonalization in iterative solution of the eigenvalue problem:
     a serial algorithm will be used

 
     Parallelization info
     --------------------
     sticks:   dense  smooth     PW     G-vecs:    dense   smooth      PW
     Min         136     136     33                 6338     6338     787
     Max         137     137     34                 6341     6341     792
     Sum        3809    3809    949               177509   177509   22119
 


     bravais-lattice index     =            1
     lattice parameter (alat)  =      20.0000  a.u.
     unit-cell volume          =    8000.0000 (a.u.)^3
     number of atoms/cell      =            3
     number of atomic types    =            2
     number of electrons       =         8.00
     number of Kohn-Sham states=            8
     kinetic-energy cutoff     =      30.0000  Ry
     charge density cutoff     =     120.0000  Ry
     convergence threshold     =      1.0E-08
     mixing beta               =       0.7000
     number of iterations used =            8  plain     mixing
     Exchange-correlation      = BLYP ( 1  3  1  3 0 0)

     celldm(1)=  20.000000  celldm(2)=   0.000000  celldm(3)=   0.000000
     celldm(4)=   0.000000  celldm(5)=   0.000000  celldm(6)=   0.000000

     crystal axes: (cart. coord. in units of alat)
               a(1) = (   1.000000   0.000000   0.000000 )  
               a(2) = (   0.000000   1.000000   0.000000 )  
               a(3) = (   0.000000   0.000000   1.000000 )  

     reciprocal axes: (cart. coord. in units 2 pi/alat)
               b(1) = (  1.000000  0.000000  0.000000 )  
               b(2) = (  0.000000  1.000000  0.000000 )  
               b(3) = (  0.000000  0.000000  1.000000 )  


     PseudoPot. # 1 for  H read from file:
     ./H.blyp-hgh.UPF
     MD5 check sum: c576e69559cde411e611be972c763230
     Pseudo is Norm-conserving, Zval =  1.0
     Generated in analytical, separable form
     Using radial grid of  929 points,  0 beta functions with: 

     PseudoPot. # 2 for  O read from file:
     ./O.blyp-hgh.UPF
     MD5 check sum: d0b7156309aa9befef28faac7bc56342
     Pseudo is Norm-conserving, Zval =  6.0
     Generated in analytical, separable form
     Using radial grid of 1095 points,  1 beta functions with: 
                l(1) =   0

     atomic species   valence    mass     pseudopotential
        H              1.00     1.01000      H( 1.00)
        O              6.00    16.00000      O( 1.00)

     No symmetry found



   Cartesian axes

     site n.     atom                  positions (alat units)
         1           O   tau(   1) = (   0.0012428  -0.0012520   0.0058246  )
         2           H   tau(   2) = (  -0.0182254   0.0440473  -0.0087278  )
         3           H   tau(   3) = (  -0.0014634  -0.0242136  -0.0367839  )

     number of k points=     1  Marzari-Vanderbilt smearing, width (Ry)=  0.0250
                       cart. coord. in units 2pi/alat
        k(    1) = (   0.0000000   0.0000000   0.0000000), wk =   2.0000000

     Dense  grid:   177509 G-vectors     FFT dimensions: (  72,  72,  72)

     Estimated max dynamical RAM per process >       6.09Mb

     Estimated total allocated dynamical RAM >     170.64Mb

     Initial potential from superposition of free atoms
     Check: negative starting charge=   -0.362356

     starting charge    7.99998, renormalised to    8.00000

     negative rho (up, down):  3.624E-01 0.000E+00
     Starting wfc are    6 randomized atomic wfcs +    2 random wfc

     total cpu time spent up to now is        0.4 secs

     per-process dynamical memory:    18.8 Mb

     Self-consistent Calculation

     iteration #  1     ecut=    30.00 Ry     beta=0.70
     Davidson diagonalization with overlap
     ethr =  1.00E-02,  avg # of iterations =  9.0

     negative rho (up, down):  1.059E-01 0.000E+00

     total cpu time spent up to now is        0.6 secs

     total energy              =     -29.15711729 Ry
     Harris-Foulkes estimate   =     -29.67895882 Ry
     estimated scf accuracy    <       0.63330168 Ry

     iteration #  2     ecut=    30.00 Ry     beta=0.70
     Davidson diagonalization with overlap
     ethr =  7.92E-03,  avg # of iterations =  2.0

     negative rho (up, down):  3.980E-02 0.000E+00

     total cpu time spent up to now is        0.6 secs

     total energy              =     -29.29225036 Ry
     Harris-Foulkes estimate   =     -29.28995070 Ry
     estimated scf accuracy    <       0.06711220 Ry

     iteration #  3     ecut=    30.00 Ry     beta=0.70
     Davidson diagonalization with overlap
     ethr =  8.39E-04,  avg # of iterations =  3.0

     negative rho (up, down):  3.811E-03 0.000E+00

     total cpu time spent up to now is        0.7 secs

     total energy              =     -29.34096796 Ry
     Harris-Foulkes estimate   =     -29.31018739 Ry
     estimated scf accuracy    <       0.00655478 Ry

     iteration #  4     ecut=    30.00 Ry     beta=0.70
     Davidson diagonalization with overlap
     ethr =  8.19E-05,  avg # of iterations =  5.0

     negative rho (up, down):  2.219E-04 0.000E+00

     total cpu time spent up to now is        0.7 secs

     total energy              =     -29.34032656 Ry
     Harris-Foulkes estimate   =     -29.33831140 Ry
     estimated scf accuracy    <       0.00012481 Ry

     iteration #  5     ecut=    30.00 Ry     beta=0.70
     Davidson diagonalization with overlap
     c_bands:  1 eigenvalues not converged
     ethr =  1.56E-06,  avg # of iterations = 20.0

     total cpu time spent up to now is        0.8 secs

     total energy              =     -29.34038460 Ry
     Harris-Foulkes estimate   =     -29.34035142 Ry
     estimated scf accuracy    <       0.00000082 Ry

     iteration #  6     ecut=    30.00 Ry     beta=0.70
     Davidson diagonalization with overlap
     ethr =  1.02E-08,  avg # of iterations = 10.0

     total cpu time spent up to now is        0.9 secs

     total energy              =     -29.34038551 Ry
     Harris-Foulkes estimate   =     -29.34038510 Ry
     estimated scf accuracy    <       0.00000006 Ry

     iteration #  7     ecut=    30.00 Ry     beta=0.70
     Davidson diagonalization with overlap
     ethr =  7.42E-10,  avg # of iterations =  2.0

     total cpu time spent up to now is        0.9 secs

     End of self-consistent calculation

          k = 0.0000 0.0000 0.0000 ( 22119 PWs)   bands (ev):

   -33.9972 -17.9405 -10.5829  -8.0563  -0.5085   0.5665   1.0034   1.0762

     the Fermi energy is    -7.7430 ev

!    total energy              =     -29.34038630 Ry
     Harris-Foulkes estimate   =     -29.34038552 Ry
     estimated scf accuracy    <          5.3E-09 Ry

     The total energy is the sum of the following terms:

     one-electron contribution =     -74.37529328 Ry
     hartree contribution      =      37.97724976 Ry
     xc contribution           =      -9.24408559 Ry
     ewald contribution        =      16.29766535 Ry
     smearing contrib. (-TS)   =       0.00407747 Ry

     convergence has been achieved in   7 iterations

     Writing output data file pwscf.save
 
     init_run     :      0.16s CPU      0.19s WALL (       1 calls)
     electrons    :      0.44s CPU      0.58s WALL (       1 calls)

     Called by init_run:
     wfcinit      :      0.01s CPU      0.02s WALL (       1 calls)
     potinit      :      0.05s CPU      0.05s WALL (       1 calls)

     Called by electrons:
     c_bands      :      0.22s CPU      0.23s WALL (       7 calls)
     sum_band     :      0.03s CPU      0.03s WALL (       7 calls)
     v_of_rho     :      0.08s CPU      0.09s WALL (       8 calls)
     mix_rho      :      0.05s CPU      0.07s WALL (       7 calls)

     Called by c_bands:
     init_us_2    :      0.00s CPU      0.00s WALL (      15 calls)
     cegterg      :      0.22s CPU      0.23s WALL (       7 calls)

     Called by sum_band:

     Called by *egterg:
     h_psi        :      0.19s CPU      0.20s WALL (      59 calls)
     g_psi        :      0.00s CPU      0.00s WALL (      51 calls)
     cdiaghg      :      0.01s CPU      0.01s WALL (      58 calls)

     Called by h_psi:
     h_psi:pot    :      0.19s CPU      0.20s WALL (      59 calls)
     h_psi:calbec :      0.00s CPU      0.00s WALL (      59 calls)
     vloc_psi     :      0.19s CPU      0.20s WALL (      59 calls)
     add_vuspsi   :      0.00s CPU      0.00s WALL (      59 calls)

     General routines
     calbec       :      0.00s CPU      0.00s WALL (      59 calls)
     fft          :      0.08s CPU      0.08s WALL (      87 calls)
     fftw         :      0.20s CPU      0.21s WALL (     520 calls)
     davcio       :      0.01s CPU      0.02s WALL (      54 calls)
 
     Parallel routines
     fft_scatter  :      0.19s CPU      0.20s WALL (     607 calls)
 
     PWSCF        :     0.74s CPU         1.31s WALL

 
   This run was terminated on:  20:40:52  20Apr2018            

=------------------------------------------------------------------------------=
   JOB DONE.
=------------------------------------------------------------------------------=
