
     Program PWSCF v.6.0 (svn rev. 13079) starts on 20Apr2018 at 20:41: 0 

     This program is part of the open-source Quantum ESPRESSO suite
     for quantum simulation of materials; please cite
         "P. Giannozzi et al., J. Phys.:Condens. Matter 21 395502 (2009);
          URL http://www.quantum-espresso.org", 
     in publications or presentations arising from this work. More details at
     http://www.quantum-espresso.org/quote

     Parallel version (MPI), running on    28 processors
     R & G space division:  proc/nbgrp/npool/nimage =      28
     Reading input from ../Echeck-in/4000.in
Warning: card &IONS ignored
Warning: card     POT_EXTRAPOLATION='SECOND-ORDER' ignored
Warning: card     WFC_EXTRAPOLATION='SECOND-ORDER' ignored
Warning: card     ION_TEMPERATURE = 'ANDERSEN' ignored
Warning: card     TEMPW = 1000 ignored
Warning: card / ignored

     Current dimensions of program PWSCF are:
     Max number of different atomic species (ntypx) = 10
     Max number of k-points (npk) =  40000
     Max angular momentum in pseudopotentials (lmaxx) =  3

     Subspace diagonalization in iterative solution of the eigenvalue problem:
     a serial algorithm will be used

 
     Parallelization info
     --------------------
     sticks:   dense  smooth     PW     G-vecs:    dense   smooth      PW
     Min         136     136     33                 6338     6338     787
     Max         137     137     34                 6341     6341     792
     Sum        3809    3809    949               177509   177509   22119
 


     bravais-lattice index     =            1
     lattice parameter (alat)  =      20.0000  a.u.
     unit-cell volume          =    8000.0000 (a.u.)^3
     number of atoms/cell      =            3
     number of atomic types    =            2
     number of electrons       =         8.00
     number of Kohn-Sham states=            8
     kinetic-energy cutoff     =      30.0000  Ry
     charge density cutoff     =     120.0000  Ry
     convergence threshold     =      1.0E-08
     mixing beta               =       0.7000
     number of iterations used =            8  plain     mixing
     Exchange-correlation      = BLYP ( 1  3  1  3 0 0)

     celldm(1)=  20.000000  celldm(2)=   0.000000  celldm(3)=   0.000000
     celldm(4)=   0.000000  celldm(5)=   0.000000  celldm(6)=   0.000000

     crystal axes: (cart. coord. in units of alat)
               a(1) = (   1.000000   0.000000   0.000000 )  
               a(2) = (   0.000000   1.000000   0.000000 )  
               a(3) = (   0.000000   0.000000   1.000000 )  

     reciprocal axes: (cart. coord. in units 2 pi/alat)
               b(1) = (  1.000000  0.000000  0.000000 )  
               b(2) = (  0.000000  1.000000  0.000000 )  
               b(3) = (  0.000000  0.000000  1.000000 )  


     PseudoPot. # 1 for  H read from file:
     ./H.blyp-hgh.UPF
     MD5 check sum: c576e69559cde411e611be972c763230
     Pseudo is Norm-conserving, Zval =  1.0
     Generated in analytical, separable form
     Using radial grid of  929 points,  0 beta functions with: 

     PseudoPot. # 2 for  O read from file:
     ./O.blyp-hgh.UPF
     MD5 check sum: d0b7156309aa9befef28faac7bc56342
     Pseudo is Norm-conserving, Zval =  6.0
     Generated in analytical, separable form
     Using radial grid of 1095 points,  1 beta functions with: 
                l(1) =   0

     atomic species   valence    mass     pseudopotential
        H              1.00     1.01000      H( 1.00)
        O              6.00    16.00000      O( 1.00)

     No symmetry found



   Cartesian axes

     site n.     atom                  positions (alat units)
         1           O   tau(   1) = (  -0.0030243  -0.0000915   0.0039305  )
         2           H   tau(   2) = (   0.0185559   0.0376281  -0.0186763  )
         3           H   tau(   3) = (   0.0293546  -0.0361791   0.0031713  )

     number of k points=     1  Marzari-Vanderbilt smearing, width (Ry)=  0.0250
                       cart. coord. in units 2pi/alat
        k(    1) = (   0.0000000   0.0000000   0.0000000), wk =   2.0000000

     Dense  grid:   177509 G-vectors     FFT dimensions: (  72,  72,  72)

     Estimated max dynamical RAM per process >       6.09Mb

     Estimated total allocated dynamical RAM >     170.64Mb

     Initial potential from superposition of free atoms
     Check: negative starting charge=   -0.362414

     starting charge    7.99998, renormalised to    8.00000

     negative rho (up, down):  3.624E-01 0.000E+00
     Starting wfc are    6 randomized atomic wfcs +    2 random wfc

     total cpu time spent up to now is        0.4 secs

     per-process dynamical memory:    18.8 Mb

     Self-consistent Calculation

     iteration #  1     ecut=    30.00 Ry     beta=0.70
     Davidson diagonalization with overlap
     ethr =  1.00E-02,  avg # of iterations =  9.0

     negative rho (up, down):  1.059E-01 0.000E+00

     total cpu time spent up to now is        0.5 secs

     total energy              =     -28.87586805 Ry
     Harris-Foulkes estimate   =     -29.41900111 Ry
     estimated scf accuracy    <       0.66086447 Ry

     iteration #  2     ecut=    30.00 Ry     beta=0.70
     Davidson diagonalization with overlap
     ethr =  8.26E-03,  avg # of iterations =  2.0

     negative rho (up, down):  4.062E-02 0.000E+00

     total cpu time spent up to now is        0.5 secs

     total energy              =     -29.01845701 Ry
     Harris-Foulkes estimate   =     -29.02062637 Ry
     estimated scf accuracy    <       0.07321885 Ry

     iteration #  3     ecut=    30.00 Ry     beta=0.70
     Davidson diagonalization with overlap
     ethr =  9.15E-04,  avg # of iterations =  2.0

     negative rho (up, down):  3.471E-03 0.000E+00

     total cpu time spent up to now is        0.6 secs

     total energy              =     -29.06961967 Ry
     Harris-Foulkes estimate   =     -29.03782255 Ry
     estimated scf accuracy    <       0.00658372 Ry

     iteration #  4     ecut=    30.00 Ry     beta=0.70
     Davidson diagonalization with overlap
     ethr =  8.23E-05,  avg # of iterations =  5.0

     negative rho (up, down):  2.107E-04 0.000E+00

     total cpu time spent up to now is        0.6 secs

     total energy              =     -29.06865328 Ry
     Harris-Foulkes estimate   =     -29.06695931 Ry
     estimated scf accuracy    <       0.00013298 Ry

     iteration #  5     ecut=    30.00 Ry     beta=0.70
     Davidson diagonalization with overlap
     c_bands:  1 eigenvalues not converged
     ethr =  1.66E-06,  avg # of iterations = 20.0

     total cpu time spent up to now is        0.7 secs

     total energy              =     -29.06871208 Ry
     Harris-Foulkes estimate   =     -29.06868092 Ry
     estimated scf accuracy    <       0.00000075 Ry

     iteration #  6     ecut=    30.00 Ry     beta=0.70
     Davidson diagonalization with overlap
     ethr =  9.34E-09,  avg # of iterations =  5.0

     total cpu time spent up to now is        0.7 secs

     total energy              =     -29.06871253 Ry
     Harris-Foulkes estimate   =     -29.06871255 Ry
     estimated scf accuracy    <       0.00000005 Ry

     iteration #  7     ecut=    30.00 Ry     beta=0.70
     Davidson diagonalization with overlap
     ethr =  5.68E-10,  avg # of iterations =  2.0

     total cpu time spent up to now is        0.8 secs

     End of self-consistent calculation

          k = 0.0000 0.0000 0.0000 ( 22119 PWs)   bands (ev):

   -33.7144 -18.9595 -10.2727  -8.0928  -0.4951   0.5854   0.9960   1.0755

     the Fermi energy is    -7.7795 ev

!    total energy              =     -29.06871322 Ry
     Harris-Foulkes estimate   =     -29.06871253 Ry
     estimated scf accuracy    <          5.7E-09 Ry

     The total energy is the sum of the following terms:

     one-electron contribution =     -74.80948225 Ry
     hartree contribution      =      38.18932046 Ry
     xc contribution           =      -9.28934880 Ry
     ewald contribution        =      16.83671990 Ry
     smearing contrib. (-TS)   =       0.00407747 Ry

     convergence has been achieved in   7 iterations

     Writing output data file pwscf.save
 
     init_run     :      0.17s CPU      0.19s WALL (       1 calls)
     electrons    :      0.37s CPU      0.49s WALL (       1 calls)

     Called by init_run:
     wfcinit      :      0.01s CPU      0.02s WALL (       1 calls)
     potinit      :      0.05s CPU      0.05s WALL (       1 calls)

     Called by electrons:
     c_bands      :      0.21s CPU      0.22s WALL (       7 calls)
     sum_band     :      0.03s CPU      0.03s WALL (       7 calls)
     v_of_rho     :      0.08s CPU      0.09s WALL (       8 calls)
     mix_rho      :      0.02s CPU      0.05s WALL (       7 calls)

     Called by c_bands:
     init_us_2    :      0.00s CPU      0.00s WALL (      15 calls)
     cegterg      :      0.21s CPU      0.22s WALL (       7 calls)

     Called by sum_band:

     Called by *egterg:
     h_psi        :      0.19s CPU      0.20s WALL (      53 calls)
     g_psi        :      0.00s CPU      0.00s WALL (      45 calls)
     cdiaghg      :      0.01s CPU      0.01s WALL (      52 calls)

     Called by h_psi:
     h_psi:pot    :      0.19s CPU      0.20s WALL (      53 calls)
     h_psi:calbec :      0.00s CPU      0.00s WALL (      53 calls)
     vloc_psi     :      0.18s CPU      0.19s WALL (      53 calls)
     add_vuspsi   :      0.00s CPU      0.00s WALL (      53 calls)

     General routines
     calbec       :      0.00s CPU      0.00s WALL (      53 calls)
     fft          :      0.08s CPU      0.08s WALL (      87 calls)
     fftw         :      0.19s CPU      0.21s WALL (     500 calls)
     davcio       :      0.00s CPU      0.02s WALL (      54 calls)
 
     Parallel routines
     fft_scatter  :      0.19s CPU      0.20s WALL (     587 calls)
 
     PWSCF        :     0.68s CPU         0.98s WALL

 
   This run was terminated on:  20:41: 1  20Apr2018            

=------------------------------------------------------------------------------=
   JOB DONE.
=------------------------------------------------------------------------------=
