
     Program PWSCF v.6.0 (svn rev. 13079) starts on 20Apr2018 at 20:41: 1 

     This program is part of the open-source Quantum ESPRESSO suite
     for quantum simulation of materials; please cite
         "P. Giannozzi et al., J. Phys.:Condens. Matter 21 395502 (2009);
          URL http://www.quantum-espresso.org", 
     in publications or presentations arising from this work. More details at
     http://www.quantum-espresso.org/quote

     Parallel version (MPI), running on    28 processors
     R & G space division:  proc/nbgrp/npool/nimage =      28
     Reading input from ../Echeck-in/4500.in
Warning: card &IONS ignored
Warning: card     POT_EXTRAPOLATION='SECOND-ORDER' ignored
Warning: card     WFC_EXTRAPOLATION='SECOND-ORDER' ignored
Warning: card     ION_TEMPERATURE = 'ANDERSEN' ignored
Warning: card     TEMPW = 1000 ignored
Warning: card / ignored

     Current dimensions of program PWSCF are:
     Max number of different atomic species (ntypx) = 10
     Max number of k-points (npk) =  40000
     Max angular momentum in pseudopotentials (lmaxx) =  3

     Subspace diagonalization in iterative solution of the eigenvalue problem:
     a serial algorithm will be used

 
     Parallelization info
     --------------------
     sticks:   dense  smooth     PW     G-vecs:    dense   smooth      PW
     Min         136     136     33                 6338     6338     787
     Max         137     137     34                 6341     6341     792
     Sum        3809    3809    949               177509   177509   22119
 


     bravais-lattice index     =            1
     lattice parameter (alat)  =      20.0000  a.u.
     unit-cell volume          =    8000.0000 (a.u.)^3
     number of atoms/cell      =            3
     number of atomic types    =            2
     number of electrons       =         8.00
     number of Kohn-Sham states=            8
     kinetic-energy cutoff     =      30.0000  Ry
     charge density cutoff     =     120.0000  Ry
     convergence threshold     =      1.0E-08
     mixing beta               =       0.7000
     number of iterations used =            8  plain     mixing
     Exchange-correlation      = BLYP ( 1  3  1  3 0 0)

     celldm(1)=  20.000000  celldm(2)=   0.000000  celldm(3)=   0.000000
     celldm(4)=   0.000000  celldm(5)=   0.000000  celldm(6)=   0.000000

     crystal axes: (cart. coord. in units of alat)
               a(1) = (   1.000000   0.000000   0.000000 )  
               a(2) = (   0.000000   1.000000   0.000000 )  
               a(3) = (   0.000000   0.000000   1.000000 )  

     reciprocal axes: (cart. coord. in units 2 pi/alat)
               b(1) = (  1.000000  0.000000  0.000000 )  
               b(2) = (  0.000000  1.000000  0.000000 )  
               b(3) = (  0.000000  0.000000  1.000000 )  


     PseudoPot. # 1 for  H read from file:
     ./H.blyp-hgh.UPF
     MD5 check sum: c576e69559cde411e611be972c763230
     Pseudo is Norm-conserving, Zval =  1.0
     Generated in analytical, separable form
     Using radial grid of  929 points,  0 beta functions with: 

     PseudoPot. # 2 for  O read from file:
     ./O.blyp-hgh.UPF
     MD5 check sum: d0b7156309aa9befef28faac7bc56342
     Pseudo is Norm-conserving, Zval =  6.0
     Generated in analytical, separable form
     Using radial grid of 1095 points,  1 beta functions with: 
                l(1) =   0

     atomic species   valence    mass     pseudopotential
        H              1.00     1.01000      H( 1.00)
        O              6.00    16.00000      O( 1.00)

     No symmetry found



   Cartesian axes

     site n.     atom                  positions (alat units)
         1           O   tau(   1) = (  -0.0029975  -0.0002129   0.0044227  )
         2           H   tau(   2) = (   0.0205393   0.0402297  -0.0176620  )
         3           H   tau(   3) = (   0.0269450  -0.0368581  -0.0056399  )

     number of k points=     1  Marzari-Vanderbilt smearing, width (Ry)=  0.0250
                       cart. coord. in units 2pi/alat
        k(    1) = (   0.0000000   0.0000000   0.0000000), wk =   2.0000000

     Dense  grid:   177509 G-vectors     FFT dimensions: (  72,  72,  72)

     Estimated max dynamical RAM per process >       6.09Mb

     Estimated total allocated dynamical RAM >     170.64Mb

     Initial potential from superposition of free atoms
     Check: negative starting charge=   -0.362227

     starting charge    7.99998, renormalised to    8.00000

     negative rho (up, down):  3.622E-01 0.000E+00
     Starting wfc are    6 randomized atomic wfcs +    2 random wfc

     total cpu time spent up to now is        0.3 secs

     per-process dynamical memory:    18.8 Mb

     Self-consistent Calculation

     iteration #  1     ecut=    30.00 Ry     beta=0.70
     Davidson diagonalization with overlap
     ethr =  1.00E-02,  avg # of iterations =  9.0

     negative rho (up, down):  1.058E-01 0.000E+00

     total cpu time spent up to now is        0.5 secs

     total energy              =     -29.19446979 Ry
     Harris-Foulkes estimate   =     -29.70653749 Ry
     estimated scf accuracy    <       0.62068257 Ry

     iteration #  2     ecut=    30.00 Ry     beta=0.70
     Davidson diagonalization with overlap
     ethr =  7.76E-03,  avg # of iterations =  2.0

     negative rho (up, down):  3.988E-02 0.000E+00

     total cpu time spent up to now is        0.5 secs

     total energy              =     -29.32691945 Ry
     Harris-Foulkes estimate   =     -29.32471939 Ry
     estimated scf accuracy    <       0.06723670 Ry

     iteration #  3     ecut=    30.00 Ry     beta=0.70
     Davidson diagonalization with overlap
     ethr =  8.40E-04,  avg # of iterations =  2.0

     negative rho (up, down):  3.585E-03 0.000E+00

     total cpu time spent up to now is        0.6 secs

     total energy              =     -29.37592241 Ry
     Harris-Foulkes estimate   =     -29.34482806 Ry
     estimated scf accuracy    <       0.00655920 Ry

     iteration #  4     ecut=    30.00 Ry     beta=0.70
     Davidson diagonalization with overlap
     ethr =  8.20E-05,  avg # of iterations =  5.0

     negative rho (up, down):  2.217E-04 0.000E+00

     total cpu time spent up to now is        0.7 secs

     total energy              =     -29.37505900 Ry
     Harris-Foulkes estimate   =     -29.37326140 Ry
     estimated scf accuracy    <       0.00012335 Ry

     iteration #  5     ecut=    30.00 Ry     beta=0.70
     Davidson diagonalization with overlap
     c_bands:  1 eigenvalues not converged
     ethr =  1.54E-06,  avg # of iterations = 20.0

     negative rho (up, down):  1.298E-08 0.000E+00

     total cpu time spent up to now is        0.7 secs

     total energy              =     -29.37511491 Ry
     Harris-Foulkes estimate   =     -29.37508426 Ry
     estimated scf accuracy    <       0.00000077 Ry

     iteration #  6     ecut=    30.00 Ry     beta=0.70
     Davidson diagonalization with overlap
     ethr =  9.63E-09,  avg # of iterations = 13.0

     total cpu time spent up to now is        0.8 secs

     total energy              =     -29.37511581 Ry
     Harris-Foulkes estimate   =     -29.37511538 Ry
     estimated scf accuracy    <       0.00000005 Ry

     iteration #  7     ecut=    30.00 Ry     beta=0.70
     Davidson diagonalization with overlap
     ethr =  6.56E-10,  avg # of iterations =  2.0

     total cpu time spent up to now is        0.8 secs

     End of self-consistent calculation

          k = 0.0000 0.0000 0.0000 ( 22119 PWs)   bands (ev):

   -33.6636 -18.4070 -10.3651  -8.0470  -0.5024   0.5771   0.9994   1.0743

     the Fermi energy is    -7.7337 ev

!    total energy              =     -29.37511649 Ry
     Harris-Foulkes estimate   =     -29.37511582 Ry
     estimated scf accuracy    <          4.7E-09 Ry

     The total energy is the sum of the following terms:

     one-electron contribution =     -74.27412768 Ry
     hartree contribution      =      37.92903368 Ry
     xc contribution           =      -9.23728410 Ry
     ewald contribution        =      16.20318414 Ry
     smearing contrib. (-TS)   =       0.00407747 Ry

     convergence has been achieved in   7 iterations

     Writing output data file pwscf.save
 
     init_run     :      0.17s CPU      0.18s WALL (       1 calls)
     electrons    :      0.46s CPU      0.56s WALL (       1 calls)

     Called by init_run:
     wfcinit      :      0.01s CPU      0.02s WALL (       1 calls)
     potinit      :      0.05s CPU      0.05s WALL (       1 calls)

     Called by electrons:
     c_bands      :      0.23s CPU      0.24s WALL (       7 calls)
     sum_band     :      0.03s CPU      0.03s WALL (       7 calls)
     v_of_rho     :      0.08s CPU      0.08s WALL (       8 calls)
     mix_rho      :      0.05s CPU      0.07s WALL (       7 calls)

     Called by c_bands:
     init_us_2    :      0.00s CPU      0.00s WALL (      15 calls)
     cegterg      :      0.23s CPU      0.24s WALL (       7 calls)

     Called by sum_band:

     Called by *egterg:
     h_psi        :      0.20s CPU      0.21s WALL (      61 calls)
     g_psi        :      0.00s CPU      0.00s WALL (      53 calls)
     cdiaghg      :      0.01s CPU      0.01s WALL (      60 calls)

     Called by h_psi:
     h_psi:pot    :      0.20s CPU      0.21s WALL (      61 calls)
     h_psi:calbec :      0.00s CPU      0.01s WALL (      61 calls)
     vloc_psi     :      0.20s CPU      0.20s WALL (      61 calls)
     add_vuspsi   :      0.00s CPU      0.00s WALL (      61 calls)

     General routines
     calbec       :      0.00s CPU      0.00s WALL (      61 calls)
     fft          :      0.08s CPU      0.08s WALL (      87 calls)
     fftw         :      0.21s CPU      0.22s WALL (     518 calls)
     davcio       :      0.01s CPU      0.02s WALL (      54 calls)
 
     Parallel routines
     fft_scatter  :      0.20s CPU      0.21s WALL (     605 calls)
 
     PWSCF        :     1.05s CPU         1.31s WALL

 
   This run was terminated on:  20:41: 2  20Apr2018            

=------------------------------------------------------------------------------=
   JOB DONE.
=------------------------------------------------------------------------------=
