
     Program PWSCF v.6.0 (svn rev. 13079) starts on 29Apr2017 at  4: 2:52 

     This program is part of the open-source Quantum ESPRESSO suite
     for quantum simulation of materials; please cite
         "P. Giannozzi et al., J. Phys.:Condens. Matter 21 395502 (2009);
          URL http://www.quantum-espresso.org", 
     in publications or presentations arising from this work. More details at
     http://www.quantum-espresso.org/quote

     Parallel version (MPI), running on    28 processors
     R & G space division:  proc/nbgrp/npool/nimage =      28
     Waiting for input...
     Reading input from standard input

     Current dimensions of program PWSCF are:
     Max number of different atomic species (ntypx) = 10
     Max number of k-points (npk) =  40000
     Max angular momentum in pseudopotentials (lmaxx) =  3

     Subspace diagonalization in iterative solution of the eigenvalue problem:
     a serial algorithm will be used

 
     Parallelization info
     --------------------
     sticks:   dense  smooth     PW     G-vecs:    dense   smooth      PW
     Min         136     136     33                 6338     6338     787
     Max         137     137     34                 6341     6341     792
     Sum        3809    3809    949               177509   177509   22119
 


     bravais-lattice index     =            1
     lattice parameter (alat)  =      20.0000  a.u.
     unit-cell volume          =    8000.0000 (a.u.)^3
     number of atoms/cell      =            4
     number of atomic types    =            1
     number of electrons       =        44.00
     number of Kohn-Sham states=           26
     kinetic-energy cutoff     =      30.0000  Ry
     charge density cutoff     =     120.0000  Ry
     convergence threshold     =      1.0E-08
     mixing beta               =       0.7000
     number of iterations used =            8  plain     mixing
     Exchange-correlation      = BLYP ( 1  3  1  3 0 0)
     nstep                     =         1000


     celldm(1)=  20.000000  celldm(2)=   0.000000  celldm(3)=   0.000000
     celldm(4)=   0.000000  celldm(5)=   0.000000  celldm(6)=   0.000000

     crystal axes: (cart. coord. in units of alat)
               a(1) = (   1.000000   0.000000   0.000000 )  
               a(2) = (   0.000000   1.000000   0.000000 )  
               a(3) = (   0.000000   0.000000   1.000000 )  

     reciprocal axes: (cart. coord. in units 2 pi/alat)
               b(1) = (  1.000000  0.000000  0.000000 )  
               b(2) = (  0.000000  1.000000  0.000000 )  
               b(3) = (  0.000000  0.000000  1.000000 )  


     PseudoPot. # 1 for Au read from file:
     ./Au.blyp-d-hgh.UPF
     MD5 check sum: c10d8bae01f806c36a1643a1c69a8479
     Pseudo is Norm-conserving, Zval = 11.0
     Generated in analytical, separable form
     Using radial grid of 1279 points,  6 beta functions with: 
                l(1) =   0
                l(2) =   0
                l(3) =   1
                l(4) =   1
                l(5) =   2
                l(6) =   2

     atomic species   valence    mass     pseudopotential
        Au            11.00    28.08600     Au( 1.00)

     No symmetry found



   Cartesian axes

     site n.     atom                  positions (alat units)
         1           Au  tau(   1) = (   0.0000000   0.0000000   0.0000000  )
         2           Au  tau(   2) = (   0.0000000   0.2000000   0.2000000  )
         3           Au  tau(   3) = (   0.2000000   0.2000000   0.0000000  )
         4           Au  tau(   4) = (   0.2000000   0.2000000   0.2000000  )

     number of k points=     1  Marzari-Vanderbilt smearing, width (Ry)=  0.0250
                       cart. coord. in units 2pi/alat
        k(    1) = (   0.0000000   0.0000000   0.0000000), wk =   2.0000000

     Dense  grid:   177509 G-vectors     FFT dimensions: (  72,  72,  72)

     Estimated max dynamical RAM per process >       6.09Mb

     Estimated total allocated dynamical RAM >     170.64Mb

     Initial potential from superposition of free atoms
     Check: negative starting charge=   -0.006622

     starting charge   43.99952, renormalised to   44.00000

     negative rho (up, down):  6.622E-03 0.000E+00
     Starting wfc are   36 randomized atomic wfcs

     total cpu time spent up to now is        0.7 secs

     per-process dynamical memory:    20.3 Mb

     Self-consistent Calculation

     iteration #  1     ecut=    30.00 Ry     beta=0.70
     Davidson diagonalization with overlap
     ethr =  1.00E-02,  avg # of iterations =  3.0

     negative rho (up, down):  6.550E-04 0.000E+00

     total cpu time spent up to now is        0.8 secs

     total energy              =    -262.72246972 Ry
     Harris-Foulkes estimate   =    -263.21253316 Ry
     estimated scf accuracy    <       0.69396135 Ry

     iteration #  2     ecut=    30.00 Ry     beta=0.70
     Davidson diagonalization with overlap
     ethr =  1.58E-03,  avg # of iterations =  3.0

     negative rho (up, down):  4.920E-04 0.000E+00

     total cpu time spent up to now is        1.0 secs

     total energy              =    -261.85910474 Ry
     Harris-Foulkes estimate   =    -263.99059551 Ry
     estimated scf accuracy    <      10.00119239 Ry

     iteration #  3     ecut=    30.00 Ry     beta=0.70
     Davidson diagonalization with overlap
     ethr =  1.58E-03,  avg # of iterations =  4.0

     negative rho (up, down):  2.495E-04 0.000E+00

     total cpu time spent up to now is        1.1 secs

     total energy              =    -263.01765741 Ry
     Harris-Foulkes estimate   =    -263.22677206 Ry
     estimated scf accuracy    <       0.53503906 Ry

     iteration #  4     ecut=    30.00 Ry     beta=0.70
     Davidson diagonalization with overlap
     ethr =  1.22E-03,  avg # of iterations =  2.0

     negative rho (up, down):  9.590E-05 0.000E+00

     total cpu time spent up to now is        1.1 secs

     total energy              =    -263.07975486 Ry
     Harris-Foulkes estimate   =    -263.09840071 Ry
     estimated scf accuracy    <       0.08359235 Ry

     iteration #  5     ecut=    30.00 Ry     beta=0.70
     Davidson diagonalization with overlap
     ethr =  1.90E-04,  avg # of iterations =  3.0

     negative rho (up, down):  2.902E-06 0.000E+00

     total cpu time spent up to now is        1.2 secs

     total energy              =    -263.08237900 Ry
     Harris-Foulkes estimate   =    -263.08986722 Ry
     estimated scf accuracy    <       0.03320995 Ry

     iteration #  6     ecut=    30.00 Ry     beta=0.70
     Davidson diagonalization with overlap
     ethr =  7.55E-05,  avg # of iterations =  2.0

     negative rho (up, down):  8.230E-08 0.000E+00

     total cpu time spent up to now is        1.3 secs

     total energy              =    -263.08306485 Ry
     Harris-Foulkes estimate   =    -263.08477212 Ry
     estimated scf accuracy    <       0.00660340 Ry

     iteration #  7     ecut=    30.00 Ry     beta=0.70
     Davidson diagonalization with overlap
     ethr =  1.50E-05,  avg # of iterations = 10.0

     negative rho (up, down):  1.216E-08 0.000E+00

     total cpu time spent up to now is        1.4 secs

     total energy              =    -263.08339081 Ry
     Harris-Foulkes estimate   =    -263.08375007 Ry
     estimated scf accuracy    <       0.00142506 Ry

     iteration #  8     ecut=    30.00 Ry     beta=0.70
     Davidson diagonalization with overlap
     ethr =  3.24E-06,  avg # of iterations =  2.0

     total cpu time spent up to now is        1.4 secs

     total energy              =    -263.08339911 Ry
     Harris-Foulkes estimate   =    -263.08353979 Ry
     estimated scf accuracy    <       0.00045712 Ry

     iteration #  9     ecut=    30.00 Ry     beta=0.70
     Davidson diagonalization with overlap
     ethr =  1.04E-06,  avg # of iterations =  2.0

     total cpu time spent up to now is        1.5 secs

     total energy              =    -263.08344971 Ry
     Harris-Foulkes estimate   =    -263.08346082 Ry
     estimated scf accuracy    <       0.00003325 Ry

     iteration # 10     ecut=    30.00 Ry     beta=0.70
     Davidson diagonalization with overlap
     ethr =  7.56E-08,  avg # of iterations =  3.0

     total cpu time spent up to now is        1.6 secs

     total energy              =    -263.08345507 Ry
     Harris-Foulkes estimate   =    -263.08346122 Ry
     estimated scf accuracy    <       0.00002150 Ry

     iteration # 11     ecut=    30.00 Ry     beta=0.70
     Davidson diagonalization with overlap
     ethr =  4.89E-08,  avg # of iterations =  2.0

     total cpu time spent up to now is        1.7 secs

     total energy              =    -263.08345843 Ry
     Harris-Foulkes estimate   =    -263.08345897 Ry
     estimated scf accuracy    <       0.00000220 Ry

     iteration # 12     ecut=    30.00 Ry     beta=0.70
     Davidson diagonalization with overlap
     ethr =  5.00E-09,  avg # of iterations =  2.0

     total cpu time spent up to now is        1.8 secs

     total energy              =    -263.08345884 Ry
     Harris-Foulkes estimate   =    -263.08345902 Ry
     estimated scf accuracy    <       0.00000043 Ry

     iteration # 13     ecut=    30.00 Ry     beta=0.70
     Davidson diagonalization with overlap
     ethr =  9.76E-10,  avg # of iterations =  2.0

     total cpu time spent up to now is        1.8 secs

     total energy              =    -263.08345894 Ry
     Harris-Foulkes estimate   =    -263.08345894 Ry
     estimated scf accuracy    <       0.00000010 Ry

     iteration # 14     ecut=    30.00 Ry     beta=0.70
     Davidson diagonalization with overlap
     ethr =  2.33E-10,  avg # of iterations =  3.0

     total cpu time spent up to now is        1.9 secs

     total energy              =    -263.08345895 Ry
     Harris-Foulkes estimate   =    -263.08345897 Ry
     estimated scf accuracy    <       0.00000006 Ry

     iteration # 15     ecut=    30.00 Ry     beta=0.70
     Davidson diagonalization with overlap
     ethr =  1.26E-10,  avg # of iterations =  2.0

     total cpu time spent up to now is        2.0 secs

     End of self-consistent calculation

          k = 0.0000 0.0000 0.0000 ( 22119 PWs)   bands (ev):

   -10.9867 -10.6770 -10.2600  -9.3054  -9.0808  -7.4608  -6.9262  -6.9061
    -6.5665  -6.4155  -6.1133  -5.6727  -5.5761  -5.5013  -5.2886  -5.1379
    -5.0806  -5.0265  -4.9810  -4.9447  -4.4435  -3.9360  -3.6901  -2.3971
    -0.6135  -0.4056

     the Fermi energy is    -3.7871 ev

!    total energy              =    -263.08345896 Ry
     Harris-Foulkes estimate   =    -263.08345896 Ry
     estimated scf accuracy    <          4.2E-09 Ry

     convergence has been achieved in  15 iterations

     Forces acting on atoms (Ry/au):

     atom    1 type  1   force =     0.00288233    0.02077387    0.00287685
     atom    2 type  1   force =    -0.59626626   -0.01793408    0.00742192
     atom    3 type  1   force =     0.00741321   -0.01793520   -0.59626673
     atom    4 type  1   force =     0.58597071    0.01509540    0.58596796

     Total force =     1.182885     Total SCF correction =     0.000203

     Molecular Dynamics Calculation

     Starting temperature  =  1000.00 K

     temperature is controlled by Andersen thermostat
     Collision frequency = 1.0000/timestep
     mass Au               =    28.09
     Time step             =   100.00 a.u.,  4.8378 femto-seconds

     Entering Dynamics:    iteration =     1
                           time      =   0.0048 pico-seconds


     Andersen thermostat:    4 collisions

ATOMIC_POSITIONS (bohr)
Au      -0.039938090   0.017026884   0.044936778
Au      -0.067319583   3.995604372   4.051285948
Au       3.988968488   3.971541661  -0.110814957
Au       4.118289185   4.015827083   4.014592232


     kinetic energy (Ekin) =     0.02513835 Ry
     temperature           =   882.00607018 K 
     Ekin + Etot (const)   =  -263.05832061 Ry

     Linear momentum :   -0.0000000000    0.0000000000   -0.0000000000

     Writing output data file pwscf.save
     Check: negative starting charge=   -0.006622
     NEW-OLD atomic charge density approx. for the potential
     Check: negative starting charge=   -0.006614

     negative rho (up, down):  2.949E-03 0.000E+00

     total cpu time spent up to now is        2.6 secs

     per-process dynamical memory:    23.1 Mb

     Self-consistent Calculation

     iteration #  1     ecut=    30.00 Ry     beta=0.70
     Davidson diagonalization with overlap
     ethr =  1.00E-06,  avg # of iterations =  8.0

     negative rho (up, down):  3.591E-04 0.000E+00

     total cpu time spent up to now is        2.8 secs

     total energy              =    -263.22128291 Ry
     Harris-Foulkes estimate   =    -263.23977242 Ry
     estimated scf accuracy    <       0.02722873 Ry

     iteration #  2     ecut=    30.00 Ry     beta=0.70
     Davidson diagonalization with overlap
     ethr =  6.19E-05,  avg # of iterations =  3.0

     negative rho (up, down):  2.524E-04 0.000E+00

     total cpu time spent up to now is        2.9 secs

     total energy              =    -263.20878128 Ry
     Harris-Foulkes estimate   =    -263.28436306 Ry
     estimated scf accuracy    <       0.28886451 Ry

     iteration #  3     ecut=    30.00 Ry     beta=0.70
     Davidson diagonalization with overlap
     ethr =  6.19E-05,  avg # of iterations =  3.0

     negative rho (up, down):  1.187E-04 0.000E+00

     total cpu time spent up to now is        3.0 secs

     total energy              =    -263.23726520 Ry
     Harris-Foulkes estimate   =    -263.23912270 Ry
     estimated scf accuracy    <       0.00455171 Ry

     iteration #  4     ecut=    30.00 Ry     beta=0.70
     Davidson diagonalization with overlap
     ethr =  1.03E-05,  avg # of iterations =  2.0

     negative rho (up, down):  1.295E-05 0.000E+00

     total cpu time spent up to now is        3.1 secs

     total energy              =    -263.23817630 Ry
     Harris-Foulkes estimate   =    -263.23832746 Ry
     estimated scf accuracy    <       0.00038902 Ry

     iteration #  5     ecut=    30.00 Ry     beta=0.70
     Davidson diagonalization with overlap
     ethr =  8.84E-07,  avg # of iterations =  3.0

     negative rho (up, down):  2.250E-07 0.000E+00

     total cpu time spent up to now is        3.2 secs

     total energy              =    -263.23824932 Ry
     Harris-Foulkes estimate   =    -263.23831270 Ry
     estimated scf accuracy    <       0.00015016 Ry

     iteration #  6     ecut=    30.00 Ry     beta=0.70
     Davidson diagonalization with overlap
     ethr =  3.41E-07,  avg # of iterations =  2.0

     total cpu time spent up to now is        3.3 secs

     total energy              =    -263.23827243 Ry
     Harris-Foulkes estimate   =    -263.23830042 Ry
     estimated scf accuracy    <       0.00008085 Ry

     iteration #  7     ecut=    30.00 Ry     beta=0.70
     Davidson diagonalization with overlap
     ethr =  1.84E-07,  avg # of iterations =  2.0

     total cpu time spent up to now is        3.3 secs

     total energy              =    -263.23828423 Ry
     Harris-Foulkes estimate   =    -263.23828821 Ry
     estimated scf accuracy    <       0.00001036 Ry

     iteration #  8     ecut=    30.00 Ry     beta=0.70
     Davidson diagonalization with overlap
     ethr =  2.36E-08,  avg # of iterations =  2.0

     total cpu time spent up to now is        3.4 secs

     total energy              =    -263.23828577 Ry
     Harris-Foulkes estimate   =    -263.23828619 Ry
     estimated scf accuracy    <       0.00000060 Ry

     iteration #  9     ecut=    30.00 Ry     beta=0.70
     Davidson diagonalization with overlap
     ethr =  1.36E-09,  avg # of iterations =  3.0

     total cpu time spent up to now is        3.5 secs

     total energy              =    -263.23828577 Ry
     Harris-Foulkes estimate   =    -263.23828599 Ry
     estimated scf accuracy    <       0.00000016 Ry

     iteration # 10     ecut=    30.00 Ry     beta=0.70
     Davidson diagonalization with overlap
     ethr =  3.54E-10,  avg # of iterations =  2.0

     total cpu time spent up to now is        3.6 secs

     total energy              =    -263.23828576 Ry
     Harris-Foulkes estimate   =    -263.23828582 Ry
     estimated scf accuracy    <       0.00000003 Ry

     iteration # 11     ecut=    30.00 Ry     beta=0.70
     Davidson diagonalization with overlap
     ethr =  6.41E-11,  avg # of iterations =  2.0

     total cpu time spent up to now is        3.7 secs

     End of self-consistent calculation

          k = 0.0000 0.0000 0.0000 ( 22119 PWs)   bands (ev):

   -10.2666 -10.0580  -9.5116  -8.7217  -8.4371  -7.2744  -6.7302  -6.6906
    -6.4037  -6.3669  -6.0161  -5.6454  -5.5905  -5.5070  -5.3468  -5.1972
    -5.1725  -5.1183  -5.0612  -5.0280  -4.5474  -3.9522  -3.7380  -2.4294
    -0.5775  -0.3997

     the Fermi energy is    -3.8113 ev

!    total energy              =    -263.23828575 Ry
     Harris-Foulkes estimate   =    -263.23828577 Ry
     estimated scf accuracy    <          4.2E-09 Ry

     convergence has been achieved in  11 iterations

     Forces acting on atoms (Ry/au):

     atom    1 type  1   force =     0.00290715    0.02361028    0.00488639
     atom    2 type  1   force =    -0.37640664   -0.02074506    0.00134947
     atom    3 type  1   force =    -0.01562013   -0.02267021   -0.43160241
     atom    4 type  1   force =     0.38911961    0.01980499    0.42536655

     Total force =     0.813932     Total SCF correction =     0.000322

     Entering Dynamics:    iteration =     2
                           time      =   0.0097 pico-seconds


     Andersen thermostat:    4 collisions

ATOMIC_POSITIONS (bohr)
Au      -0.109356175   0.023011187   0.106773272
Au      -0.178990868   3.946674392   3.965342617
Au       3.933327551   3.926388866  -0.287270334
Au       4.355019492   4.103925555   4.215154444


     kinetic energy (Ekin) =     0.10309494 Ry
     temperature           =  3617.19648362 K 
     Ekin + Etot (const)   =  -263.13519082 Ry
     Message from routine dynamics:
     Total linear momentum <> 0

     Linear momentum :    0.2886872235    0.7963117483    0.4421307889

     Writing output data file pwscf.save

     first order wave-functions extrapolation
     Check: negative starting charge=   -0.006614
     first order charge density extrapolation
     Check: negative starting charge=   -0.006434

     negative rho (up, down):  7.534E-03 0.000E+00

     total cpu time spent up to now is        4.1 secs

     per-process dynamical memory:    23.1 Mb

     Self-consistent Calculation

     iteration #  1     ecut=    30.00 Ry     beta=0.70
     Davidson diagonalization with overlap
     ethr =  1.00E-06,  avg # of iterations = 13.0

     negative rho (up, down):  1.106E-03 0.000E+00

     total cpu time spent up to now is        4.3 secs

     total energy              =    -263.42428465 Ry
     Harris-Foulkes estimate   =    -263.44918731 Ry
     estimated scf accuracy    <       0.01871033 Ry

     iteration #  2     ecut=    30.00 Ry     beta=0.70
     Davidson diagonalization with overlap
     ethr =  4.25E-05,  avg # of iterations =  4.0

     negative rho (up, down):  8.146E-04 0.000E+00

     total cpu time spent up to now is        4.4 secs

     total energy              =    -263.41446723 Ry
     Harris-Foulkes estimate   =    -263.45753878 Ry
     estimated scf accuracy    <       0.15627357 Ry

     iteration #  3     ecut=    30.00 Ry     beta=0.70
     Davidson diagonalization with overlap
     ethr =  4.25E-05,  avg # of iterations =  3.0

     negative rho (up, down):  2.969E-04 0.000E+00

     total cpu time spent up to now is        4.5 secs

     total energy              =    -263.43581400 Ry
     Harris-Foulkes estimate   =    -263.43738918 Ry
     estimated scf accuracy    <       0.00564776 Ry

     iteration #  4     ecut=    30.00 Ry     beta=0.70
     Davidson diagonalization with overlap
     ethr =  1.28E-05,  avg # of iterations =  3.0

     negative rho (up, down):  4.355E-05 0.000E+00

     total cpu time spent up to now is        4.6 secs

     total energy              =    -263.43664249 Ry
     Harris-Foulkes estimate   =    -263.43713555 Ry
     estimated scf accuracy    <       0.00144694 Ry

     iteration #  5     ecut=    30.00 Ry     beta=0.70
     Davidson diagonalization with overlap
     ethr =  3.29E-06,  avg # of iterations =  3.0

     negative rho (up, down):  2.719E-07 0.000E+00

     total cpu time spent up to now is        4.7 secs

     total energy              =    -263.43688932 Ry
     Harris-Foulkes estimate   =    -263.43701390 Ry
     estimated scf accuracy    <       0.00031184 Ry

     iteration #  6     ecut=    30.00 Ry     beta=0.70
     Davidson diagonalization with overlap
     ethr =  7.09E-07,  avg # of iterations =  2.0

     total cpu time spent up to now is        4.7 secs

     total energy              =    -263.43694097 Ry
     Harris-Foulkes estimate   =    -263.43694924 Ry
     estimated scf accuracy    <       0.00001132 Ry

     iteration #  7     ecut=    30.00 Ry     beta=0.70
     Davidson diagonalization with overlap
     ethr =  2.57E-08,  avg # of iterations =  3.0

     total cpu time spent up to now is        4.8 secs

     total energy              =    -263.43694456 Ry
     Harris-Foulkes estimate   =    -263.43694658 Ry
     estimated scf accuracy    <       0.00000391 Ry

     iteration #  8     ecut=    30.00 Ry     beta=0.70
     Davidson diagonalization with overlap
     ethr =  8.89E-09,  avg # of iterations =  2.0

     total cpu time spent up to now is        4.9 secs

     total energy              =    -263.43694503 Ry
     Harris-Foulkes estimate   =    -263.43694560 Ry
     estimated scf accuracy    <       0.00000044 Ry

     iteration #  9     ecut=    30.00 Ry     beta=0.70
     Davidson diagonalization with overlap
     ethr =  1.01E-09,  avg # of iterations =  2.0

     total cpu time spent up to now is        5.0 secs

     total energy              =    -263.43694526 Ry
     Harris-Foulkes estimate   =    -263.43694517 Ry
     estimated scf accuracy    <       0.00000012 Ry

     iteration # 10     ecut=    30.00 Ry     beta=0.70
     Davidson diagonalization with overlap
     ethr =  2.78E-10,  avg # of iterations =  2.0

     total cpu time spent up to now is        5.1 secs

     total energy              =    -263.43694530 Ry
     Harris-Foulkes estimate   =    -263.43694529 Ry
     estimated scf accuracy    <       0.00000003 Ry

     iteration # 11     ecut=    30.00 Ry     beta=0.70
     Davidson diagonalization with overlap
     ethr =  6.35E-11,  avg # of iterations =  2.0

     total cpu time spent up to now is        5.2 secs

     End of self-consistent calculation

          k = 0.0000 0.0000 0.0000 ( 22119 PWs)   bands (ev):

    -9.1091  -8.7716  -8.1209  -7.7376  -7.3561  -7.1627  -6.5768  -6.4756
    -6.1921  -6.1763  -5.8880  -5.6927  -5.6569  -5.5198  -5.4647  -5.3093
    -5.2904  -5.2317  -5.1831  -5.1691  -4.7901  -4.0057  -3.7683  -2.5558
    -0.5324  -0.3502

     the Fermi energy is    -3.8484 ev

!    total energy              =    -263.43694528 Ry
     Harris-Foulkes estimate   =    -263.43694531 Ry
     estimated scf accuracy    <          2.4E-09 Ry

     convergence has been achieved in  11 iterations

     Forces acting on atoms (Ry/au):

     atom    1 type  1   force =     0.00570634    0.02614792    0.00542002
     atom    2 type  1   force =    -0.13774894   -0.02619929   -0.02214836
     atom    3 type  1   force =    -0.02695988   -0.02389819   -0.13774132
     atom    4 type  1   force =     0.15900248    0.02394956    0.15446966

     Total force =     0.301470     Total SCF correction =     0.000233

     Entering Dynamics:    iteration =     3
                           time      =   0.0145 pico-seconds


     Andersen thermostat:    4 collisions

ATOMIC_POSITIONS (bohr)
Au      -0.150110236   0.016110586   0.106032943
Au      -0.179578612   3.982845681   3.999051495
Au       3.932921600   3.845148013  -0.384549466
Au       4.396767248   4.155895721   4.279465028


     kinetic energy (Ekin) =     0.02689414 Ry
     temperature           =   943.60978023 K 
     Ekin + Etot (const)   =  -263.41005114 Ry
     Message from routine dynamics:
     Total linear momentum <> 0

     Linear momentum :   -0.4761532359   -0.5870511325    0.1611134456

     Writing output data file pwscf.save

     second order wave-functions extrapolation
     Check: negative starting charge=   -0.006434
     second order charge density extrapolation
     Check: negative starting charge=   -0.006352

     negative rho (up, down):  2.792E-03 0.000E+00

     total cpu time spent up to now is        5.5 secs

     per-process dynamical memory:    23.1 Mb

     Self-consistent Calculation

     iteration #  1     ecut=    30.00 Ry     beta=0.70
     Davidson diagonalization with overlap
     ethr =  1.00E-06,  avg # of iterations = 12.0

     negative rho (up, down):  3.373E-04 0.000E+00

     total cpu time spent up to now is        5.7 secs

     total energy              =    -263.46032148 Ry
     Harris-Foulkes estimate   =    -263.45951996 Ry
     estimated scf accuracy    <       0.00356532 Ry

     iteration #  2     ecut=    30.00 Ry     beta=0.70
     Davidson diagonalization with overlap
     ethr =  8.10E-06,  avg # of iterations =  5.0

     negative rho (up, down):  1.961E-04 0.000E+00

     total cpu time spent up to now is        5.8 secs

     total energy              =    -263.45954960 Ry
     Harris-Foulkes estimate   =    -263.46381258 Ry
     estimated scf accuracy    <       0.01285871 Ry

     iteration #  3     ecut=    30.00 Ry     beta=0.70
     Davidson diagonalization with overlap
     ethr =  8.10E-06,  avg # of iterations =  2.0

     negative rho (up, down):  5.761E-05 0.000E+00

     total cpu time spent up to now is        5.9 secs

     total energy              =    -263.46158162 Ry
     Harris-Foulkes estimate   =    -263.46196415 Ry
     estimated scf accuracy    <       0.00107876 Ry

     iteration #  4     ecut=    30.00 Ry     beta=0.70
     Davidson diagonalization with overlap
     ethr =  2.45E-06,  avg # of iterations =  3.0

     negative rho (up, down):  7.913E-06 0.000E+00

     total cpu time spent up to now is        6.0 secs

     total energy              =    -263.46170627 Ry
     Harris-Foulkes estimate   =    -263.46191851 Ry
     estimated scf accuracy    <       0.00070792 Ry

     iteration #  5     ecut=    30.00 Ry     beta=0.70
     Davidson diagonalization with overlap
     ethr =  1.61E-06,  avg # of iterations =  1.0

     negative rho (up, down):  2.574E-08 0.000E+00

     total cpu time spent up to now is        6.1 secs

     total energy              =    -263.46179696 Ry
     Harris-Foulkes estimate   =    -263.46182135 Ry
     estimated scf accuracy    <       0.00003871 Ry

     iteration #  6     ecut=    30.00 Ry     beta=0.70
     Davidson diagonalization with overlap
     ethr =  8.80E-08,  avg # of iterations =  3.0

     total cpu time spent up to now is        6.2 secs

     total energy              =    -263.46180293 Ry
     Harris-Foulkes estimate   =    -263.46180948 Ry
     estimated scf accuracy    <       0.00000893 Ry

     iteration #  7     ecut=    30.00 Ry     beta=0.70
     Davidson diagonalization with overlap
     ethr =  2.03E-08,  avg # of iterations =  3.0

     total cpu time spent up to now is        6.2 secs

     total energy              =    -263.46180421 Ry
     Harris-Foulkes estimate   =    -263.46180564 Ry
     estimated scf accuracy    <       0.00000244 Ry

     iteration #  8     ecut=    30.00 Ry     beta=0.70
     Davidson diagonalization with overlap
     ethr =  5.54E-09,  avg # of iterations =  2.0

     total cpu time spent up to now is        6.3 secs

     total energy              =    -263.46180439 Ry
     Harris-Foulkes estimate   =    -263.46180466 Ry
     estimated scf accuracy    <       0.00000010 Ry

     iteration #  9     ecut=    30.00 Ry     beta=0.70
     Davidson diagonalization with overlap
     ethr =  2.23E-10,  avg # of iterations =  3.0

     total cpu time spent up to now is        6.4 secs

     total energy              =    -263.46180431 Ry
     Harris-Foulkes estimate   =    -263.46180443 Ry
     estimated scf accuracy    <       0.00000004 Ry

     iteration # 10     ecut=    30.00 Ry     beta=0.70
     Davidson diagonalization with overlap
     ethr =  8.99E-11,  avg # of iterations =  3.0

     total cpu time spent up to now is        6.5 secs

     End of self-consistent calculation

          k = 0.0000 0.0000 0.0000 ( 22119 PWs)   bands (ev):

    -8.8613  -8.4605  -7.8577  -7.5320  -7.1764  -7.0634  -6.5477  -6.4214
    -6.1407  -6.1006  -5.8602  -5.7087  -5.6506  -5.5291  -5.4797  -5.3366
    -5.3170  -5.2656  -5.2164  -5.2003  -4.8561  -4.0348  -3.8007  -2.5912
    -0.5266  -0.3551

     the Fermi energy is    -3.8785 ev

!    total energy              =    -263.46180438 Ry
     Harris-Foulkes estimate   =    -263.46180432 Ry
     estimated scf accuracy    <          6.7E-09 Ry

     convergence has been achieved in  10 iterations

     Forces acting on atoms (Ry/au):

     atom    1 type  1   force =     0.00847344    0.02864538    0.00451121
     atom    2 type  1   force =    -0.11225199   -0.02544110   -0.02380267
     atom    3 type  1   force =    -0.02743068   -0.02465877   -0.07063120
     atom    4 type  1   force =     0.13120923    0.02145449    0.08992266

     Total force =     0.216422     Total SCF correction =     0.000335

     Entering Dynamics:    iteration =     4
                           time      =   0.0194 pico-seconds


     Andersen thermostat:    4 collisions

ATOMIC_POSITIONS (bohr)
Au      -0.227941074  -0.028845393   0.085115375
Au      -0.253350143   4.026466684   3.980711169
Au       3.961136615   3.839493933  -0.416058539
Au       4.520154602   4.162884775   4.350231995


     kinetic energy (Ekin) =     0.03798939 Ry
     temperature           =  1332.89846194 K 
     Ekin + Etot (const)   =  -263.42381499 Ry
     Message from routine dynamics:
     Total linear momentum <> 0

     Linear momentum :   -0.4015393201    0.3764838134    0.7223421754

     Writing output data file pwscf.save

     second order wave-functions extrapolation
     Check: negative starting charge=   -0.006352
     second order charge density extrapolation
     Check: negative starting charge=   -0.006268

     negative rho (up, down):  3.812E-03 0.000E+00

     total cpu time spent up to now is        6.8 secs

     per-process dynamical memory:    23.1 Mb

     Self-consistent Calculation

     iteration #  1     ecut=    30.00 Ry     beta=0.70
     Davidson diagonalization with overlap
     ethr =  1.00E-06,  avg # of iterations =  9.0

     negative rho (up, down):  4.960E-04 0.000E+00

     total cpu time spent up to now is        7.0 secs

     total energy              =    -263.48021334 Ry
     Harris-Foulkes estimate   =    -263.47846488 Ry
     estimated scf accuracy    <       0.00397490 Ry

     iteration #  2     ecut=    30.00 Ry     beta=0.70
     Davidson diagonalization with overlap
     ethr =  9.03E-06,  avg # of iterations =  5.0

     negative rho (up, down):  3.385E-04 0.000E+00

     total cpu time spent up to now is        7.1 secs

     total energy              =    -263.47810955 Ry
     Harris-Foulkes estimate   =    -263.48565433 Ry
     estimated scf accuracy    <       0.02607147 Ry

     iteration #  3     ecut=    30.00 Ry     beta=0.70
     Davidson diagonalization with overlap
     ethr =  9.03E-06,  avg # of iterations =  3.0

     negative rho (up, down):  1.224E-04 0.000E+00

     total cpu time spent up to now is        7.2 secs

     total energy              =    -263.48187161 Ry
     Harris-Foulkes estimate   =    -263.48240801 Ry
     estimated scf accuracy    <       0.00181373 Ry

     iteration #  4     ecut=    30.00 Ry     beta=0.70
     Davidson diagonalization with overlap
     ethr =  4.12E-06,  avg # of iterations =  3.0

     negative rho (up, down):  8.259E-06 0.000E+00

     total cpu time spent up to now is        7.3 secs

     total energy              =    -263.48211664 Ry
     Harris-Foulkes estimate   =    -263.48230654 Ry
     estimated scf accuracy    <       0.00052472 Ry

     iteration #  5     ecut=    30.00 Ry     beta=0.70
     Davidson diagonalization with overlap
     ethr =  1.19E-06,  avg # of iterations =  2.0

     total cpu time spent up to now is        7.3 secs

     total energy              =    -263.48218814 Ry
     Harris-Foulkes estimate   =    -263.48222649 Ry
     estimated scf accuracy    <       0.00005012 Ry

     iteration #  6     ecut=    30.00 Ry     beta=0.70
     Davidson diagonalization with overlap
     ethr =  1.14E-07,  avg # of iterations =  2.0

     total cpu time spent up to now is        7.4 secs

     total energy              =    -263.48219544 Ry
     Harris-Foulkes estimate   =    -263.48220011 Ry
     estimated scf accuracy    <       0.00000316 Ry

     iteration #  7     ecut=    30.00 Ry     beta=0.70
     Davidson diagonalization with overlap
     ethr =  7.17E-09,  avg # of iterations =  3.0

     total cpu time spent up to now is        7.5 secs

     total energy              =    -263.48219567 Ry
     Harris-Foulkes estimate   =    -263.48219673 Ry
     estimated scf accuracy    <       0.00000182 Ry

     iteration #  8     ecut=    30.00 Ry     beta=0.70
     Davidson diagonalization with overlap
     ethr =  4.14E-09,  avg # of iterations =  2.0

     total cpu time spent up to now is        7.6 secs

     total energy              =    -263.48219575 Ry
     Harris-Foulkes estimate   =    -263.48219607 Ry
     estimated scf accuracy    <       0.00000013 Ry

     iteration #  9     ecut=    30.00 Ry     beta=0.70
     Davidson diagonalization with overlap
     ethr =  3.04E-10,  avg # of iterations =  3.0

     total cpu time spent up to now is        7.7 secs

     total energy              =    -263.48219571 Ry
     Harris-Foulkes estimate   =    -263.48219579 Ry
     estimated scf accuracy    <       0.00000003 Ry

     iteration # 10     ecut=    30.00 Ry     beta=0.70
     Davidson diagonalization with overlap
     ethr =  5.72E-11,  avg # of iterations =  2.0

     total cpu time spent up to now is        7.8 secs

     End of self-consistent calculation

          k = 0.0000 0.0000 0.0000 ( 22119 PWs)   bands (ev):

    -8.5140  -8.0878  -7.5279  -7.2605  -6.9690  -6.9034  -6.4513  -6.3360
    -6.0678  -6.0159  -5.8200  -5.7060  -5.6431  -5.5378  -5.5120  -5.3498
    -5.3414  -5.2861  -5.2535  -5.2142  -4.9483  -4.0763  -3.8333  -2.6923
    -0.5163  -0.3438

     the Fermi energy is    -3.9158 ev

!    total energy              =    -263.48219567 Ry
     Harris-Foulkes estimate   =    -263.48219572 Ry
     estimated scf accuracy    <          4.0E-09 Ry

     convergence has been achieved in  10 iterations

     Forces acting on atoms (Ry/au):

     atom    1 type  1   force =     0.01118240    0.03450020    0.00794216
     atom    2 type  1   force =    -0.04408492   -0.02561481   -0.02709625
     atom    3 type  1   force =    -0.02816786   -0.02366806   -0.03507014
     atom    4 type  1   force =     0.06107038    0.01478268    0.05422422

     Total force =     0.119097     Total SCF correction =     0.000288

     Entering Dynamics:    iteration =     5
                           time      =   0.0242 pico-seconds


     Andersen thermostat:    4 collisions

ATOMIC_POSITIONS (bohr)
Au      -0.190570888   0.001917656   0.059858236
Au      -0.273730110   4.074642902   4.025018218
Au       3.989420399   3.787736577  -0.412699957
Au       4.474880600   4.135702865   4.327823503


     kinetic energy (Ekin) =     0.02677620 Ry
     temperature           =   939.47178667 K 
     Ekin + Etot (const)   =  -263.45541947 Ry
     Message from routine dynamics:
     Total linear momentum <> 0

     Linear momentum :   -0.8476788798    0.9282353911   -1.0906745197

     Writing output data file pwscf.save

     second order wave-functions extrapolation
     Check: negative starting charge=   -0.006268
     second order charge density extrapolation
     Check: negative starting charge=   -0.006251

     negative rho (up, down):  1.358E-03 0.000E+00

     total cpu time spent up to now is        8.1 secs

     per-process dynamical memory:    23.1 Mb

     Self-consistent Calculation

     iteration #  1     ecut=    30.00 Ry     beta=0.70
     Davidson diagonalization with overlap
     ethr =  1.00E-06,  avg # of iterations =  7.0

     negative rho (up, down):  1.224E-04 0.000E+00

     total cpu time spent up to now is        8.3 secs

     total energy              =    -263.47751832 Ry
     Harris-Foulkes estimate   =    -263.47678726 Ry
     estimated scf accuracy    <       0.00089537 Ry

     iteration #  2     ecut=    30.00 Ry     beta=0.70
     Davidson diagonalization with overlap
     ethr =  2.03E-06,  avg # of iterations =  5.0

     negative rho (up, down):  4.465E-05 0.000E+00

     total cpu time spent up to now is        8.4 secs

     total energy              =    -263.47753020 Ry
     Harris-Foulkes estimate   =    -263.47808184 Ry
     estimated scf accuracy    <       0.00121754 Ry

     iteration #  3     ecut=    30.00 Ry     beta=0.70
     Davidson diagonalization with overlap
     ethr =  2.03E-06,  avg # of iterations =  3.0

     negative rho (up, down):  4.370E-06 0.000E+00

     total cpu time spent up to now is        8.5 secs

     total energy              =    -263.47778610 Ry
     Harris-Foulkes estimate   =    -263.47789055 Ry
     estimated scf accuracy    <       0.00028343 Ry

     iteration #  4     ecut=    30.00 Ry     beta=0.70
     Davidson diagonalization with overlap
     ethr =  6.44E-07,  avg # of iterations =  2.0

     total cpu time spent up to now is        8.5 secs

     total energy              =    -263.47783535 Ry
     Harris-Foulkes estimate   =    -263.47786080 Ry
     estimated scf accuracy    <       0.00006833 Ry

     iteration #  5     ecut=    30.00 Ry     beta=0.70
     Davidson diagonalization with overlap
     ethr =  1.55E-07,  avg # of iterations =  2.0

     total cpu time spent up to now is        8.7 secs

     total energy              =    -263.47784382 Ry
     Harris-Foulkes estimate   =    -263.47786097 Ry
     estimated scf accuracy    <       0.00006119 Ry

     iteration #  6     ecut=    30.00 Ry     beta=0.70
     Davidson diagonalization with overlap
     ethr =  1.39E-07,  avg # of iterations =  1.0

     total cpu time spent up to now is        8.7 secs

     total energy              =    -263.47785205 Ry
     Harris-Foulkes estimate   =    -263.47785301 Ry
     estimated scf accuracy    <       0.00000247 Ry

     iteration #  7     ecut=    30.00 Ry     beta=0.70
     Davidson diagonalization with overlap
     ethr =  5.61E-09,  avg # of iterations =  3.0

     total cpu time spent up to now is        8.8 secs

     total energy              =    -263.47785289 Ry
     Harris-Foulkes estimate   =    -263.47785286 Ry
     estimated scf accuracy    <       0.00000052 Ry

     iteration #  8     ecut=    30.00 Ry     beta=0.70
     Davidson diagonalization with overlap
     ethr =  1.19E-09,  avg # of iterations =  2.0

     total cpu time spent up to now is        8.9 secs

     total energy              =    -263.47785290 Ry
     Harris-Foulkes estimate   =    -263.47785302 Ry
     estimated scf accuracy    <       0.00000009 Ry

     iteration #  9     ecut=    30.00 Ry     beta=0.70
     Davidson diagonalization with overlap
     ethr =  2.10E-10,  avg # of iterations =  2.0

     total cpu time spent up to now is        9.0 secs

     total energy              =    -263.47785297 Ry
     Harris-Foulkes estimate   =    -263.47785292 Ry
     estimated scf accuracy    <       0.00000001 Ry

     iteration # 10     ecut=    30.00 Ry     beta=0.70
     Davidson diagonalization with overlap
     ethr =  3.25E-11,  avg # of iterations =  2.0

     total cpu time spent up to now is        9.0 secs

     End of self-consistent calculation

          k = 0.0000 0.0000 0.0000 ( 22119 PWs)   bands (ev):

    -8.5409  -8.1633  -7.6046  -7.2907  -6.9665  -6.9393  -6.4655  -6.3291
    -6.0857  -6.0141  -5.8268  -5.7014  -5.6392  -5.5295  -5.4980  -5.3570
    -5.3423  -5.2950  -5.2545  -5.2222  -4.9323  -4.0654  -3.8478  -2.6705
    -0.5146  -0.3548

     the Fermi energy is    -3.9160 ev

!    total energy              =    -263.47785293 Ry
     Harris-Foulkes estimate   =    -263.47785298 Ry
     estimated scf accuracy    <          1.3E-09 Ry

     convergence has been achieved in  10 iterations

     Forces acting on atoms (Ry/au):

     atom    1 type  1   force =     0.01137237    0.03292038    0.00733584
     atom    2 type  1   force =    -0.05142799   -0.02293663   -0.02376396
     atom    3 type  1   force =    -0.02756808   -0.02519683   -0.04526313
     atom    4 type  1   force =     0.06762370    0.01521308    0.06169124

     Total force =     0.130600     Total SCF correction =     0.000139

     Entering Dynamics:    iteration =     6
                           time      =   0.0290 pico-seconds


     Andersen thermostat:    4 collisions

ATOMIC_POSITIONS (bohr)
Au      -0.120038995   0.055462681   0.116933197
Au      -0.356415836   4.031485488   3.955351330
Au       4.084662389   3.787432642  -0.429268218
Au       4.391792442   4.125619189   4.356983692


     kinetic energy (Ekin) =     0.05277152 Ry
     temperature           =  1851.54521925 K 
     Ekin + Etot (const)   =  -263.42508141 Ry
     Message from routine dynamics:
     Total linear momentum <> 0

     Linear momentum :   -0.3405321859    0.2678615291    0.1058578415

     Writing output data file pwscf.save

     second order wave-functions extrapolation
     Check: negative starting charge=   -0.006251
     second order charge density extrapolation
     Check: negative starting charge=   -0.006277

     negative rho (up, down):  2.896E-03 0.000E+00

     total cpu time spent up to now is        9.4 secs

     per-process dynamical memory:    23.1 Mb

     Self-consistent Calculation

     iteration #  1     ecut=    30.00 Ry     beta=0.70
     Davidson diagonalization with overlap
     ethr =  1.00E-06,  avg # of iterations =  8.0

     negative rho (up, down):  3.446E-04 0.000E+00

     total cpu time spent up to now is        9.7 secs

     total energy              =    -263.47971433 Ry
     Harris-Foulkes estimate   =    -263.47975837 Ry
     estimated scf accuracy    <       0.00435168 Ry

     iteration #  2     ecut=    30.00 Ry     beta=0.70
     Davidson diagonalization with overlap
     ethr =  9.89E-06,  avg # of iterations =  4.0

     negative rho (up, down):  2.255E-04 0.000E+00

     total cpu time spent up to now is        9.8 secs

     total energy              =    -263.47759816 Ry
     Harris-Foulkes estimate   =    -263.48549450 Ry
     estimated scf accuracy    <       0.02633934 Ry

     iteration #  3     ecut=    30.00 Ry     beta=0.70
     Davidson diagonalization with overlap
     ethr =  9.89E-06,  avg # of iterations =  3.0

     negative rho (up, down):  6.611E-05 0.000E+00

     total cpu time spent up to now is        9.8 secs

     total energy              =    -263.48149894 Ry
     Harris-Foulkes estimate   =    -263.48204689 Ry
     estimated scf accuracy    <       0.00189997 Ry

     iteration #  4     ecut=    30.00 Ry     beta=0.70
     Davidson diagonalization with overlap
     ethr =  4.32E-06,  avg # of iterations =  2.0

     negative rho (up, down):  4.686E-06 0.000E+00

     total cpu time spent up to now is        9.9 secs

     total energy              =    -263.48176428 Ry
     Harris-Foulkes estimate   =    -263.48189538 Ry
     estimated scf accuracy    <       0.00038743 Ry

     iteration #  5     ecut=    30.00 Ry     beta=0.70
     Davidson diagonalization with overlap
     ethr =  8.81E-07,  avg # of iterations =  3.0

     total cpu time spent up to now is       10.0 secs

     total energy              =    -263.48184394 Ry
     Harris-Foulkes estimate   =    -263.48186573 Ry
     estimated scf accuracy    <       0.00007359 Ry

     iteration #  6     ecut=    30.00 Ry     beta=0.70
     Davidson diagonalization with overlap
     ethr =  1.67E-07,  avg # of iterations =  2.0

     total cpu time spent up to now is       10.1 secs

     total energy              =    -263.48185585 Ry
     Harris-Foulkes estimate   =    -263.48185856 Ry
     estimated scf accuracy    <       0.00000764 Ry

     iteration #  7     ecut=    30.00 Ry     beta=0.70
     Davidson diagonalization with overlap
     ethr =  1.74E-08,  avg # of iterations =  3.0

     total cpu time spent up to now is       10.2 secs

     total energy              =    -263.48185768 Ry
     Harris-Foulkes estimate   =    -263.48185842 Ry
     estimated scf accuracy    <       0.00000242 Ry

     iteration #  8     ecut=    30.00 Ry     beta=0.70
     Davidson diagonalization with overlap
     ethr =  5.49E-09,  avg # of iterations =  2.0

     total cpu time spent up to now is       10.2 secs

     total energy              =    -263.48185805 Ry
     Harris-Foulkes estimate   =    -263.48185818 Ry
     estimated scf accuracy    <       0.00000015 Ry

     iteration #  9     ecut=    30.00 Ry     beta=0.70
     Davidson diagonalization with overlap
     ethr =  3.49E-10,  avg # of iterations =  3.0

     total cpu time spent up to now is       10.3 secs

     total energy              =    -263.48185814 Ry
     Harris-Foulkes estimate   =    -263.48185811 Ry
     estimated scf accuracy    <       0.00000004 Ry

     iteration # 10     ecut=    30.00 Ry     beta=0.70
     Davidson diagonalization with overlap
     ethr =  9.25E-11,  avg # of iterations =  2.0

     total cpu time spent up to now is       10.4 secs

     End of self-consistent calculation

          k = 0.0000 0.0000 0.0000 ( 22119 PWs)   bands (ev):

    -8.4798  -8.1108  -7.5822  -7.2679  -6.9964  -6.9150  -6.5629  -6.3526
    -6.1093  -5.9940  -5.8411  -5.7433  -5.6304  -5.5203  -5.4860  -5.3851
    -5.3502  -5.3141  -5.2732  -5.2550  -4.9105  -4.0459  -3.8592  -2.6471
    -0.5039  -0.3561

     the Fermi energy is    -3.9103 ev

!    total energy              =    -263.48185815 Ry
     Harris-Foulkes estimate   =    -263.48185815 Ry
     estimated scf accuracy    <          3.6E-09 Ry

     convergence has been achieved in  10 iterations

     Forces acting on atoms (Ry/au):

     atom    1 type  1   force =     0.00894951    0.02965547    0.00657074
     atom    2 type  1   force =    -0.05153607   -0.02261844   -0.02296829
     atom    3 type  1   force =    -0.02195882   -0.02201412   -0.03841650
     atom    4 type  1   force =     0.06454539    0.01497709    0.05481404

     Total force =     0.120563     Total SCF correction =     0.000269

     Entering Dynamics:    iteration =     7
                           time      =   0.0339 pico-seconds


     Andersen thermostat:    4 collisions

ATOMIC_POSITIONS (bohr)
Au      -0.089058191   0.048311403   0.043364896
Au      -0.368977910   4.021104380   3.973812709
Au       4.095620996   3.757157545  -0.399286219
Au       4.362415105   4.173426672   4.382108614


     kinetic energy (Ekin) =     0.01779188 Ry
     temperature           =   624.24710944 K 
     Ekin + Etot (const)   =  -263.46406627 Ry
     Message from routine dynamics:
     Total linear momentum <> 0

     Linear momentum :    0.2141250025    0.4073333698   -0.2384401161

     Writing output data file pwscf.save

     second order wave-functions extrapolation
     Check: negative starting charge=   -0.006277
     second order charge density extrapolation
     Check: negative starting charge=   -0.006284

     negative rho (up, down):  1.289E-03 0.000E+00

     total cpu time spent up to now is       10.7 secs

     per-process dynamical memory:    23.1 Mb

     Self-consistent Calculation

     iteration #  1     ecut=    30.00 Ry     beta=0.70
     Davidson diagonalization with overlap
     ethr =  1.00E-06,  avg # of iterations =  6.0

     negative rho (up, down):  1.148E-04 0.000E+00

     total cpu time spent up to now is       10.9 secs

     total energy              =    -263.48104460 Ry
     Harris-Foulkes estimate   =    -263.48051834 Ry
     estimated scf accuracy    <       0.00113028 Ry

     iteration #  2     ecut=    30.00 Ry     beta=0.70
     Davidson diagonalization with overlap
     ethr =  2.57E-06,  avg # of iterations =  4.0

     negative rho (up, down):  4.602E-05 0.000E+00

     total cpu time spent up to now is       11.0 secs

     total energy              =    -263.48101380 Ry
     Harris-Foulkes estimate   =    -263.48180979 Ry
     estimated scf accuracy    <       0.00193282 Ry

     iteration #  3     ecut=    30.00 Ry     beta=0.70
     Davidson diagonalization with overlap
     ethr =  2.57E-06,  avg # of iterations =  2.0

     negative rho (up, down):  1.206E-05 0.000E+00

     total cpu time spent up to now is       11.1 secs

     total energy              =    -263.48132794 Ry
     Harris-Foulkes estimate   =    -263.48157958 Ry
     estimated scf accuracy    <       0.00080688 Ry

     iteration #  4     ecut=    30.00 Ry     beta=0.70
     Davidson diagonalization with overlap
     ethr =  1.83E-06,  avg # of iterations =  2.0

     negative rho (up, down):  3.617E-07 0.000E+00

     total cpu time spent up to now is       11.2 secs

     total energy              =    -263.48143708 Ry
     Harris-Foulkes estimate   =    -263.48148542 Ry
     estimated scf accuracy    <       0.00012887 Ry

     iteration #  5     ecut=    30.00 Ry     beta=0.70
     Davidson diagonalization with overlap
     ethr =  2.93E-07,  avg # of iterations =  2.0

     total cpu time spent up to now is       11.2 secs

     total energy              =    -263.48145921 Ry
     Harris-Foulkes estimate   =    -263.48147289 Ry
     estimated scf accuracy    <       0.00003917 Ry

     iteration #  6     ecut=    30.00 Ry     beta=0.70
     Davidson diagonalization with overlap
     ethr =  8.90E-08,  avg # of iterations =  2.0

     total cpu time spent up to now is       11.3 secs

     total energy              =    -263.48146463 Ry
     Harris-Foulkes estimate   =    -263.48146558 Ry
     estimated scf accuracy    <       0.00000188 Ry

     iteration #  7     ecut=    30.00 Ry     beta=0.70
     Davidson diagonalization with overlap
     ethr =  4.27E-09,  avg # of iterations =  3.0

     total cpu time spent up to now is       11.4 secs

     total energy              =    -263.48146488 Ry
     Harris-Foulkes estimate   =    -263.48146535 Ry
     estimated scf accuracy    <       0.00000041 Ry

     iteration #  8     ecut=    30.00 Ry     beta=0.70
     Davidson diagonalization with overlap
     ethr =  9.21E-10,  avg # of iterations =  2.0

     total cpu time spent up to now is       11.5 secs

     total energy              =    -263.48146468 Ry
     Harris-Foulkes estimate   =    -263.48146502 Ry
     estimated scf accuracy    <       0.00000014 Ry

     iteration #  9     ecut=    30.00 Ry     beta=0.70
     Davidson diagonalization with overlap
     ethr =  3.22E-10,  avg # of iterations =  3.0

     total cpu time spent up to now is       11.6 secs

     total energy              =    -263.48146457 Ry
     Harris-Foulkes estimate   =    -263.48146472 Ry
     estimated scf accuracy    <       0.00000003 Ry

     iteration # 10     ecut=    30.00 Ry     beta=0.70
     Davidson diagonalization with overlap
     ethr =  6.17E-11,  avg # of iterations =  3.0

     total cpu time spent up to now is       11.6 secs

     End of self-consistent calculation

          k = 0.0000 0.0000 0.0000 ( 22119 PWs)   bands (ev):

    -8.4901  -8.1324  -7.6012  -7.2682  -6.9831  -6.9358  -6.5525  -6.3433
    -6.1105  -5.9949  -5.8402  -5.7409  -5.6266  -5.5221  -5.4862  -5.3814
    -5.3525  -5.3188  -5.2708  -5.2538  -4.9135  -4.0564  -3.8644  -2.6326
    -0.5092  -0.3665

     the Fermi energy is    -3.9185 ev

!    total energy              =    -263.48146455 Ry
     Harris-Foulkes estimate   =    -263.48146458 Ry
     estimated scf accuracy    <          7.2E-10 Ry

     convergence has been achieved in  10 iterations

     Forces acting on atoms (Ry/au):

     atom    1 type  1   force =     0.01027783    0.03052492    0.00636191
     atom    2 type  1   force =    -0.05374520   -0.02278278   -0.02377439
     atom    3 type  1   force =    -0.02271543   -0.02380037   -0.03935842
     atom    4 type  1   force =     0.06618280    0.01605822    0.05677090

     Total force =     0.124672     Total SCF correction =     0.000085

     Entering Dynamics:    iteration =     8
                           time      =   0.0387 pico-seconds


     Andersen thermostat:    4 collisions

ATOMIC_POSITIONS (bohr)
Au      -0.031095047   0.019344530   0.113772425
Au      -0.489876908   4.104336294   3.857138480
Au       4.108898858   3.711162979  -0.451013445
Au       4.412073096   4.165156198   4.480102540


     kinetic energy (Ekin) =     0.07113388 Ry
     temperature           =  2495.80833936 K 
     Ekin + Etot (const)   =  -263.41033067 Ry
     Message from routine dynamics:
     Total linear momentum <> 0

     Linear momentum :   -0.6843905194    0.2420441344   -0.3751921172

     Writing output data file pwscf.save

     second order wave-functions extrapolation
     Check: negative starting charge=   -0.006284
     second order charge density extrapolation
     Check: negative starting charge=   -0.006231

     negative rho (up, down):  3.925E-03 0.000E+00

     total cpu time spent up to now is       12.0 secs

     per-process dynamical memory:    23.1 Mb

     Self-consistent Calculation

     iteration #  1     ecut=    30.00 Ry     beta=0.70
     Davidson diagonalization with overlap
     ethr =  1.00E-06,  avg # of iterations =  8.0

     negative rho (up, down):  5.082E-04 0.000E+00

     total cpu time spent up to now is       12.2 secs

     total energy              =    -263.49144155 Ry
     Harris-Foulkes estimate   =    -263.49000994 Ry
     estimated scf accuracy    <       0.00481063 Ry

     iteration #  2     ecut=    30.00 Ry     beta=0.70
     Davidson diagonalization with overlap
     ethr =  1.09E-05,  avg # of iterations =  4.0

     negative rho (up, down):  3.350E-04 0.000E+00

     total cpu time spent up to now is       12.3 secs

     total energy              =    -263.48934630 Ry
     Harris-Foulkes estimate   =    -263.49712066 Ry
     estimated scf accuracy    <       0.02479478 Ry

     iteration #  3     ecut=    30.00 Ry     beta=0.70
     Davidson diagonalization with overlap
     ethr =  1.09E-05,  avg # of iterations =  3.0

     negative rho (up, down):  1.035E-04 0.000E+00

     total cpu time spent up to now is       12.4 secs

     total energy              =    -263.49336938 Ry
     Harris-Foulkes estimate   =    -263.49409547 Ry
     estimated scf accuracy    <       0.00273939 Ry

     iteration #  4     ecut=    30.00 Ry     beta=0.70
     Davidson diagonalization with overlap
     ethr =  6.23E-06,  avg # of iterations =  2.0

     negative rho (up, down):  3.419E-06 0.000E+00

     total cpu time spent up to now is       12.5 secs

     total energy              =    -263.49376089 Ry
     Harris-Foulkes estimate   =    -263.49385698 Ry
     estimated scf accuracy    <       0.00026276 Ry

     iteration #  5     ecut=    30.00 Ry     beta=0.70
     Davidson diagonalization with overlap
     ethr =  5.97E-07,  avg # of iterations =  3.0

     total cpu time spent up to now is       12.5 secs

     total energy              =    -263.49381586 Ry
     Harris-Foulkes estimate   =    -263.49387926 Ry
     estimated scf accuracy    <       0.00018557 Ry

     iteration #  6     ecut=    30.00 Ry     beta=0.70
     Davidson diagonalization with overlap
     ethr =  4.22E-07,  avg # of iterations =  2.0

     total cpu time spent up to now is       12.6 secs

     total energy              =    -263.49384460 Ry
     Harris-Foulkes estimate   =    -263.49384715 Ry
     estimated scf accuracy    <       0.00000415 Ry

     iteration #  7     ecut=    30.00 Ry     beta=0.70
     Davidson diagonalization with overlap
     ethr =  9.44E-09,  avg # of iterations =  3.0

     total cpu time spent up to now is       12.7 secs

     total energy              =    -263.49384560 Ry
     Harris-Foulkes estimate   =    -263.49384644 Ry
     estimated scf accuracy    <       0.00000109 Ry

     iteration #  8     ecut=    30.00 Ry     beta=0.70
     Davidson diagonalization with overlap
     ethr =  2.49E-09,  avg # of iterations =  2.0

     total cpu time spent up to now is       12.8 secs

     total energy              =    -263.49384574 Ry
     Harris-Foulkes estimate   =    -263.49384597 Ry
     estimated scf accuracy    <       0.00000048 Ry

     iteration #  9     ecut=    30.00 Ry     beta=0.70
     Davidson diagonalization with overlap
     ethr =  1.09E-09,  avg # of iterations =  2.0

     total cpu time spent up to now is       12.9 secs

     total energy              =    -263.49384588 Ry
     Harris-Foulkes estimate   =    -263.49384588 Ry
     estimated scf accuracy    <       0.00000013 Ry

     iteration # 10     ecut=    30.00 Ry     beta=0.70
     Davidson diagonalization with overlap
     ethr =  3.06E-10,  avg # of iterations =  2.0

     total cpu time spent up to now is       12.9 secs

     End of self-consistent calculation

          k = 0.0000 0.0000 0.0000 ( 22119 PWs)   bands (ev):

    -8.1929  -7.7610  -7.3096  -7.0831  -6.8723  -6.7594  -6.5597  -6.3395
    -6.0772  -5.9267  -5.8211  -5.7738  -5.6188  -5.5305  -5.5044  -5.4092
    -5.3743  -5.3346  -5.3154  -5.2967  -4.9563  -4.0653  -3.8784  -2.7237
    -0.4925  -0.3316

     the Fermi energy is    -3.9294 ev

!    total energy              =    -263.49384596 Ry
     Harris-Foulkes estimate   =    -263.49384590 Ry
     estimated scf accuracy    <          5.5E-09 Ry

     convergence has been achieved in  10 iterations

     Forces acting on atoms (Ry/au):

     atom    1 type  1   force =     0.01006361    0.03207175    0.00598441
     atom    2 type  1   force =    -0.01222456   -0.02131472   -0.01937764
     atom    3 type  1   force =    -0.02052386   -0.02223110   -0.00830041
     atom    4 type  1   force =     0.02268480    0.01147407    0.02169364

     Total force =     0.065163     Total SCF correction =     0.000279

     Entering Dynamics:    iteration =     9
                           time      =   0.0435 pico-seconds


     Andersen thermostat:    4 collisions

ATOMIC_POSITIONS (bohr)
Au       0.002983868   0.132769932   0.123936671
Au      -0.527686613   4.067617795   3.862609247
Au       4.136979688   3.699107533  -0.428426649
Au       4.387723057   4.100504740   4.441880730


     kinetic energy (Ekin) =     0.03170176 Ry
     temperature           =  1112.29015868 K 
     Ekin + Etot (const)   =  -263.46214421 Ry
     Message from routine dynamics:
     Total linear momentum <> 0

     Linear momentum :    0.5670204304   -0.3126864795    0.4798653908

     Writing output data file pwscf.save

     second order wave-functions extrapolation
     Check: negative starting charge=   -0.006231
     second order charge density extrapolation
     Check: negative starting charge=   -0.006301

     negative rho (up, down):  2.111E-03 0.000E+00

     total cpu time spent up to now is       13.3 secs

     per-process dynamical memory:    23.1 Mb

     Self-consistent Calculation

     iteration #  1     ecut=    30.00 Ry     beta=0.70
     Davidson diagonalization with overlap
     ethr =  1.00E-06,  avg # of iterations =  8.0

     negative rho (up, down):  2.233E-04 0.000E+00

     total cpu time spent up to now is       13.5 secs

     total energy              =    -263.49455695 Ry
     Harris-Foulkes estimate   =    -263.49442135 Ry
     estimated scf accuracy    <       0.00240100 Ry

     iteration #  2     ecut=    30.00 Ry     beta=0.70
     Davidson diagonalization with overlap
     ethr =  5.46E-06,  avg # of iterations =  5.0

     negative rho (up, down):  1.371E-04 0.000E+00

     total cpu time spent up to now is       13.6 secs

     total energy              =    -263.49357076 Ry
     Harris-Foulkes estimate   =    -263.49760396 Ry
     estimated scf accuracy    <       0.01282699 Ry

     iteration #  3     ecut=    30.00 Ry     beta=0.70
     Davidson diagonalization with overlap
     ethr =  5.46E-06,  avg # of iterations =  3.0

     negative rho (up, down):  3.205E-05 0.000E+00

     total cpu time spent up to now is       13.7 secs

     total energy              =    -263.49552634 Ry
     Harris-Foulkes estimate   =    -263.49581610 Ry
     estimated scf accuracy    <       0.00090301 Ry

     iteration #  4     ecut=    30.00 Ry     beta=0.70
     Davidson diagonalization with overlap
     ethr =  2.05E-06,  avg # of iterations =  2.0

     negative rho (up, down):  7.946E-07 0.000E+00

     total cpu time spent up to now is       13.7 secs

     total energy              =    -263.49565865 Ry
     Harris-Foulkes estimate   =    -263.49573837 Ry
     estimated scf accuracy    <       0.00022495 Ry

     iteration #  5     ecut=    30.00 Ry     beta=0.70
     Davidson diagonalization with overlap
     ethr =  5.11E-07,  avg # of iterations =  2.0

     total cpu time spent up to now is       13.8 secs

     total energy              =    -263.49570218 Ry
     Harris-Foulkes estimate   =    -263.49571726 Ry
     estimated scf accuracy    <       0.00004861 Ry

     iteration #  6     ecut=    30.00 Ry     beta=0.70
     Davidson diagonalization with overlap
     ethr =  1.10E-07,  avg # of iterations =  2.0

     total cpu time spent up to now is       13.9 secs

     total energy              =    -263.49571165 Ry
     Harris-Foulkes estimate   =    -263.49571279 Ry
     estimated scf accuracy    <       0.00000512 Ry

     iteration #  7     ecut=    30.00 Ry     beta=0.70
     Davidson diagonalization with overlap
     ethr =  1.16E-08,  avg # of iterations =  2.0

     total cpu time spent up to now is       14.0 secs

     total energy              =    -263.49571307 Ry
     Harris-Foulkes estimate   =    -263.49571306 Ry
     estimated scf accuracy    <       0.00000070 Ry

     iteration #  8     ecut=    30.00 Ry     beta=0.70
     Davidson diagonalization with overlap
     ethr =  1.60E-09,  avg # of iterations =  2.0

     total cpu time spent up to now is       14.1 secs

     total energy              =    -263.49571322 Ry
     Harris-Foulkes estimate   =    -263.49571332 Ry
     estimated scf accuracy    <       0.00000027 Ry

     iteration #  9     ecut=    30.00 Ry     beta=0.70
     Davidson diagonalization with overlap
     ethr =  6.10E-10,  avg # of iterations =  2.0

     total cpu time spent up to now is       14.1 secs

     total energy              =    -263.49571335 Ry
     Harris-Foulkes estimate   =    -263.49571328 Ry
     estimated scf accuracy    <       0.00000002 Ry

     iteration # 10     ecut=    30.00 Ry     beta=0.70
     Davidson diagonalization with overlap
     ethr =  5.12E-11,  avg # of iterations =  3.0

     total cpu time spent up to now is       14.2 secs

     End of self-consistent calculation

          k = 0.0000 0.0000 0.0000 ( 22119 PWs)   bands (ev):

    -8.2453  -7.8082  -7.3856  -7.1363  -6.9210  -6.8404  -6.6531  -6.4017
    -6.1284  -5.9382  -5.8470  -5.8142  -5.6140  -5.5200  -5.4864  -5.4232
    -5.3672  -5.3373  -5.3343  -5.2956  -4.9117  -4.0368  -3.8740  -2.6711
    -0.4897  -0.3376

     the Fermi energy is    -3.9120 ev

!    total energy              =    -263.49571334 Ry
     Harris-Foulkes estimate   =    -263.49571335 Ry
     estimated scf accuracy    <          2.4E-09 Ry

     convergence has been achieved in  10 iterations

     Forces acting on atoms (Ry/au):

     atom    1 type  1   force =     0.00634023    0.02756584    0.00518398
     atom    2 type  1   force =    -0.01420553   -0.01927337   -0.01668210
     atom    3 type  1   force =    -0.01685958   -0.02068816   -0.02056676
     atom    4 type  1   force =     0.02472488    0.01239569    0.03206488

     Total force =     0.067874     Total SCF correction =     0.000194

     Entering Dynamics:    iteration =    10
                           time      =   0.0484 pico-seconds


     Andersen thermostat:    4 collisions

ATOMIC_POSITIONS (bohr)
Au       0.044817620   0.193761561   0.154981066
Au      -0.528345919   4.024183192   3.883724060
Au       4.125466854   3.610151940  -0.457351365
Au       4.358061445   4.171903306   4.418646239


     kinetic energy (Ekin) =     0.03116110 Ry
     temperature           =  1093.32047560 K 
     Ekin + Etot (const)   =  -263.46455224 Ry
     Message from routine dynamics:
     Total linear momentum <> 0

     Linear momentum :    0.2284143151   -1.0663915116    0.0147612182

     Writing output data file pwscf.save

     second order wave-functions extrapolation
     Check: negative starting charge=   -0.006301
     second order charge density extrapolation
     Check: negative starting charge=   -0.006431

     negative rho (up, down):  2.180E-03 0.000E+00

     total cpu time spent up to now is       14.5 secs

     per-process dynamical memory:    23.1 Mb

     Self-consistent Calculation

     iteration #  1     ecut=    30.00 Ry     beta=0.70
     Davidson diagonalization with overlap
     ethr =  1.00E-06,  avg # of iterations =  8.0

     negative rho (up, down):  2.394E-04 0.000E+00

     total cpu time spent up to now is       14.7 secs

     total energy              =    -263.49867778 Ry
     Harris-Foulkes estimate   =    -263.49825921 Ry
     estimated scf accuracy    <       0.00300869 Ry

     iteration #  2     ecut=    30.00 Ry     beta=0.70
     Davidson diagonalization with overlap
     ethr =  6.84E-06,  avg # of iterations =  5.0

     negative rho (up, down):  1.262E-04 0.000E+00

     total cpu time spent up to now is       14.8 secs

     total energy              =    -263.49826216 Ry
     Harris-Foulkes estimate   =    -263.50137469 Ry
     estimated scf accuracy    <       0.00853901 Ry

     iteration #  3     ecut=    30.00 Ry     beta=0.70
     Davidson diagonalization with overlap
     ethr =  6.84E-06,  avg # of iterations =  2.0

     negative rho (up, down):  3.883E-05 0.000E+00

     total cpu time spent up to now is       14.9 secs

     total energy              =    -263.49967988 Ry
     Harris-Foulkes estimate   =    -263.50019011 Ry
     estimated scf accuracy    <       0.00161667 Ry

     iteration #  4     ecut=    30.00 Ry     beta=0.70
     Davidson diagonalization with overlap
     ethr =  3.67E-06,  avg # of iterations =  2.0

     negative rho (up, down):  2.089E-06 0.000E+00

     total cpu time spent up to now is       15.0 secs

     total energy              =    -263.49990913 Ry
     Harris-Foulkes estimate   =    -263.49999282 Ry
     estimated scf accuracy    <       0.00021370 Ry

     iteration #  5     ecut=    30.00 Ry     beta=0.70
     Davidson diagonalization with overlap
     ethr =  4.86E-07,  avg # of iterations =  2.0

     total cpu time spent up to now is       15.1 secs

     total energy              =    -263.49995381 Ry
     Harris-Foulkes estimate   =    -263.49998758 Ry
     estimated scf accuracy    <       0.00011724 Ry

     iteration #  6     ecut=    30.00 Ry     beta=0.70
     Davidson diagonalization with overlap
     ethr =  2.66E-07,  avg # of iterations =  1.0

     total cpu time spent up to now is       15.1 secs

     total energy              =    -263.49996919 Ry
     Harris-Foulkes estimate   =    -263.49997066 Ry
     estimated scf accuracy    <       0.00000320 Ry

     iteration #  7     ecut=    30.00 Ry     beta=0.70
     Davidson diagonalization with overlap
     ethr =  7.28E-09,  avg # of iterations =  3.0

     total cpu time spent up to now is       15.2 secs

     total energy              =    -263.49997028 Ry
     Harris-Foulkes estimate   =    -263.49997081 Ry
     estimated scf accuracy    <       0.00000114 Ry

     iteration #  8     ecut=    30.00 Ry     beta=0.70
     Davidson diagonalization with overlap
     ethr =  2.58E-09,  avg # of iterations =  2.0

     total cpu time spent up to now is       15.3 secs

     total energy              =    -263.49997061 Ry
     Harris-Foulkes estimate   =    -263.49997063 Ry
     estimated scf accuracy    <       0.00000037 Ry

     iteration #  9     ecut=    30.00 Ry     beta=0.70
     Davidson diagonalization with overlap
     ethr =  8.35E-10,  avg # of iterations =  2.0

     total cpu time spent up to now is       15.4 secs

     total energy              =    -263.49997054 Ry
     Harris-Foulkes estimate   =    -263.49997069 Ry
     estimated scf accuracy    <       0.00000003 Ry

     iteration # 10     ecut=    30.00 Ry     beta=0.70
     Davidson diagonalization with overlap
     ethr =  6.86E-11,  avg # of iterations =  3.0

     total cpu time spent up to now is       15.5 secs

     End of self-consistent calculation

          k = 0.0000 0.0000 0.0000 ( 22119 PWs)   bands (ev):

    -8.2614  -7.8099  -7.4416  -7.1794  -6.9724  -6.9518  -6.6902  -6.4810
    -6.1953  -5.9526  -5.8728  -5.8646  -5.6005  -5.5080  -5.4744  -5.4397
    -5.3671  -5.3564  -5.3468  -5.2900  -4.8729  -4.0246  -3.8741  -2.6068
    -0.4908  -0.3553

     the Fermi energy is    -3.9057 ev

!    total energy              =    -263.49997057 Ry
     Harris-Foulkes estimate   =    -263.49997055 Ry
     estimated scf accuracy    <          8.8E-09 Ry

     convergence has been achieved in  10 iterations

     Forces acting on atoms (Ry/au):

     atom    1 type  1   force =     0.00371777    0.02277212    0.00308733
     atom    2 type  1   force =    -0.01962383   -0.01749151   -0.01416293
     atom    3 type  1   force =    -0.01302150   -0.01790107   -0.01988965
     atom    4 type  1   force =     0.02892756    0.01262046    0.03096525

     Total force =     0.065377     Total SCF correction =     0.000358

     Entering Dynamics:    iteration =    11
                           time      =   0.0532 pico-seconds


     Andersen thermostat:    4 collisions

ATOMIC_POSITIONS (bohr)
Au       0.004685339   0.174454286   0.149331893
Au      -0.547434236   3.977007294   3.902050213
Au       4.131469974   3.642955199  -0.488407330
Au       4.411278923   4.205583221   4.437025223


     kinetic energy (Ekin) =     0.01461908 Ry
     temperature           =   512.92601321 K 
     Ekin + Etot (const)   =  -263.48535149 Ry
     Message from routine dynamics:
     Total linear momentum <> 0

     Linear momentum :    0.2698269667    0.1526192744   -0.7644018984

     Writing output data file pwscf.save

     second order wave-functions extrapolation
     Check: negative starting charge=   -0.006431
     second order charge density extrapolation
     Check: negative starting charge=   -0.006368

     negative rho (up, down):  1.103E-03 0.000E+00

     total cpu time spent up to now is       15.9 secs

     per-process dynamical memory:    23.1 Mb

     Self-consistent Calculation

     iteration #  1     ecut=    30.00 Ry     beta=0.70
     Davidson diagonalization with overlap
     ethr =  1.00E-06,  avg # of iterations =  6.0

     negative rho (up, down):  9.108E-05 0.000E+00

     total cpu time spent up to now is       16.1 secs

     total energy              =    -263.50134025 Ry
     Harris-Foulkes estimate   =    -263.50130514 Ry
     estimated scf accuracy    <       0.00140873 Ry

     iteration #  2     ecut=    30.00 Ry     beta=0.70
     Davidson diagonalization with overlap
     ethr =  3.20E-06,  avg # of iterations =  4.0

     negative rho (up, down):  4.635E-05 0.000E+00

     total cpu time spent up to now is       16.1 secs

     total energy              =    -263.50097147 Ry
     Harris-Foulkes estimate   =    -263.50279050 Ry
     estimated scf accuracy    <       0.00538817 Ry

     iteration #  3     ecut=    30.00 Ry     beta=0.70
     Davidson diagonalization with overlap
     ethr =  3.20E-06,  avg # of iterations =  3.0

     negative rho (up, down):  1.016E-05 0.000E+00

     total cpu time spent up to now is       16.2 secs

     total energy              =    -263.50182890 Ry
     Harris-Foulkes estimate   =    -263.50202591 Ry
     estimated scf accuracy    <       0.00058987 Ry

     iteration #  4     ecut=    30.00 Ry     beta=0.70
     Davidson diagonalization with overlap
     ethr =  1.34E-06,  avg # of iterations =  2.0

     negative rho (up, down):  3.842E-07 0.000E+00

     total cpu time spent up to now is       16.3 secs

     total energy              =    -263.50191264 Ry
     Harris-Foulkes estimate   =    -263.50196487 Ry
     estimated scf accuracy    <       0.00014715 Ry

     iteration #  5     ecut=    30.00 Ry     beta=0.70
     Davidson diagonalization with overlap
     ethr =  3.34E-07,  avg # of iterations =  2.0

     total cpu time spent up to now is       16.4 secs

     total energy              =    -263.50193701 Ry
     Harris-Foulkes estimate   =    -263.50194712 Ry
     estimated scf accuracy    <       0.00002277 Ry

     iteration #  6     ecut=    30.00 Ry     beta=0.70
     Davidson diagonalization with overlap
     ethr =  5.18E-08,  avg # of iterations =  2.0

     total cpu time spent up to now is       16.5 secs

     total energy              =    -263.50193996 Ry
     Harris-Foulkes estimate   =    -263.50194148 Ry
     estimated scf accuracy    <       0.00000131 Ry

     iteration #  7     ecut=    30.00 Ry     beta=0.70
     Davidson diagonalization with overlap
     ethr =  2.99E-09,  avg # of iterations =  3.0

     total cpu time spent up to now is       16.5 secs

     total energy              =    -263.50193990 Ry
     Harris-Foulkes estimate   =    -263.50194042 Ry
     estimated scf accuracy    <       0.00000044 Ry

     iteration #  8     ecut=    30.00 Ry     beta=0.70
     Davidson diagonalization with overlap
     ethr =  9.91E-10,  avg # of iterations =  2.0

     total cpu time spent up to now is       16.6 secs

     total energy              =    -263.50193982 Ry
     Harris-Foulkes estimate   =    -263.50194003 Ry
     estimated scf accuracy    <       0.00000011 Ry

     iteration #  9     ecut=    30.00 Ry     beta=0.70
     Davidson diagonalization with overlap
     ethr =  2.58E-10,  avg # of iterations =  2.0

     total cpu time spent up to now is       16.7 secs

     total energy              =    -263.50193966 Ry
     Harris-Foulkes estimate   =    -263.50193985 Ry
     estimated scf accuracy    <       0.00000002 Ry

     iteration # 10     ecut=    30.00 Ry     beta=0.70
     Davidson diagonalization with overlap
     ethr =  5.59E-11,  avg # of iterations =  2.0

     total cpu time spent up to now is       16.8 secs

     End of self-consistent calculation

          k = 0.0000 0.0000 0.0000 ( 22119 PWs)   bands (ev):

    -8.1439  -7.6936  -7.3525  -7.1100  -6.9259  -6.8776  -6.6149  -6.4478
    -6.1716  -5.9251  -5.8598  -5.8460  -5.5928  -5.5105  -5.4803  -5.4448
    -5.3767  -5.3641  -5.3573  -5.3095  -4.9028  -4.0482  -3.8909  -2.6380
    -0.4910  -0.3552

     the Fermi energy is    -3.9261 ev

!    total energy              =    -263.50193966 Ry
     Harris-Foulkes estimate   =    -263.50193967 Ry
     estimated scf accuracy    <          6.8E-10 Ry

     convergence has been achieved in  10 iterations

     Forces acting on atoms (Ry/au):

     atom    1 type  1   force =     0.00591330    0.02525745    0.00472360
     atom    2 type  1   force =    -0.00698005   -0.01874406   -0.01523648
     atom    3 type  1   force =    -0.01538867   -0.01808630   -0.00810842
     atom    4 type  1   force =     0.01645542    0.01157292    0.01862130

     Total force =     0.052044     Total SCF correction =     0.000101

     Entering Dynamics:    iteration =    12
                           time      =   0.0581 pico-seconds


     Andersen thermostat:    4 collisions

ATOMIC_POSITIONS (bohr)
Au       0.078568633   0.180727332   0.246269453
Au      -0.612057263   3.909642955   3.865324137
Au       4.043505199   3.622041633  -0.535535517
Au       4.489983431   4.287588080   4.423941927


     kinetic energy (Ekin) =     0.06049954 Ry
     temperature           =  2122.69127315 K 
     Ekin + Etot (const)   =  -263.44144011 Ry
     Message from routine dynamics:
     Total linear momentum <> 0

     Linear momentum :   -0.3075730775   -0.5987821393   -0.7827287955

     Writing output data file pwscf.save

     second order wave-functions extrapolation
     Check: negative starting charge=   -0.006368
     second order charge density extrapolation
     Check: negative starting charge=   -0.006360

     negative rho (up, down):  3.259E-03 0.000E+00

     total cpu time spent up to now is       17.1 secs

     per-process dynamical memory:    23.1 Mb

     Self-consistent Calculation

     iteration #  1     ecut=    30.00 Ry     beta=0.70
     Davidson diagonalization with overlap
     ethr =  1.00E-06,  avg # of iterations =  9.0

     negative rho (up, down):  4.068E-04 0.000E+00

     total cpu time spent up to now is       17.4 secs

     total energy              =    -263.50495443 Ry
     Harris-Foulkes estimate   =    -263.50413658 Ry
     estimated scf accuracy    <       0.00431846 Ry

     iteration #  2     ecut=    30.00 Ry     beta=0.70
     Davidson diagonalization with overlap
     ethr =  9.81E-06,  avg # of iterations =  4.0

     negative rho (up, down):  2.574E-04 0.000E+00

     total cpu time spent up to now is       17.5 secs

     total energy              =    -263.50340376 Ry
     Harris-Foulkes estimate   =    -263.51010342 Ry
     estimated scf accuracy    <       0.02065411 Ry

     iteration #  3     ecut=    30.00 Ry     beta=0.70
     Davidson diagonalization with overlap
     ethr =  9.81E-06,  avg # of iterations =  3.0

     negative rho (up, down):  8.366E-05 0.000E+00

     total cpu time spent up to now is       17.5 secs

     total energy              =    -263.50673681 Ry
     Harris-Foulkes estimate   =    -263.50730409 Ry
     estimated scf accuracy    <       0.00189526 Ry

     iteration #  4     ecut=    30.00 Ry     beta=0.70
     Davidson diagonalization with overlap
     ethr =  4.31E-06,  avg # of iterations =  2.0

     negative rho (up, down):  3.618E-06 0.000E+00

     total cpu time spent up to now is       17.6 secs

     total energy              =    -263.50701101 Ry
     Harris-Foulkes estimate   =    -263.50709509 Ry
     estimated scf accuracy    <       0.00021642 Ry

     iteration #  5     ecut=    30.00 Ry     beta=0.70
     Davidson diagonalization with overlap
     ethr =  4.92E-07,  avg # of iterations =  2.0

     total cpu time spent up to now is       17.7 secs

     total energy              =    -263.50705294 Ry
     Harris-Foulkes estimate   =    -263.50709859 Ry
     estimated scf accuracy    <       0.00014212 Ry

     iteration #  6     ecut=    30.00 Ry     beta=0.70
     Davidson diagonalization with overlap
     ethr =  3.23E-07,  avg # of iterations =  2.0

     total cpu time spent up to now is       17.8 secs

     total energy              =    -263.50707329 Ry
     Harris-Foulkes estimate   =    -263.50707497 Ry
     estimated scf accuracy    <       0.00000343 Ry

     iteration #  7     ecut=    30.00 Ry     beta=0.70
     Davidson diagonalization with overlap
     ethr =  7.80E-09,  avg # of iterations =  3.0

     total cpu time spent up to now is       17.9 secs

     total energy              =    -263.50707483 Ry
     Harris-Foulkes estimate   =    -263.50707505 Ry
[...]
     Harris-Foulkes estimate   =    -263.53399615 Ry
     estimated scf accuracy    <       0.00000739 Ry

     iteration # 53     ecut=    30.00 Ry     beta=0.70
     Davidson diagonalization with overlap
     ethr =  1.89E-09,  avg # of iterations =  3.0

     total cpu time spent up to now is      403.3 secs

     total energy              =    -263.53399702 Ry
     Harris-Foulkes estimate   =    -263.53399773 Ry
     estimated scf accuracy    <       0.00000530 Ry

     iteration # 54     ecut=    30.00 Ry     beta=0.70
     Davidson diagonalization with overlap
     ethr =  1.89E-09,  avg # of iterations =  2.0

     total cpu time spent up to now is      403.3 secs

     total energy              =    -263.53399333 Ry
     Harris-Foulkes estimate   =    -263.53399695 Ry
     estimated scf accuracy    <       0.00000627 Ry

     iteration # 55     ecut=    30.00 Ry     beta=0.70
     Davidson diagonalization with overlap
     ethr =  1.89E-09,  avg # of iterations =  4.0

     total cpu time spent up to now is      403.4 secs

     total energy              =    -263.53398310 Ry
     Harris-Foulkes estimate   =    -263.53398971 Ry
     estimated scf accuracy    <       0.00001737 Ry

     iteration # 56     ecut=    30.00 Ry     beta=0.70
     Davidson diagonalization with overlap
     ethr =  1.89E-09,  avg # of iterations =  4.0

     total cpu time spent up to now is      403.6 secs

     total energy              =    -263.53405716 Ry
     Harris-Foulkes estimate   =    -263.53397975 Ry
     estimated scf accuracy    <       0.00003799 Ry

     iteration # 57     ecut=    30.00 Ry     beta=0.70
     Davidson diagonalization with overlap
     ethr =  1.89E-09,  avg # of iterations =  5.0

     total cpu time spent up to now is      403.7 secs

     total energy              =    -263.53400913 Ry
     Harris-Foulkes estimate   =    -263.53400347 Ry
     estimated scf accuracy    <       0.00000096 Ry

     iteration # 58     ecut=    30.00 Ry     beta=0.70
     Davidson diagonalization with overlap
     ethr =  1.89E-09,  avg # of iterations =  4.0

     total cpu time spent up to now is      403.8 secs

     total energy              =    -263.53401039 Ry
     Harris-Foulkes estimate   =    -263.53400605 Ry
     estimated scf accuracy    <       0.00000114 Ry

     iteration # 59     ecut=    30.00 Ry     beta=0.70
     Davidson diagonalization with overlap
     ethr =  1.89E-09,  avg # of iterations =  4.0

     total cpu time spent up to now is      403.9 secs

     total energy              =    -263.53401804 Ry
     Harris-Foulkes estimate   =    -263.53400900 Ry
     estimated scf accuracy    <       0.00000307 Ry

     iteration # 60     ecut=    30.00 Ry     beta=0.70
     Davidson diagonalization with overlap
     ethr =  1.89E-09,  avg # of iterations =  4.0

     total cpu time spent up to now is      404.0 secs

     total energy              =    -263.53402182 Ry
     Harris-Foulkes estimate   =    -263.53401676 Ry
     estimated scf accuracy    <       0.00001181 Ry

     iteration # 61     ecut=    30.00 Ry     beta=0.70
     Davidson diagonalization with overlap
     ethr =  1.89E-09,  avg # of iterations =  5.0

     total cpu time spent up to now is      404.1 secs

     total energy              =    -263.53400002 Ry
     Harris-Foulkes estimate   =    -263.53400125 Ry
     estimated scf accuracy    <       0.00000207 Ry

     iteration # 62     ecut=    30.00 Ry     beta=0.70
     Davidson diagonalization with overlap
     ethr =  1.89E-09,  avg # of iterations =  4.0

     total cpu time spent up to now is      404.2 secs

     total energy              =    -263.53399660 Ry
     Harris-Foulkes estimate   =    -263.53399645 Ry
     estimated scf accuracy    <       0.00000690 Ry

     iteration # 63     ecut=    30.00 Ry     beta=0.70
     Davidson diagonalization with overlap
     ethr =  1.89E-09,  avg # of iterations =  1.0

     total cpu time spent up to now is      404.3 secs

     total energy              =    -263.53399638 Ry
     Harris-Foulkes estimate   =    -263.53399660 Ry
     estimated scf accuracy    <       0.00000667 Ry

     iteration # 64     ecut=    30.00 Ry     beta=0.70
     Davidson diagonalization with overlap
     ethr =  1.89E-09,  avg # of iterations =  1.0

     total cpu time spent up to now is      404.4 secs

     total energy              =    -263.53399794 Ry
     Harris-Foulkes estimate   =    -263.53399638 Ry
     estimated scf accuracy    <       0.00000710 Ry

     iteration # 65     ecut=    30.00 Ry     beta=0.70
     Davidson diagonalization with overlap
     ethr =  1.89E-09,  avg # of iterations =  2.0

     total cpu time spent up to now is      404.5 secs

     total energy              =    -263.53399480 Ry
     Harris-Foulkes estimate   =    -263.53399772 Ry
     estimated scf accuracy    <       0.00000531 Ry

     iteration # 66     ecut=    30.00 Ry     beta=0.70
     Davidson diagonalization with overlap
     ethr =  1.89E-09,  avg # of iterations =  4.0

     total cpu time spent up to now is      404.6 secs

     total energy              =    -263.53399491 Ry
     Harris-Foulkes estimate   =    -263.53399226 Ry
     estimated scf accuracy    <       0.00001311 Ry

     iteration # 67     ecut=    30.00 Ry     beta=0.70
     Davidson diagonalization with overlap
     ethr =  1.89E-09,  avg # of iterations =  3.0

     total cpu time spent up to now is      404.6 secs

     total energy              =    -263.53398948 Ry
     Harris-Foulkes estimate   =    -263.53399455 Ry
     estimated scf accuracy    <       0.00000956 Ry

     iteration # 68     ecut=    30.00 Ry     beta=0.70
     Davidson diagonalization with overlap
     ethr =  1.89E-09,  avg # of iterations =  4.0

     total cpu time spent up to now is      404.8 secs

     total energy              =    -263.53397226 Ry
     Harris-Foulkes estimate   =    -263.53398489 Ry
     estimated scf accuracy    <       0.00002703 Ry

     iteration # 69     ecut=    30.00 Ry     beta=0.70
     Davidson diagonalization with overlap
     ethr =  1.89E-09,  avg # of iterations =  4.0

     total cpu time spent up to now is      404.9 secs

     total energy              =    -263.53412195 Ry
     Harris-Foulkes estimate   =    -263.53396244 Ry
     estimated scf accuracy    <       0.00008310 Ry

     iteration # 70     ecut=    30.00 Ry     beta=0.70
     Davidson diagonalization with overlap
     ethr =  1.89E-09,  avg # of iterations =  5.0

     total cpu time spent up to now is      405.0 secs

     total energy              =    -263.53400479 Ry
     Harris-Foulkes estimate   =    -263.53400458 Ry
     estimated scf accuracy    <       0.00000083 Ry

     iteration # 71     ecut=    30.00 Ry     beta=0.70
     Davidson diagonalization with overlap
     ethr =  1.89E-09,  avg # of iterations =  1.0

     total cpu time spent up to now is      405.1 secs

     total energy              =    -263.53400563 Ry
     Harris-Foulkes estimate   =    -263.53400478 Ry
     estimated scf accuracy    <       0.00000079 Ry

     iteration # 72     ecut=    30.00 Ry     beta=0.70
     Davidson diagonalization with overlap
     ethr =  1.80E-09,  avg # of iterations =  3.0

     total cpu time spent up to now is      405.1 secs

     total energy              =    -263.53400716 Ry
     Harris-Foulkes estimate   =    -263.53400545 Ry
     estimated scf accuracy    <       0.00000094 Ry

     iteration # 73     ecut=    30.00 Ry     beta=0.70
     Davidson diagonalization with overlap
     ethr =  1.80E-09,  avg # of iterations =  3.0

     total cpu time spent up to now is      405.2 secs

     total energy              =    -263.53401058 Ry
     Harris-Foulkes estimate   =    -263.53400671 Ry
     estimated scf accuracy    <       0.00000139 Ry

     iteration # 74     ecut=    30.00 Ry     beta=0.70
     Davidson diagonalization with overlap
     ethr =  1.80E-09,  avg # of iterations =  4.0

     total cpu time spent up to now is      405.4 secs

     total energy              =    -263.53401054 Ry
     Harris-Foulkes estimate   =    -263.53400963 Ry
     estimated scf accuracy    <       0.00000342 Ry

     iteration # 75     ecut=    30.00 Ry     beta=0.70
     Davidson diagonalization with overlap
     ethr =  1.80E-09,  avg # of iterations =  2.0

     total cpu time spent up to now is      405.4 secs

     total energy              =    -263.53400958 Ry
     Harris-Foulkes estimate   =    -263.53401050 Ry
     estimated scf accuracy    <       0.00000424 Ry

     iteration # 76     ecut=    30.00 Ry     beta=0.70
     Davidson diagonalization with overlap
     ethr =  1.80E-09,  avg # of iterations =  2.0

     total cpu time spent up to now is      405.5 secs

     total energy              =    -263.53400953 Ry
     Harris-Foulkes estimate   =    -263.53400953 Ry
     estimated scf accuracy    <       0.00000337 Ry

     iteration # 77     ecut=    30.00 Ry     beta=0.70
     Davidson diagonalization with overlap
     ethr =  1.80E-09,  avg # of iterations =  1.0

     total cpu time spent up to now is      405.6 secs

     total energy              =    -263.53401114 Ry
     Harris-Foulkes estimate   =    -263.53400954 Ry
     estimated scf accuracy    <       0.00000336 Ry

     iteration # 78     ecut=    30.00 Ry     beta=0.70
     Davidson diagonalization with overlap
     ethr =  1.80E-09,  avg # of iterations =  4.0

     total cpu time spent up to now is      405.7 secs

     total energy              =    -263.53400323 Ry
     Harris-Foulkes estimate   =    -263.53400347 Ry
     estimated scf accuracy    <       0.00000100 Ry

     iteration # 79     ecut=    30.00 Ry     beta=0.70
     Davidson diagonalization with overlap
     ethr =  1.80E-09,  avg # of iterations =  4.0

     total cpu time spent up to now is      405.8 secs

     total energy              =    -263.53399910 Ry
     Harris-Foulkes estimate   =    -263.53400036 Ry
     estimated scf accuracy    <       0.00000277 Ry

     iteration # 80     ecut=    30.00 Ry     beta=0.70
     Davidson diagonalization with overlap
     ethr =  1.80E-09,  avg # of iterations =  3.0

     total cpu time spent up to now is      405.9 secs

     total energy              =    -263.53399588 Ry
     Harris-Foulkes estimate   =    -263.53399850 Ry
     estimated scf accuracy    <       0.00000457 Ry

     iteration # 81     ecut=    30.00 Ry     beta=0.70
     Davidson diagonalization with overlap
     ethr =  1.80E-09,  avg # of iterations =  4.0

     total cpu time spent up to now is      406.0 secs

     total energy              =    -263.53399259 Ry
     Harris-Foulkes estimate   =    -263.53399348 Ry
     estimated scf accuracy    <       0.00001126 Ry

     iteration # 82     ecut=    30.00 Ry     beta=0.70
     Davidson diagonalization with overlap
     ethr =  1.80E-09,  avg # of iterations =  2.0

     total cpu time spent up to now is      406.1 secs

     total energy              =    -263.53398865 Ry
     Harris-Foulkes estimate   =    -263.53399254 Ry
     estimated scf accuracy    <       0.00001276 Ry

     iteration # 83     ecut=    30.00 Ry     beta=0.70
     Davidson diagonalization with overlap
     ethr =  1.80E-09,  avg # of iterations =  5.0

     total cpu time spent up to now is      406.2 secs

     total energy              =    -263.53423500 Ry
     Harris-Foulkes estimate   =    -263.53393194 Ry
     estimated scf accuracy    <       0.00018074 Ry

     iteration # 84     ecut=    30.00 Ry     beta=0.70
     Davidson diagonalization with overlap
     ethr =  1.80E-09,  avg # of iterations =  5.0

     total cpu time spent up to now is      406.3 secs

     total energy              =    -263.53401609 Ry
     Harris-Foulkes estimate   =    -263.53400570 Ry
     estimated scf accuracy    <       0.00000101 Ry

     iteration # 85     ecut=    30.00 Ry     beta=0.70
     Davidson diagonalization with overlap
     ethr =  1.80E-09,  avg # of iterations =  4.0

     total cpu time spent up to now is      406.5 secs

     total energy              =    -263.53401885 Ry
     Harris-Foulkes estimate   =    -263.53401204 Ry
     estimated scf accuracy    <       0.00000571 Ry

     iteration # 86     ecut=    30.00 Ry     beta=0.70
     Davidson diagonalization with overlap
     ethr =  1.80E-09,  avg # of iterations =  4.0

     total cpu time spent up to now is      406.6 secs

     total energy              =    -263.53401036 Ry
     Harris-Foulkes estimate   =    -263.53401845 Ry
     estimated scf accuracy    <       0.00001395 Ry

     iteration # 87     ecut=    30.00 Ry     beta=0.70
     Davidson diagonalization with overlap
     ethr =  1.80E-09,  avg # of iterations =  4.0

     total cpu time spent up to now is      406.7 secs

     total energy              =    -263.53401236 Ry
     Harris-Foulkes estimate   =    -263.53400959 Ry
     estimated scf accuracy    <       0.00000344 Ry

     iteration # 88     ecut=    30.00 Ry     beta=0.70
     Davidson diagonalization with overlap
     ethr =  1.80E-09,  avg # of iterations =  3.0

     total cpu time spent up to now is      406.8 secs

     total energy              =    -263.53401996 Ry
     Harris-Foulkes estimate   =    -263.53401215 Ry
     estimated scf accuracy    <       0.00000583 Ry

     iteration # 89     ecut=    30.00 Ry     beta=0.70
     Davidson diagonalization with overlap
     ethr =  1.80E-09,  avg # of iterations =  4.0

     total cpu time spent up to now is      406.9 secs

     total energy              =    -263.53400943 Ry
     Harris-Foulkes estimate   =    -263.53401951 Ry
     estimated scf accuracy    <       0.00001549 Ry

     iteration # 90     ecut=    30.00 Ry     beta=0.70
     Davidson diagonalization with overlap
     ethr =  1.80E-09,  avg # of iterations =  4.0

     total cpu time spent up to now is      407.0 secs

     total energy              =    -263.53401517 Ry
     Harris-Foulkes estimate   =    -263.53400665 Ry
     estimated scf accuracy    <       0.00000144 Ry

     iteration # 91     ecut=    30.00 Ry     beta=0.70
     Davidson diagonalization with overlap
     ethr =  1.80E-09,  avg # of iterations =  4.0

     total cpu time spent up to now is      407.1 secs

     total energy              =    -263.53400277 Ry
     Harris-Foulkes estimate   =    -263.53399953 Ry
     estimated scf accuracy    <       0.00000351 Ry

     iteration # 92     ecut=    30.00 Ry     beta=0.70
     Davidson diagonalization with overlap
     ethr =  1.80E-09,  avg # of iterations =  3.0

     total cpu time spent up to now is      407.2 secs

     total energy              =    -263.53400050 Ry
     Harris-Foulkes estimate   =    -263.53400168 Ry
     estimated scf accuracy    <       0.00000179 Ry

     iteration # 93     ecut=    30.00 Ry     beta=0.70
     Davidson diagonalization with overlap
     ethr =  1.80E-09,  avg # of iterations =  3.0

     total cpu time spent up to now is      407.3 secs

     total energy              =    -263.53399899 Ry
     Harris-Foulkes estimate   =    -263.53399872 Ry
     estimated scf accuracy    <       0.00000430 Ry

     iteration # 94     ecut=    30.00 Ry     beta=0.70
     Davidson diagonalization with overlap
     ethr =  1.80E-09,  avg # of iterations =  1.0

     total cpu time spent up to now is      407.4 secs

     total energy              =    -263.53399644 Ry
     Harris-Foulkes estimate   =    -263.53399898 Ry
     estimated scf accuracy    <       0.00000394 Ry

     iteration # 95     ecut=    30.00 Ry     beta=0.70
     Davidson diagonalization with overlap
     ethr =  1.80E-09,  avg # of iterations =  4.0

     total cpu time spent up to now is      407.5 secs

     total energy              =    -263.53400420 Ry
     Harris-Foulkes estimate   =    -263.53399172 Ry
     estimated scf accuracy    <       0.00001394 Ry

     iteration # 96     ecut=    30.00 Ry     beta=0.70
     Davidson diagonalization with overlap
     ethr =  1.80E-09,  avg # of iterations =  4.0

     total cpu time spent up to now is      407.6 secs

     total energy              =    -263.53400122 Ry
     Harris-Foulkes estimate   =    -263.53399906 Ry
     estimated scf accuracy    <       0.00000394 Ry

     iteration # 97     ecut=    30.00 Ry     beta=0.70
     Davidson diagonalization with overlap
     ethr =  1.80E-09,  avg # of iterations =  3.0

     total cpu time spent up to now is      407.7 secs

     total energy              =    -263.53400006 Ry
     Harris-Foulkes estimate   =    -263.53400071 Ry
     estimated scf accuracy    <       0.00000249 Ry

     iteration # 98     ecut=    30.00 Ry     beta=0.70
     Davidson diagonalization with overlap
     ethr =  1.80E-09,  avg # of iterations =  2.0

     total cpu time spent up to now is      407.8 secs

     total energy              =    -263.53408508 Ry
     Harris-Foulkes estimate   =    -263.53399996 Ry
     estimated scf accuracy    <       0.00000309 Ry

     iteration # 99     ecut=    30.00 Ry     beta=0.70
     Davidson diagonalization with overlap
     ethr =  1.80E-09,  avg # of iterations =  5.0

     total cpu time spent up to now is      407.9 secs

     total energy              =    -263.53405000 Ry
     Harris-Foulkes estimate   =    -263.53402448 Ry
     estimated scf accuracy    <       0.00002290 Ry

     iteration #100     ecut=    30.00 Ry     beta=0.70
     Davidson diagonalization with overlap
     ethr =  1.80E-09,  avg # of iterations =  5.0

     total cpu time spent up to now is      408.0 secs

     total energy              =    -263.53399024 Ry
     Harris-Foulkes estimate   =    -263.53398960 Ry
     estimated scf accuracy    <       0.00001802 Ry

     End of self-consistent calculation

     convergence NOT achieved after 100 iterations: stopping

     Writing output data file pwscf.save
 
     init_run     :      0.10s CPU      0.39s WALL (       1 calls)
     electrons    :    274.37s CPU    313.78s WALL (     299 calls)
     update_pot   :     39.02s CPU     60.32s WALL (     298 calls)
     forces       :      7.73s CPU      8.30s WALL (     298 calls)

     Called by init_run:
     wfcinit      :      0.04s CPU      0.18s WALL (       1 calls)
     potinit      :      0.02s CPU      0.07s WALL (       1 calls)

     Called by electrons:
     c_bands      :    200.02s CPU    205.56s WALL (    2888 calls)
     sum_band     :     24.84s CPU     26.19s WALL (    2888 calls)
     v_of_rho     :     23.64s CPU     24.69s WALL (    3187 calls)
     mix_rho      :     12.95s CPU     24.25s WALL (    2888 calls)

     Called by c_bands:
     init_us_2    :      2.70s CPU      3.20s WALL (    5777 calls)
     cegterg      :    183.79s CPU    187.52s WALL (    2888 calls)

     Called by sum_band:

     Called by *egterg:
     h_psi        :    134.14s CPU    137.31s WALL (   13009 calls)
     g_psi        :      1.14s CPU      1.17s WALL (   10120 calls)
     cdiaghg      :     22.81s CPU     23.00s WALL (   12710 calls)

     Called by h_psi:
     h_psi:pot    :    133.15s CPU    136.09s WALL (   13009 calls)
     h_psi:calbec :      7.59s CPU      7.84s WALL (   13009 calls)
     vloc_psi     :    120.52s CPU    123.16s WALL (   13009 calls)
     add_vuspsi   :      5.02s CPU      5.04s WALL (   13009 calls)

     General routines
     calbec       :     13.17s CPU     14.81s WALL (   14498 calls)
     fft          :     15.96s CPU     16.81s WALL (   35653 calls)
     fftw         :    133.64s CPU    131.12s WALL (  532922 calls)
     davcio       :      2.44s CPU     10.71s WALL (   31188 calls)
 
     Parallel routines
     fft_scatter  :     55.30s CPU     54.63s WALL (  568575 calls)
 
     PWSCF        :  5m29.20s CPU     6m48.12s WALL

 
   This run was terminated on:   4: 9:40  29Apr2017            

=------------------------------------------------------------------------------=
   JOB DONE.
=------------------------------------------------------------------------------=
