
     Program PWSCF v.6.0 (svn rev. 13079) starts on 18Apr2017 at 21:32:17 

     This program is part of the open-source Quantum ESPRESSO suite
     for quantum simulation of materials; please cite
         "P. Giannozzi et al., J. Phys.:Condens. Matter 21 395502 (2009);
          URL http://www.quantum-espresso.org", 
     in publications or presentations arising from this work. More details at
     http://www.quantum-espresso.org/quote

     Parallel version (MPI), running on    28 processors
     R & G space division:  proc/nbgrp/npool/nimage =      28
     Waiting for input...
     Reading input from standard input

     Current dimensions of program PWSCF are:
     Max number of different atomic species (ntypx) = 10
     Max number of k-points (npk) =  40000
     Max angular momentum in pseudopotentials (lmaxx) =  3

     Subspace diagonalization in iterative solution of the eigenvalue problem:
     a serial algorithm will be used

 
     Parallelization info
     --------------------
     sticks:   dense  smooth     PW     G-vecs:    dense   smooth      PW
     Min         136     136     33                 6338     6338     787
     Max         137     137     34                 6341     6341     792
     Sum        3809    3809    949               177509   177509   22119
 


     bravais-lattice index     =            1
     lattice parameter (alat)  =      20.0000  a.u.
     unit-cell volume          =    8000.0000 (a.u.)^3
     number of atoms/cell      =            2
     number of atomic types    =            1
     number of electrons       =        22.00
     number of Kohn-Sham states=           11
     kinetic-energy cutoff     =      30.0000  Ry
     charge density cutoff     =     120.0000  Ry
     convergence threshold     =      1.0E-08
     mixing beta               =       0.7000
     number of iterations used =            8  plain     mixing
     Exchange-correlation      = BLYP ( 1  3  1  3 0 0)
     nstep                     =          100


     celldm(1)=  20.000000  celldm(2)=   0.000000  celldm(3)=   0.000000
     celldm(4)=   0.000000  celldm(5)=   0.000000  celldm(6)=   0.000000

     crystal axes: (cart. coord. in units of alat)
               a(1) = (   1.000000   0.000000   0.000000 )  
               a(2) = (   0.000000   1.000000   0.000000 )  
               a(3) = (   0.000000   0.000000   1.000000 )  

     reciprocal axes: (cart. coord. in units 2 pi/alat)
               b(1) = (  1.000000  0.000000  0.000000 )  
               b(2) = (  0.000000  1.000000  0.000000 )  
               b(3) = (  0.000000  0.000000  1.000000 )  


     PseudoPot. # 1 for Au read from file:
     ./Au.blyp-d-hgh.UPF
     MD5 check sum: c10d8bae01f806c36a1643a1c69a8479
     Pseudo is Norm-conserving, Zval = 11.0
     Generated in analytical, separable form
     Using radial grid of 1279 points,  6 beta functions with: 
                l(1) =   0
                l(2) =   0
                l(3) =   1
                l(4) =   1
                l(5) =   2
                l(6) =   2

     atomic species   valence    mass     pseudopotential
        Au            11.00    28.08600     Au( 1.00)

     No symmetry found



   Cartesian axes

     site n.     atom                  positions (alat units)
         1           Au  tau(   1) = (   0.0000000   0.0000000   0.0000000  )
         2           Au  tau(   2) = (   0.0000000   0.0000000   0.2000000  )

     number of k points=     1
                       cart. coord. in units 2pi/alat
        k(    1) = (   0.0000000   0.0000000   0.0000000), wk =   2.0000000

     Dense  grid:   177509 G-vectors     FFT dimensions: (  72,  72,  72)

     Estimated max dynamical RAM per process >       6.09Mb

     Estimated total allocated dynamical RAM >     170.64Mb

     Initial potential from superposition of free atoms
     Check: negative starting charge=   -0.006566

     starting charge   21.99976, renormalised to   22.00000

     negative rho (up, down):  6.566E-03 0.000E+00
     Starting wfc are   18 randomized atomic wfcs

     total cpu time spent up to now is        0.4 secs

     per-process dynamical memory:    18.0 Mb

     Self-consistent Calculation

     iteration #  1     ecut=    30.00 Ry     beta=0.70
     Davidson diagonalization with overlap
     ethr =  1.00E-02,  avg # of iterations =  2.0

     Threshold (ethr) on eigenvalues was too large:
     Diagonalizing with lowered threshold

     Davidson diagonalization with overlap
     ethr =  7.82E-04,  avg # of iterations =  2.0

     negative rho (up, down):  1.207E-03 0.000E+00

     total cpu time spent up to now is        0.5 secs

     total energy              =    -131.50640917 Ry
     Harris-Foulkes estimate   =    -131.62186501 Ry
     estimated scf accuracy    <       0.19470465 Ry

     iteration #  2     ecut=    30.00 Ry     beta=0.70
     Davidson diagonalization with overlap
     ethr =  8.85E-04,  avg # of iterations =  5.0

     negative rho (up, down):  5.625E-04 0.000E+00

     total cpu time spent up to now is        0.6 secs

     total energy              =    -131.54493649 Ry
     Harris-Foulkes estimate   =    -131.60812715 Ry
     estimated scf accuracy    <       0.12609194 Ry

     iteration #  3     ecut=    30.00 Ry     beta=0.70
     Davidson diagonalization with overlap
     ethr =  5.73E-04,  avg # of iterations =  2.0

     negative rho (up, down):  2.041E-04 0.000E+00

     total cpu time spent up to now is        0.6 secs

     total energy              =    -131.56589051 Ry
     Harris-Foulkes estimate   =    -131.56812438 Ry
     estimated scf accuracy    <       0.00493168 Ry

     iteration #  4     ecut=    30.00 Ry     beta=0.70
     Davidson diagonalization with overlap
     ethr =  2.24E-05,  avg # of iterations =  5.0

     negative rho (up, down):  1.190E-06 0.000E+00

     total cpu time spent up to now is        0.7 secs

     total energy              =    -131.57255003 Ry
     Harris-Foulkes estimate   =    -131.57418098 Ry
     estimated scf accuracy    <       0.00586555 Ry

     iteration #  5     ecut=    30.00 Ry     beta=0.70
     Davidson diagonalization with overlap
     ethr =  2.24E-05,  avg # of iterations =  2.0

     total cpu time spent up to now is        0.7 secs

     total energy              =    -131.57248430 Ry
     Harris-Foulkes estimate   =    -131.57285243 Ry
     estimated scf accuracy    <       0.00178857 Ry

     iteration #  6     ecut=    30.00 Ry     beta=0.70
     Davidson diagonalization with overlap
     ethr =  8.13E-06,  avg # of iterations =  5.0

     total cpu time spent up to now is        0.7 secs

     total energy              =    -131.57270170 Ry
     Harris-Foulkes estimate   =    -131.57274794 Ry
     estimated scf accuracy    <       0.00020159 Ry

     iteration #  7     ecut=    30.00 Ry     beta=0.70
     Davidson diagonalization with overlap
     ethr =  9.16E-07,  avg # of iterations =  2.0

     total cpu time spent up to now is        0.8 secs

     total energy              =    -131.57270145 Ry
     Harris-Foulkes estimate   =    -131.57272000 Ry
     estimated scf accuracy    <       0.00008251 Ry

     iteration #  8     ecut=    30.00 Ry     beta=0.70
     Davidson diagonalization with overlap
     ethr =  3.75E-07,  avg # of iterations =  5.0

     total cpu time spent up to now is        0.8 secs

     total energy              =    -131.57271199 Ry
     Harris-Foulkes estimate   =    -131.57271300 Ry
     estimated scf accuracy    <       0.00000715 Ry

     iteration #  9     ecut=    30.00 Ry     beta=0.70
     Davidson diagonalization with overlap
     ethr =  3.25E-08,  avg # of iterations =  2.0

     total cpu time spent up to now is        0.8 secs

     total energy              =    -131.57271231 Ry
     Harris-Foulkes estimate   =    -131.57271266 Ry
     estimated scf accuracy    <       0.00000282 Ry

     iteration # 10     ecut=    30.00 Ry     beta=0.70
     Davidson diagonalization with overlap
     ethr =  1.28E-08,  avg # of iterations =  4.0

     total cpu time spent up to now is        0.9 secs

     total energy              =    -131.57271255 Ry
     Harris-Foulkes estimate   =    -131.57271265 Ry
     estimated scf accuracy    <       0.00000067 Ry

     iteration # 11     ecut=    30.00 Ry     beta=0.70
     Davidson diagonalization with overlap
     ethr =  3.07E-09,  avg # of iterations =  1.0

     total cpu time spent up to now is        0.9 secs

     total energy              =    -131.57271235 Ry
     Harris-Foulkes estimate   =    -131.57271257 Ry
     estimated scf accuracy    <       0.00000063 Ry

     iteration # 12     ecut=    30.00 Ry     beta=0.70
     Davidson diagonalization with overlap
     ethr =  2.86E-09,  avg # of iterations =  1.0

     total cpu time spent up to now is        1.0 secs

     total energy              =    -131.57271231 Ry
     Harris-Foulkes estimate   =    -131.57271237 Ry
     estimated scf accuracy    <       0.00000026 Ry

     iteration # 13     ecut=    30.00 Ry     beta=0.70
     Davidson diagonalization with overlap
     ethr =  1.18E-09,  avg # of iterations =  4.0

     total cpu time spent up to now is        1.0 secs

     total energy              =    -131.57271241 Ry
     Harris-Foulkes estimate   =    -131.57271235 Ry
     estimated scf accuracy    <       0.00000003 Ry

     iteration # 14     ecut=    30.00 Ry     beta=0.70
     Davidson diagonalization with overlap
     ethr =  1.30E-10,  avg # of iterations =  2.0

     total cpu time spent up to now is        1.0 secs

     total energy              =    -131.57271244 Ry
     Harris-Foulkes estimate   =    -131.57271241 Ry
     estimated scf accuracy    <       0.00000002 Ry

     iteration # 15     ecut=    30.00 Ry     beta=0.70
     Davidson diagonalization with overlap
     ethr =  9.66E-11,  avg # of iterations =  4.0

     total cpu time spent up to now is        1.1 secs

     End of self-consistent calculation

          k = 0.0000 0.0000 0.0000 ( 22119 PWs)   bands (ev):

   -10.4281  -8.8043  -8.8043  -6.6970  -6.6947  -6.3059  -5.8322  -5.8310
    -5.2501  -5.2501  -5.0311

     highest occupied level (ev):    -5.0311

!    total energy              =    -131.57271244 Ry
     Harris-Foulkes estimate   =    -131.57271245 Ry
     estimated scf accuracy    <          2.3E-09 Ry

     convergence has been achieved in  15 iterations

     Forces acting on atoms (Ry/au):

     atom    1 type  1   force =     0.00000056   -0.00000265   -0.55216770
     atom    2 type  1   force =    -0.00000056    0.00000265    0.55216770

     Total force =     0.780883     Total SCF correction =     0.000210

     Molecular Dynamics Calculation

     Starting temperature  =  1000.00 K

     temperature is controlled by Andersen thermostat
     Collision frequency = 1.0000/timestep
     mass Au               =    28.09
     Time step             =   100.00 a.u.,  4.8378 femto-seconds

     Entering Dynamics:    iteration =     1
                           time      =   0.0048 pico-seconds


     Andersen thermostat:    2 collisions

ATOMIC_POSITIONS (bohr)
Au      -0.033218154   0.061701960  -0.173660871
Au       0.033218154  -0.061701960   4.173660871


     kinetic energy (Ekin) =     0.02365764 Ry
     temperature           =  2490.16130691 K 
     Ekin + Etot (const)   =  -131.54905480 Ry

     Linear momentum :    0.0000000000   -0.0000000000    0.0000000000

     Writing output data file pwscf.save
     Check: negative starting charge=   -0.006566
     NEW-OLD atomic charge density approx. for the potential
     Check: negative starting charge=   -0.006501

     negative rho (up, down):  6.855E-03 0.000E+00

     total cpu time spent up to now is        1.5 secs

     per-process dynamical memory:    20.1 Mb

     Self-consistent Calculation

     iteration #  1     ecut=    30.00 Ry     beta=0.70
     Davidson diagonalization with overlap
     ethr =  1.00E-06,  avg # of iterations = 13.0

     negative rho (up, down):  1.260E-03 0.000E+00

     total cpu time spent up to now is        1.6 secs

     total energy              =    -131.68901787 Ry
     Harris-Foulkes estimate   =    -131.72065849 Ry
     estimated scf accuracy    <       0.00920540 Ry

     iteration #  2     ecut=    30.00 Ry     beta=0.70
     Davidson diagonalization with overlap
     ethr =  4.18E-05,  avg # of iterations =  5.0

     negative rho (up, down):  6.135E-04 0.000E+00

     total cpu time spent up to now is        1.7 secs

     total energy              =    -131.69523823 Ry
     Harris-Foulkes estimate   =    -131.69905174 Ry
     estimated scf accuracy    <       0.00803001 Ry

     iteration #  3     ecut=    30.00 Ry     beta=0.70
     Davidson diagonalization with overlap
     ethr =  3.65E-05,  avg # of iterations =  4.0

     negative rho (up, down):  5.355E-05 0.000E+00

     total cpu time spent up to now is        1.7 secs

     total energy              =    -131.69699366 Ry
     Harris-Foulkes estimate   =    -131.69679664 Ry
     estimated scf accuracy    <       0.00012954 Ry

     iteration #  4     ecut=    30.00 Ry     beta=0.70
     Davidson diagonalization with overlap
     ethr =  5.89E-07,  avg # of iterations =  4.0

     negative rho (up, down):  1.286E-06 0.000E+00

     total cpu time spent up to now is        1.8 secs

     total energy              =    -131.69705982 Ry
     Harris-Foulkes estimate   =    -131.69711311 Ry
     estimated scf accuracy    <       0.00012402 Ry

     iteration #  5     ecut=    30.00 Ry     beta=0.70
     Davidson diagonalization with overlap
     ethr =  5.64E-07,  avg # of iterations =  2.0

     total cpu time spent up to now is        1.8 secs

     total energy              =    -131.69708440 Ry
     Harris-Foulkes estimate   =    -131.69708662 Ry
     estimated scf accuracy    <       0.00000415 Ry

     iteration #  6     ecut=    30.00 Ry     beta=0.70
     Davidson diagonalization with overlap
     ethr =  1.89E-08,  avg # of iterations =  5.0

     total cpu time spent up to now is        1.8 secs

     total energy              =    -131.69708617 Ry
     Harris-Foulkes estimate   =    -131.69708720 Ry
     estimated scf accuracy    <       0.00000282 Ry

     iteration #  7     ecut=    30.00 Ry     beta=0.70
     Davidson diagonalization with overlap
     ethr =  1.28E-08,  avg # of iterations =  3.0

     total cpu time spent up to now is        1.9 secs

     total energy              =    -131.69708650 Ry
     Harris-Foulkes estimate   =    -131.69708669 Ry
     estimated scf accuracy    <       0.00000029 Ry

     iteration #  8     ecut=    30.00 Ry     beta=0.70
     Davidson diagonalization with overlap
     ethr =  1.32E-09,  avg # of iterations =  2.0

     total cpu time spent up to now is        1.9 secs

     total energy              =    -131.69708665 Ry
     Harris-Foulkes estimate   =    -131.69708655 Ry
     estimated scf accuracy    <       0.00000005 Ry

     iteration #  9     ecut=    30.00 Ry     beta=0.70
     Davidson diagonalization with overlap
     ethr =  2.43E-10,  avg # of iterations =  4.0

     total cpu time spent up to now is        2.0 secs

     End of self-consistent calculation

          k = 0.0000 0.0000 0.0000 ( 22119 PWs)   bands (ev):

    -9.3744  -7.8924  -7.8916  -6.3961  -6.3949  -6.0510  -5.8505  -5.8477
    -5.4995  -5.4984  -5.3469

     highest occupied level (ev):    -5.3469

!    total energy              =    -131.69708664 Ry
     Harris-Foulkes estimate   =    -131.69708667 Ry
     estimated scf accuracy    <          7.3E-09 Ry

     convergence has been achieved in   9 iterations

     Forces acting on atoms (Ry/au):

     atom    1 type  1   force =    -0.00257047    0.00508077   -0.20395762
     atom    2 type  1   force =     0.00257047   -0.00508077    0.20395762

     Total force =     0.288552     Total SCF correction =     0.000269

     Entering Dynamics:    iteration =     2
                           time      =   0.0097 pico-seconds


     Andersen thermostat:    2 collisions

ATOMIC_POSITIONS (bohr)
Au      -0.011352608   0.114877932  -0.229754190
Au       0.011352608  -0.114877932   4.229754190


     kinetic energy (Ekin) =     0.01026311 Ry
     temperature           =  1080.27717475 K 
     Ekin + Etot (const)   =  -131.68682353 Ry
     Message from routine dynamics:
     Total linear momentum <> 0

     Linear momentum :    0.2157807124   -0.3671206638    0.4005147980

     Writing output data file pwscf.save

     first order wave-functions extrapolation
     Check: negative starting charge=   -0.006501
     first order charge density extrapolation
     Check: negative starting charge=   -0.006494

     negative rho (up, down):  6.298E-03 0.000E+00

     total cpu time spent up to now is        2.3 secs

     per-process dynamical memory:    20.1 Mb

     Self-consistent Calculation

     iteration #  1     ecut=    30.00 Ry     beta=0.70
     Davidson diagonalization with overlap
     ethr =  1.00E-06,  avg # of iterations =  9.0

     negative rho (up, down):  1.144E-03 0.000E+00

     total cpu time spent up to now is        2.5 secs

     total energy              =    -131.71468540 Ry
     Harris-Foulkes estimate   =    -131.71195354 Ry
     estimated scf accuracy    <       0.00473610 Ry

     iteration #  2     ecut=    30.00 Ry     beta=0.70
     Davidson diagonalization with overlap
     ethr =  2.15E-05,  avg # of iterations =  5.0

     negative rho (up, down):  5.503E-04 0.000E+00

     total cpu time spent up to now is        2.5 secs

     total energy              =    -131.71591130 Ry
     Harris-Foulkes estimate   =    -131.71736700 Ry
     estimated scf accuracy    <       0.00347370 Ry

     iteration #  3     ecut=    30.00 Ry     beta=0.70
     Davidson diagonalization with overlap
     ethr =  1.58E-05,  avg # of iterations =  4.0

     negative rho (up, down):  1.703E-05 0.000E+00

     total cpu time spent up to now is        2.5 secs

     total energy              =    -131.71650685 Ry
     Harris-Foulkes estimate   =    -131.71659957 Ry
     estimated scf accuracy    <       0.00004176 Ry

     iteration #  4     ecut=    30.00 Ry     beta=0.70
     Davidson diagonalization with overlap
     ethr =  1.90E-07,  avg # of iterations =  3.0

     negative rho (up, down):  2.990E-07 0.000E+00

     total cpu time spent up to now is        2.6 secs

     total energy              =    -131.71651923 Ry
     Harris-Foulkes estimate   =    -131.71652879 Ry
     estimated scf accuracy    <       0.00001707 Ry

     iteration #  5     ecut=    30.00 Ry     beta=0.70
     Davidson diagonalization with overlap
     ethr =  7.76E-08,  avg # of iterations =  2.0

     total cpu time spent up to now is        2.6 secs

     total energy              =    -131.71652558 Ry
     Harris-Foulkes estimate   =    -131.71652448 Ry
     estimated scf accuracy    <       0.00000192 Ry

     iteration #  6     ecut=    30.00 Ry     beta=0.70
     Davidson diagonalization with overlap
     ethr =  8.75E-09,  avg # of iterations =  2.0

     total cpu time spent up to now is        2.7 secs

     total energy              =    -131.71652662 Ry
     Harris-Foulkes estimate   =    -131.71652596 Ry
     estimated scf accuracy    <       0.00000005 Ry

     iteration #  7     ecut=    30.00 Ry     beta=0.70
     Davidson diagonalization with overlap
     ethr =  2.34E-10,  avg # of iterations =  5.0

     total cpu time spent up to now is        2.7 secs

     total energy              =    -131.71652680 Ry
     Harris-Foulkes estimate   =    -131.71652665 Ry
     estimated scf accuracy    <       0.00000001 Ry

     iteration #  8     ecut=    30.00 Ry     beta=0.70
     Davidson diagonalization with overlap
     ethr =  6.66E-11,  avg # of iterations =  3.0

     total cpu time spent up to now is        2.7 secs

     End of self-consistent calculation

          k = 0.0000 0.0000 0.0000 ( 22119 PWs)   bands (ev):

    -9.0804  -7.6744  -7.6719  -6.3328  -6.3322  -5.9855  -5.8614  -5.8588
    -5.5655  -5.5632  -5.4433

     highest occupied level (ev):    -5.4433

!    total energy              =    -131.71652685 Ry
     Harris-Foulkes estimate   =    -131.71652680 Ry
     estimated scf accuracy    <          3.0E-09 Ry

     convergence has been achieved in   8 iterations

     Forces acting on atoms (Ry/au):

     atom    1 type  1   force =    -0.00036275    0.00613314   -0.13516626
     atom    2 type  1   force =     0.00036275   -0.00613314    0.13516626

     Total force =     0.191351     Total SCF correction =     0.000246

     Entering Dynamics:    iteration =     3
                           time      =   0.0145 pico-seconds


     Andersen thermostat:    2 collisions

ATOMIC_POSITIONS (bohr)
Au       0.000580442   0.069916341  -0.261378329
Au      -0.000580442  -0.069916341   4.261378329


     kinetic energy (Ekin) =     0.00708017 Ry
     temperature           =   745.24602271 K 
     Ekin + Etot (const)   =  -131.70944668 Ry
     Message from routine dynamics:
     Total linear momentum <> 0

     Linear momentum :   -0.0295440161    0.5187696840    0.1841038737

     Writing output data file pwscf.save

     second order wave-functions extrapolation
     Check: negative starting charge=   -0.006494
     second order charge density extrapolation
     Check: negative starting charge=   -0.006466

     negative rho (up, down):  1.656E-03 0.000E+00

     total cpu time spent up to now is        3.1 secs

     per-process dynamical memory:    20.1 Mb

     Self-consistent Calculation

     iteration #  1     ecut=    30.00 Ry     beta=0.70
     Davidson diagonalization with overlap
     ethr =  1.00E-06,  avg # of iterations =  8.0

     negative rho (up, down):  2.221E-04 0.000E+00

     total cpu time spent up to now is        3.2 secs

     total energy              =    -131.72351722 Ry
     Harris-Foulkes estimate   =    -131.72317180 Ry
     estimated scf accuracy    <       0.00066478 Ry

     iteration #  2     ecut=    30.00 Ry     beta=0.70
     Davidson diagonalization with overlap
     ethr =  3.02E-06,  avg # of iterations =  5.0

     negative rho (up, down):  7.827E-05 0.000E+00

     total cpu time spent up to now is        3.2 secs

     total energy              =    -131.72365011 Ry
     Harris-Foulkes estimate   =    -131.72386805 Ry
     estimated scf accuracy    <       0.00046443 Ry

     iteration #  3     ecut=    30.00 Ry     beta=0.70
     Davidson diagonalization with overlap
     ethr =  2.11E-06,  avg # of iterations =  2.0

     negative rho (up, down):  3.966E-06 0.000E+00

     total cpu time spent up to now is        3.3 secs

     total energy              =    -131.72374492 Ry
     Harris-Foulkes estimate   =    -131.72374245 Ry
     estimated scf accuracy    <       0.00001533 Ry

     iteration #  4     ecut=    30.00 Ry     beta=0.70
     Davidson diagonalization with overlap
     ethr =  6.97E-08,  avg # of iterations =  6.0

     total cpu time spent up to now is        3.3 secs

     total energy              =    -131.72376118 Ry
     Harris-Foulkes estimate   =    -131.72376528 Ry
     estimated scf accuracy    <       0.00001783 Ry

     iteration #  5     ecut=    30.00 Ry     beta=0.70
     Davidson diagonalization with overlap
     ethr =  6.97E-08,  avg # of iterations =  4.0

     total cpu time spent up to now is        3.3 secs

     total energy              =    -131.72376385 Ry
     Harris-Foulkes estimate   =    -131.72376311 Ry
     estimated scf accuracy    <       0.00000233 Ry

     iteration #  6     ecut=    30.00 Ry     beta=0.70
     Davidson diagonalization with overlap
     ethr =  1.06E-08,  avg # of iterations =  4.0

     total cpu time spent up to now is        3.4 secs

     total energy              =    -131.72376398 Ry
     Harris-Foulkes estimate   =    -131.72376409 Ry
     estimated scf accuracy    <       0.00000053 Ry

     iteration #  7     ecut=    30.00 Ry     beta=0.70
     Davidson diagonalization with overlap
     ethr =  2.43E-09,  avg # of iterations =  5.0

     total cpu time spent up to now is        3.4 secs

     total energy              =    -131.72376401 Ry
     Harris-Foulkes estimate   =    -131.72376407 Ry
     estimated scf accuracy    <       0.00000002 Ry

     iteration #  8     ecut=    30.00 Ry     beta=0.70
     Davidson diagonalization with overlap
     ethr =  1.12E-10,  avg # of iterations =  3.0

     total cpu time spent up to now is        3.5 secs

     End of self-consistent calculation

          k = 0.0000 0.0000 0.0000 ( 22119 PWs)   bands (ev):

    -8.9398  -7.5751  -7.5737  -6.3043  -6.3028  -5.9555  -5.8698  -5.8674
    -5.5963  -5.5949  -5.4881

     highest occupied level (ev):    -5.4881

!    total energy              =    -131.72376411 Ry
     Harris-Foulkes estimate   =    -131.72376402 Ry
     estimated scf accuracy    <          3.7E-09 Ry

     convergence has been achieved in   8 iterations

     Forces acting on atoms (Ry/au):

     atom    1 type  1   force =     0.00002225    0.00270556   -0.10581094
     atom    2 type  1   force =    -0.00002225   -0.00270556    0.10581094

     Total force =     0.149688     Total SCF correction =     0.000234

     Entering Dynamics:    iteration =     4
                           time      =   0.0194 pico-seconds


     Andersen thermostat:    2 collisions

ATOMIC_POSITIONS (bohr)
Au       0.008009068   0.037287064  -0.326464497
Au      -0.008009068  -0.037287064   4.326464497


     kinetic energy (Ekin) =     0.01110520 Ry
     temperature           =  1168.91361075 K 
     Ekin + Etot (const)   =  -131.71265891 Ry
     Message from routine dynamics:
     Total linear momentum <> 0

     Linear momentum :    0.6230837174   -0.4619841662    0.4377437848

     Writing output data file pwscf.save

     second order wave-functions extrapolation
     Check: negative starting charge=   -0.006466
     second order charge density extrapolation
     Check: negative starting charge=   -0.006437

     negative rho (up, down):  1.113E-03 0.000E+00

     total cpu time spent up to now is        3.9 secs

     per-process dynamical memory:    20.1 Mb

     Self-consistent Calculation

     iteration #  1     ecut=    30.00 Ry     beta=0.70
     Davidson diagonalization with overlap
     ethr =  1.00E-06,  avg # of iterations =  6.0

     negative rho (up, down):  1.377E-04 0.000E+00

     total cpu time spent up to now is        4.0 secs

     total energy              =    -131.73398135 Ry
     Harris-Foulkes estimate   =    -131.73386803 Ry
     estimated scf accuracy    <       0.00009210 Ry

     iteration #  2     ecut=    30.00 Ry     beta=0.70
     Davidson diagonalization with overlap
     ethr =  4.19E-07,  avg # of iterations =  3.0

     negative rho (up, down):  4.306E-05 0.000E+00

     total cpu time spent up to now is        4.0 secs

     total energy              =    -131.73399107 Ry
     Harris-Foulkes estimate   =    -131.73402651 Ry
     estimated scf accuracy    <       0.00005272 Ry

     iteration #  3     ecut=    30.00 Ry     beta=0.70
     Davidson diagonalization with overlap
     ethr =  2.40E-07,  avg # of iterations =  2.0

     negative rho (up, down):  1.211E-07 0.000E+00

     total cpu time spent up to now is        4.1 secs

     total energy              =    -131.73400921 Ry
     Harris-Foulkes estimate   =    -131.73400430 Ry
     estimated scf accuracy    <       0.00000212 Ry

     iteration #  4     ecut=    30.00 Ry     beta=0.70
     Davidson diagonalization with overlap
     ethr =  9.63E-09,  avg # of iterations =  3.0

     total cpu time spent up to now is        4.1 secs

     total energy              =    -131.73401065 Ry
     Harris-Foulkes estimate   =    -131.73401008 Ry
     estimated scf accuracy    <       0.00000065 Ry

     iteration #  5     ecut=    30.00 Ry     beta=0.70
     Davidson diagonalization with overlap
     ethr =  2.97E-09,  avg # of iterations =  2.0

     total cpu time spent up to now is        4.2 secs

     total energy              =    -131.73401149 Ry
     Harris-Foulkes estimate   =    -131.73401084 Ry
     estimated scf accuracy    <       0.00000006 Ry

     iteration #  6     ecut=    30.00 Ry     beta=0.70
     Davidson diagonalization with overlap
     ethr =  2.78E-10,  avg # of iterations =  3.0

     total cpu time spent up to now is        4.2 secs

     End of self-consistent calculation

          k = 0.0000 0.0000 0.0000 ( 22119 PWs)   bands (ev):

    -8.6649  -7.3864  -7.3859  -6.2534  -6.2513  -5.9000  -5.8865  -5.8847
    -5.6579  -5.6574  -5.5718

     highest occupied level (ev):    -5.5718

!    total energy              =    -131.73401206 Ry
     Harris-Foulkes estimate   =    -131.73401151 Ry
     estimated scf accuracy    <          3.1E-09 Ry

     convergence has been achieved in   6 iterations

     Forces acting on atoms (Ry/au):

     atom    1 type  1   force =     0.00007688    0.00044421   -0.05536585
     atom    2 type  1   force =    -0.00007688   -0.00044421    0.05536585

     Total force =     0.078302     Total SCF correction =     0.000148

     Entering Dynamics:    iteration =     5
                           time      =   0.0242 pico-seconds


     Andersen thermostat:    2 collisions

ATOMIC_POSITIONS (bohr)
Au       0.013246716   0.012753102  -0.355337239
Au      -0.013246716  -0.012753102   4.355337239


     kinetic energy (Ekin) =     0.00467144 Ry
     temperature           =   491.70794966 K 
     Ekin + Etot (const)   =  -131.72934062 Ry
     Message from routine dynamics:
     Total linear momentum <> 0

     Linear momentum :    0.4278264400   -0.3792138390   -0.4900927506

     Writing output data file pwscf.save

     second order wave-functions extrapolation
     Check: negative starting charge=   -0.006437
     second order charge density extrapolation
     Check: negative starting charge=   -0.006435

     negative rho (up, down):  4.954E-04 0.000E+00

     total cpu time spent up to now is        4.5 secs

     per-process dynamical memory:    20.1 Mb

     Self-consistent Calculation

     iteration #  1     ecut=    30.00 Ry     beta=0.70
     Davidson diagonalization with overlap
     ethr =  1.00E-06,  avg # of iterations =  5.0

     Threshold (ethr) on eigenvalues was too large:
     Diagonalizing with lowered threshold

     Davidson diagonalization with overlap
     ethr =  5.74E-08,  avg # of iterations =  4.0

     negative rho (up, down):  4.463E-05 0.000E+00

     total cpu time spent up to now is        4.7 secs

     total energy              =    -131.73665281 Ry
     Harris-Foulkes estimate   =    -131.73665685 Ry
     estimated scf accuracy    <       0.00000939 Ry

     iteration #  2     ecut=    30.00 Ry     beta=0.70
     Davidson diagonalization with overlap
     ethr =  4.27E-08,  avg # of iterations =  3.0

     negative rho (up, down):  4.892E-06 0.000E+00

     total cpu time spent up to now is        4.7 secs

     total energy              =    -131.73665704 Ry
     Harris-Foulkes estimate   =    -131.73665606 Ry
     estimated scf accuracy    <       0.00000264 Ry

     iteration #  3     ecut=    30.00 Ry     beta=0.70
     Davidson diagonalization with overlap
     ethr =  1.20E-08,  avg # of iterations =  3.0

     total cpu time spent up to now is        4.7 secs

     total energy              =    -131.73666294 Ry
     Harris-Foulkes estimate   =    -131.73665809 Ry
     estimated scf accuracy    <       0.00000073 Ry

     iteration #  4     ecut=    30.00 Ry     beta=0.70
     Davidson diagonalization with overlap
     ethr =  3.32E-09,  avg # of iterations =  2.0

     total cpu time spent up to now is        4.8 secs

     total energy              =    -131.73666337 Ry
     Harris-Foulkes estimate   =    -131.73666316 Ry
     estimated scf accuracy    <       0.00000004 Ry

     iteration #  5     ecut=    30.00 Ry     beta=0.70
     Davidson diagonalization with overlap
     ethr =  1.94E-10,  avg # of iterations =  2.0

     total cpu time spent up to now is        4.8 secs

     End of self-consistent calculation

          k = 0.0000 0.0000 0.0000 ( 22119 PWs)   bands (ev):

    -8.5542  -7.3127  -7.3126  -6.2346  -6.2322  -5.8942  -5.8927  -5.8793
    -5.6837  -5.6836  -5.6030

     highest occupied level (ev):    -5.6030

!    total energy              =    -131.73666365 Ry
     Harris-Foulkes estimate   =    -131.73666338 Ry
     estimated scf accuracy    <          1.8E-09 Ry

     convergence has been achieved in   5 iterations

     Forces acting on atoms (Ry/au):

     atom    1 type  1   force =    -0.00001399    0.00002052   -0.03667445
     atom    2 type  1   force =     0.00001399   -0.00002052    0.03667445

     Total force =     0.051866     Total SCF correction =     0.000177

     Entering Dynamics:    iteration =     6
                           time      =   0.0290 pico-seconds


     Andersen thermostat:    2 collisions

ATOMIC_POSITIONS (bohr)
Au      -0.055706933  -0.061341351  -0.374462026
Au       0.055706933   0.061341351   4.374462026


     kinetic energy (Ekin) =     0.03104846 Ry
     temperature           =  3268.10549033 K 
     Ekin + Etot (const)   =  -131.70561519 Ry
     Message from routine dynamics:
     Total linear momentum <> 0

     Linear momentum :    0.7940183398    0.4032504603   -0.5897320736

     Writing output data file pwscf.save

     second order wave-functions extrapolation
     Check: negative starting charge=   -0.006435
     second order charge density extrapolation
     Check: negative starting charge=   -0.006452

     negative rho (up, down):  3.179E-03 0.000E+00

     total cpu time spent up to now is        5.1 secs

     per-process dynamical memory:    20.1 Mb

     Self-consistent Calculation

     iteration #  1     ecut=    30.00 Ry     beta=0.70
     Davidson diagonalization with overlap
     ethr =  1.00E-06,  avg # of iterations =  8.0

     negative rho (up, down):  4.977E-04 0.000E+00

     total cpu time spent up to now is        5.2 secs

     total energy              =    -131.73721669 Ry
     Harris-Foulkes estimate   =    -131.73687697 Ry
     estimated scf accuracy    <       0.00139753 Ry

     iteration #  2     ecut=    30.00 Ry     beta=0.70
     Davidson diagonalization with overlap
     ethr =  6.35E-06,  avg # of iterations =  3.0

     negative rho (up, down):  2.047E-04 0.000E+00

     total cpu time spent up to now is        5.3 secs

     total energy              =    -131.73757495 Ry
     Harris-Foulkes estimate   =    -131.73799262 Ry
     estimated scf accuracy    <       0.00098397 Ry

     iteration #  3     ecut=    30.00 Ry     beta=0.70
     Davidson diagonalization with overlap
     ethr =  4.47E-06,  avg # of iterations =  2.0

     negative rho (up, down):  8.028E-07 0.000E+00

     total cpu time spent up to now is        5.3 secs

     total energy              =    -131.73778347 Ry
     Harris-Foulkes estimate   =    -131.73779136 Ry
     estimated scf accuracy    <       0.00001534 Ry

     iteration #  4     ecut=    30.00 Ry     beta=0.70
     Davidson diagonalization with overlap
     ethr =  6.97E-08,  avg # of iterations =  3.0

     total cpu time spent up to now is        5.4 secs

     total energy              =    -131.73778924 Ry
     Harris-Foulkes estimate   =    -131.73779011 Ry
     estimated scf accuracy    <       0.00000196 Ry

     iteration #  5     ecut=    30.00 Ry     beta=0.70
     Davidson diagonalization with overlap
     ethr =  8.89E-09,  avg # of iterations =  3.0

     total cpu time spent up to now is        5.4 secs

     total energy              =    -131.73778891 Ry
     Harris-Foulkes estimate   =    -131.73778973 Ry
     estimated scf accuracy    <       0.00000059 Ry

     iteration #  6     ecut=    30.00 Ry     beta=0.70
     Davidson diagonalization with overlap
     ethr =  2.70E-09,  avg # of iterations =  4.0

     total cpu time spent up to now is        5.4 secs

     total energy              =    -131.73778861 Ry
     Harris-Foulkes estimate   =    -131.73778907 Ry
     estimated scf accuracy    <       0.00000010 Ry

     iteration #  7     ecut=    30.00 Ry     beta=0.70
     Davidson diagonalization with overlap
     ethr =  4.71E-10,  avg # of iterations =  3.0

     total cpu time spent up to now is        5.5 secs

     End of self-consistent calculation

          k = 0.0000 0.0000 0.0000 ( 22119 PWs)   bands (ev):

    -8.4806  -7.2627  -7.2615  -6.2227  -6.2226  -5.8993  -5.8961  -5.8664
    -5.7015  -5.7010  -5.6239

     highest occupied level (ev):    -5.6239

!    total energy              =    -131.73778854 Ry
     Harris-Foulkes estimate   =    -131.73778863 Ry
     estimated scf accuracy    <          6.9E-09 Ry

     convergence has been achieved in   7 iterations

     Forces acting on atoms (Ry/au):

     atom    1 type  1   force =     0.00055775    0.00055364   -0.02480207
     atom    2 type  1   force =    -0.00055775   -0.00055364    0.02480207

     Total force =     0.035093     Total SCF correction =     0.000258

     Entering Dynamics:    iteration =     7
                           time      =   0.0339 pico-seconds


     Andersen thermostat:    2 collisions

ATOMIC_POSITIONS (bohr)
Au      -0.022175741  -0.053737897  -0.328824526
Au       0.022175741   0.053737897   4.328824526


     kinetic energy (Ekin) =     0.01317373 Ry
     temperature           =  1386.64350191 K 
     Ekin + Etot (const)   =  -131.72461481 Ry
     Message from routine dynamics:
     Total linear momentum <> 0

     Linear momentum :   -0.7202470840    0.6413028313   -0.0591699799

     Writing output data file pwscf.save

     second order wave-functions extrapolation
     Check: negative starting charge=   -0.006452
     second order charge density extrapolation
     Check: negative starting charge=   -0.006447

     negative rho (up, down):  1.069E-03 0.000E+00

     total cpu time spent up to now is        5.8 secs

     per-process dynamical memory:    20.1 Mb

     Self-consistent Calculation

     iteration #  1     ecut=    30.00 Ry     beta=0.70
     Davidson diagonalization with overlap
     ethr =  1.00E-06,  avg # of iterations =  6.0

     negative rho (up, down):  1.181E-04 0.000E+00

     total cpu time spent up to now is        5.9 secs

     total energy              =    -131.73418101 Ry
     Harris-Foulkes estimate   =    -131.73410562 Ry
     estimated scf accuracy    <       0.00031249 Ry

     iteration #  2     ecut=    30.00 Ry     beta=0.70
     Davidson diagonalization with overlap
     ethr =  1.42E-06,  avg # of iterations =  5.0

     negative rho (up, down):  3.586E-05 0.000E+00

     total cpu time spent up to now is        6.0 secs

     total energy              =    -131.73424197 Ry
     Harris-Foulkes estimate   =    -131.73434428 Ry
     estimated scf accuracy    <       0.00021321 Ry

     iteration #  3     ecut=    30.00 Ry     beta=0.70
     Davidson diagonalization with overlap
     ethr =  9.69E-07,  avg # of iterations =  2.0

     negative rho (up, down):  7.019E-07 0.000E+00

     total cpu time spent up to now is        6.0 secs

     total energy              =    -131.73428389 Ry
     Harris-Foulkes estimate   =    -131.73428758 Ry
     estimated scf accuracy    <       0.00000655 Ry

     iteration #  4     ecut=    30.00 Ry     beta=0.70
     Davidson diagonalization with overlap
     ethr =  2.98E-08,  avg # of iterations =  5.0

     total cpu time spent up to now is        6.1 secs

     total energy              =    -131.73428687 Ry
     Harris-Foulkes estimate   =    -131.73429106 Ry
     estimated scf accuracy    <       0.00000690 Ry

     iteration #  5     ecut=    30.00 Ry     beta=0.70
     Davidson diagonalization with overlap
     ethr =  2.98E-08,  avg # of iterations =  2.0

     total cpu time spent up to now is        6.1 secs

     total energy              =    -131.73428681 Ry
     Harris-Foulkes estimate   =    -131.73428756 Ry
     estimated scf accuracy    <       0.00000128 Ry

     iteration #  6     ecut=    30.00 Ry     beta=0.70
     Davidson diagonalization with overlap
     ethr =  5.82E-09,  avg # of iterations =  5.0

     total cpu time spent up to now is        6.2 secs

     total energy              =    -131.73428669 Ry
     Harris-Foulkes estimate   =    -131.73428715 Ry
     estimated scf accuracy    <       0.00000014 Ry

     iteration #  7     ecut=    30.00 Ry     beta=0.70
     Davidson diagonalization with overlap
     ethr =  6.37E-10,  avg # of iterations =  3.0

     total cpu time spent up to now is        6.2 secs

     total energy              =    -131.73428642 Ry
     Harris-Foulkes estimate   =    -131.73428673 Ry
     estimated scf accuracy    <       0.00000003 Ry

     iteration #  8     ecut=    30.00 Ry     beta=0.70
     Davidson diagonalization with overlap
     ethr =  1.39E-10,  avg # of iterations =  2.0

     total cpu time spent up to now is        6.2 secs

     total energy              =    -131.73428618 Ry
     Harris-Foulkes estimate   =    -131.73428642 Ry
     estimated scf accuracy    <       0.00000001 Ry

     iteration #  9     ecut=    30.00 Ry     beta=0.70
     Davidson diagonalization with overlap
     ethr =  4.69E-11,  avg # of iterations =  4.0

     total cpu time spent up to now is        6.3 secs

     End of self-consistent calculation

          k = 0.0000 0.0000 0.0000 ( 22119 PWs)   bands (ev):

    -8.6544  -7.3790  -7.3780  -6.2517  -6.2502  -5.8981  -5.8872  -5.8849
    -5.6604  -5.6596  -5.5753

     highest occupied level (ev):    -5.5753

!    total energy              =    -131.73428615 Ry
     Harris-Foulkes estimate   =    -131.73428618 Ry
     estimated scf accuracy    <          5.9E-10 Ry

     convergence has been achieved in   9 iterations

     Forces acting on atoms (Ry/au):

     atom    1 type  1   force =    -0.00009101   -0.00043601   -0.05325782
     atom    2 type  1   force =     0.00009101    0.00043601    0.05325782

     Total force =     0.075321     Total SCF correction =     0.000062

     Entering Dynamics:    iteration =     8
                           time      =   0.0387 pico-seconds


     Andersen thermostat:    2 collisions

ATOMIC_POSITIONS (bohr)
Au       0.020166732  -0.004987204  -0.348274000
Au      -0.020166732   0.004987204   4.348274000


     kinetic energy (Ekin) =     0.01525488 Ry
     temperature           =  1605.70167023 K 
     Ekin + Etot (const)   =  -131.71903126 Ry
     Message from routine dynamics:
     Total linear momentum <> 0

     Linear momentum :    0.4967223903   -0.8420602181   -0.3961324405

     Writing output data file pwscf.save

     second order wave-functions extrapolation
     Check: negative starting charge=   -0.006447
     second order charge density extrapolation
     Check: negative starting charge=   -0.006435

     negative rho (up, down):  1.239E-04 0.000E+00

     total cpu time spent up to now is        6.6 secs

     per-process dynamical memory:    20.1 Mb

     Self-consistent Calculation

     iteration #  1     ecut=    30.00 Ry     beta=0.70
     Davidson diagonalization with overlap
     ethr =  1.00E-06,  avg # of iterations =  4.0

     negative rho (up, down):  4.394E-06 0.000E+00

     total cpu time spent up to now is        6.8 secs

     total energy              =    -131.73610368 Ry
     Harris-Foulkes estimate   =    -131.73611227 Ry
     estimated scf accuracy    <       0.00002235 Ry

     iteration #  2     ecut=    30.00 Ry     beta=0.70
     Davidson diagonalization with overlap
     ethr =  1.02E-07,  avg # of iterations =  3.0

     negative rho (up, down):  5.809E-07 0.000E+00

     total cpu time spent up to now is        6.8 secs

     total energy              =    -131.73610924 Ry
     Harris-Foulkes estimate   =    -131.73611459 Ry
     estimated scf accuracy    <       0.00001226 Ry

     iteration #  3     ecut=    30.00 Ry     beta=0.70
     Davidson diagonalization with overlap
     ethr =  5.57E-08,  avg # of iterations =  2.0

     total cpu time spent up to now is        6.8 secs

     total energy              =    -131.73611292 Ry
     Harris-Foulkes estimate   =    -131.73611212 Ry
     estimated scf accuracy    <       0.00000036 Ry

     iteration #  4     ecut=    30.00 Ry     beta=0.70
     Davidson diagonalization with overlap
     ethr =  1.65E-09,  avg # of iterations =  3.0

     total cpu time spent up to now is        6.9 secs

     total energy              =    -131.73611305 Ry
     Harris-Foulkes estimate   =    -131.73611304 Ry
     estimated scf accuracy    <       0.00000003 Ry

     iteration #  5     ecut=    30.00 Ry     beta=0.70
     Davidson diagonalization with overlap
     ethr =  1.15E-10,  avg # of iterations =  2.0

     total cpu time spent up to now is        6.9 secs

     End of self-consistent calculation

          k = 0.0000 0.0000 0.0000 ( 22119 PWs)   bands (ev):

    -8.5808  -7.3303  -7.3302  -6.2390  -6.2367  -5.8924  -5.8908  -5.8842
    -5.6775  -5.6773  -5.5957

     highest occupied level (ev):    -5.5957

!    total energy              =    -131.73611314 Ry
     Harris-Foulkes estimate   =    -131.73611306 Ry
     estimated scf accuracy    <          6.6E-09 Ry

     convergence has been achieved in   5 iterations

     Forces acting on atoms (Ry/au):

     atom    1 type  1   force =     0.00002132    0.00000768   -0.04117315
     atom    2 type  1   force =    -0.00002132   -0.00000768    0.04117315

     Total force =     0.058228     Total SCF correction =     0.000408

     Entering Dynamics:    iteration =     9
                           time      =   0.0435 pico-seconds


     Andersen thermostat:    2 collisions

ATOMIC_POSITIONS (bohr)
Au      -0.025816343  -0.039764145  -0.310922148
Au       0.025816343   0.039764145   4.310922148


     kinetic energy (Ekin) =     0.01417024 Ry
     temperature           =  1491.53411556 K 
     Ekin + Etot (const)   =  -131.72194290 Ry
     Message from routine dynamics:
     Total linear momentum <> 0

     Linear momentum :   -0.2855160253   -0.1244761665    0.0404052904

     Writing output data file pwscf.save

     second order wave-functions extrapolation
     Check: negative starting charge=   -0.006435
     second order charge density extrapolation
     Check: negative starting charge=   -0.006443

     negative rho (up, down):  2.935E-04 0.000E+00

     total cpu time spent up to now is        7.2 secs

     per-process dynamical memory:    20.1 Mb

     Self-consistent Calculation

     iteration #  1     ecut=    30.00 Ry     beta=0.70
     Davidson diagonalization with overlap
     ethr =  1.00E-06,  avg # of iterations =  5.0

     negative rho (up, down):  1.842E-05 0.000E+00

     total cpu time spent up to now is        7.4 secs

     total energy              =    -131.73211121 Ry
     Harris-Foulkes estimate   =    -131.73213414 Ry
     estimated scf accuracy    <       0.00006219 Ry

     iteration #  2     ecut=    30.00 Ry     beta=0.70
     Davidson diagonalization with overlap
     ethr =  2.83E-07,  avg # of iterations =  2.0

     negative rho (up, down):  3.274E-06 0.000E+00

     total cpu time spent up to now is        7.4 secs

     total energy              =    -131.73212392 Ry
     Harris-Foulkes estimate   =    -131.73214048 Ry
     estimated scf accuracy    <       0.00003345 Ry

     iteration #  3     ecut=    30.00 Ry     beta=0.70
     Davidson diagonalization with overlap
     ethr =  1.52E-07,  avg # of iterations =  2.0

     total cpu time spent up to now is        7.4 secs

     total energy              =    -131.73213149 Ry
     Harris-Foulkes estimate   =    -131.73213207 Ry
     estimated scf accuracy    <       0.00000088 Ry

     iteration #  4     ecut=    30.00 Ry     beta=0.70
     Davidson diagonalization with overlap
     ethr =  3.99E-09,  avg # of iterations =  3.0

     total cpu time spent up to now is        7.5 secs

     total energy              =    -131.73213146 Ry
     Harris-Foulkes estimate   =    -131.73213177 Ry
     estimated scf accuracy    <       0.00000010 Ry

     iteration #  5     ecut=    30.00 Ry     beta=0.70
     Davidson diagonalization with overlap
     ethr =  4.35E-10,  avg # of iterations =  3.0

     total cpu time spent up to now is        7.5 secs

     total energy              =    -131.73213129 Ry
     Harris-Foulkes estimate   =    -131.73213150 Ry
     estimated scf accuracy    <       0.00000002 Ry

     iteration #  6     ecut=    30.00 Ry     beta=0.70
     Davidson diagonalization with overlap
     ethr =  1.11E-10,  avg # of iterations =  3.0

     total cpu time spent up to now is        7.6 secs

     End of self-consistent calculation

          k = 0.0000 0.0000 0.0000 ( 22119 PWs)   bands (ev):

    -8.7273  -7.4285  -7.4280  -6.2647  -6.2628  -5.9123  -5.8827  -5.8806
    -5.6437  -5.6433  -5.5538

     highest occupied level (ev):    -5.5538

!    total energy              =    -131.73213124 Ry
     Harris-Foulkes estimate   =    -131.73213130 Ry
     estimated scf accuracy    <          4.5E-09 Ry

     convergence has been achieved in   6 iterations

     Forces acting on atoms (Ry/au):

     atom    1 type  1   force =    -0.00041766   -0.00073702   -0.06617277
     atom    2 type  1   force =     0.00041766    0.00073702    0.06617277

     Total force =     0.093590     Total SCF correction =     0.000363

     Entering Dynamics:    iteration =    10
                           time      =   0.0484 pico-seconds


     Andersen thermostat:    2 collisions

ATOMIC_POSITIONS (bohr)
Au      -0.026236696  -0.020986175  -0.335973876
Au       0.026236696   0.020986175   4.335973876


     kinetic energy (Ekin) =     0.00597936 Ry
     temperature           =   629.37692789 K 
     Ekin + Etot (const)   =  -131.72615188 Ry
     Message from routine dynamics:
     Total linear momentum <> 0

     Linear momentum :   -0.0129448289   -0.1719927469    1.0815874811

     Writing output data file pwscf.save

     second order wave-functions extrapolation
     Check: negative starting charge=   -0.006443
     second order charge density extrapolation
     Check: negative starting charge=   -0.006437

     negative rho (up, down):  3.531E-04 0.000E+00

     total cpu time spent up to now is        7.8 secs

     per-process dynamical memory:    20.1 Mb

     Self-consistent Calculation

     iteration #  1     ecut=    30.00 Ry     beta=0.70
     Davidson diagonalization with overlap
     ethr =  1.00E-06,  avg # of iterations =  4.0

     negative rho (up, down):  2.330E-05 0.000E+00

     total cpu time spent up to now is        7.9 secs

     total energy              =    -131.73497628 Ry
     Harris-Foulkes estimate   =    -131.73499574 Ry
     estimated scf accuracy    <       0.00006879 Ry

     iteration #  2     ecut=    30.00 Ry     beta=0.70
     Davidson diagonalization with overlap
     ethr =  3.13E-07,  avg # of iterations =  2.0

     negative rho (up, down):  4.327E-06 0.000E+00

     total cpu time spent up to now is        8.0 secs

     total energy              =    -131.73499150 Ry
     Harris-Foulkes estimate   =    -131.73500908 Ry
     estimated scf accuracy    <       0.00003777 Ry

     iteration #  3     ecut=    30.00 Ry     beta=0.70
     Davidson diagonalization with overlap
     ethr =  1.72E-07,  avg # of iterations =  2.0

     total cpu time spent up to now is        8.0 secs

     total energy              =    -131.73500315 Ry
     Harris-Foulkes estimate   =    -131.73500060 Ry
     estimated scf accuracy    <       0.00000122 Ry

     iteration #  4     ecut=    30.00 Ry     beta=0.70
     Davidson diagonalization with overlap
     ethr =  5.56E-09,  avg # of iterations =  4.0

     total cpu time spent up to now is        8.0 secs

     total energy              =    -131.73500360 Ry
     Harris-Foulkes estimate   =    -131.73500358 Ry
     estimated scf accuracy    <       0.00000015 Ry

     iteration #  5     ecut=    30.00 Ry     beta=0.70
     Davidson diagonalization with overlap
     ethr =  6.68E-10,  avg # of iterations =  4.0

     total cpu time spent up to now is        8.1 secs

     total energy              =    -131.73500380 Ry
     Harris-Foulkes estimate   =    -131.73500365 Ry
     estimated scf accuracy    <       0.00000004 Ry

     iteration #  6     ecut=    30.00 Ry     beta=0.70
     Davidson diagonalization with overlap
     ethr =  1.73E-10,  avg # of iterations =  5.0

     total cpu time spent up to now is        8.1 secs

     End of self-consistent calculation

          k = 0.0000 0.0000 0.0000 ( 22119 PWs)   bands (ev):

    -8.6279  -7.3616  -7.3613  -6.2472  -6.2451  -5.8931  -5.8893  -5.8875
    -5.6666  -5.6664  -5.5827

     highest occupied level (ev):    -5.5827

!    total energy              =    -131.73500384 Ry
     Harris-Foulkes estimate   =    -131.73500381 Ry
     estimated scf accuracy    <          3.3E-09 Ry

     convergence has been achieved in   6 iterations

     Forces acting on atoms (Ry/au):

     atom    1 type  1   force =    -0.00016426   -0.00012563   -0.04905227
     atom    2 type  1   force =     0.00016426    0.00012563    0.04905227

     Total force =     0.069371     Total SCF correction =     0.000247

     Entering Dynamics:    iteration =    11
                           time      =   0.0532 pico-seconds


     Andersen thermostat:    2 collisions

ATOMIC_POSITIONS (bohr)
Au      -0.030761237   0.007966046  -0.312854140
Au       0.030761237  -0.007966046   4.312854140


     kinetic energy (Ekin) =     0.00661552 Ry
     temperature           =   696.33802654 K 
     Ekin + Etot (const)   =  -131.72838831 Ry
     Message from routine dynamics:
     Total linear momentum <> 0

     Linear momentum :    0.4860280975   -0.3677439377   -0.2405243069

     Writing output data file pwscf.save

     second order wave-functions extrapolation
     Check: negative starting charge=   -0.006437
     second order charge density extrapolation
     Check: negative starting charge=   -0.006435

     negative rho (up, down):  8.699E-04 0.000E+00

     total cpu time spent up to now is        8.5 secs

     per-process dynamical memory:    20.1 Mb

     Self-consistent Calculation

     iteration #  1     ecut=    30.00 Ry     beta=0.70
     Davidson diagonalization with overlap
     ethr =  1.00E-06,  avg # of iterations =  7.0

     negative rho (up, down):  9.310E-05 0.000E+00

     total cpu time spent up to now is        8.6 secs

     total energy              =    -131.73227253 Ry
     Harris-Foulkes estimate   =    -131.73224828 Ry
     estimated scf accuracy    <       0.00026413 Ry

     iteration #  2     ecut=    30.00 Ry     beta=0.70
     Davidson diagonalization with overlap
     ethr =  1.20E-06,  avg # of iterations =  5.0

     negative rho (up, down):  2.795E-05 0.000E+00

     total cpu time spent up to now is        8.6 secs

     total energy              =    -131.73232386 Ry
     Harris-Foulkes estimate   =    -131.73241239 Ry
     estimated scf accuracy    <       0.00018405 Ry

     iteration #  3     ecut=    30.00 Ry     beta=0.70
     Davidson diagonalization with overlap
     ethr =  8.37E-07,  avg # of iterations =  2.0

     negative rho (up, down):  3.203E-07 0.000E+00

     total cpu time spent up to now is        8.7 secs

     total energy              =    -131.73236125 Ry
     Harris-Foulkes estimate   =    -131.73236230 Ry
     estimated scf accuracy    <       0.00000480 Ry

     iteration #  4     ecut=    30.00 Ry     beta=0.70
     Davidson diagonalization with overlap
     ethr =  2.18E-08,  avg # of iterations =  6.0

     total cpu time spent up to now is        8.7 secs

     total energy              =    -131.73236448 Ry
     Harris-Foulkes estimate   =    -131.73236679 Ry
     estimated scf accuracy    <       0.00000542 Ry

     iteration #  5     ecut=    30.00 Ry     beta=0.70
     Davidson diagonalization with overlap
     ethr =  2.18E-08,  avg # of iterations =  5.0

     total cpu time spent up to now is        8.8 secs

     total energy              =    -131.73236452 Ry
     Harris-Foulkes estimate   =    -131.73236509 Ry
     estimated scf accuracy    <       0.00000054 Ry

     iteration #  6     ecut=    30.00 Ry     beta=0.70
     Davidson diagonalization with overlap
     ethr =  2.46E-09,  avg # of iterations =  2.0

     total cpu time spent up to now is        8.9 secs

     total energy              =    -131.73236434 Ry
     Harris-Foulkes estimate   =    -131.73236456 Ry
     estimated scf accuracy    <       0.00000018 Ry

     iteration #  7     ecut=    30.00 Ry     beta=0.70
     Davidson diagonalization with overlap
     ethr =  8.19E-10,  avg # of iterations =  5.0

     total cpu time spent up to now is        9.0 secs

     total energy              =    -131.73236441 Ry
     Harris-Foulkes estimate   =    -131.73236443 Ry
     estimated scf accuracy    <       0.00000005 Ry

     iteration #  8     ecut=    30.00 Ry     beta=0.70
     Davidson diagonalization with overlap
     ethr =  2.16E-10,  avg # of iterations =  2.0

     total cpu time spent up to now is        9.0 secs

     total energy              =    -131.73236441 Ry
     Harris-Foulkes estimate   =    -131.73236441 Ry
     estimated scf accuracy    <       0.00000002 Ry

     iteration #  9     ecut=    30.00 Ry     beta=0.70
     Davidson diagonalization with overlap
     ethr =  7.44E-11,  avg # of iterations =  5.0

     total cpu time spent up to now is        9.1 secs

     End of self-consistent calculation

          k = 0.0000 0.0000 0.0000 ( 22119 PWs)   bands (ev):

    -8.7203  -7.4241  -7.4237  -6.2634  -6.2611  -5.9109  -5.8833  -5.8815
    -5.6454  -5.6451  -5.5557

     highest occupied level (ev):    -5.5557

!    total energy              =    -131.73236435 Ry
     Harris-Foulkes estimate   =    -131.73236441 Ry
     estimated scf accuracy    <          4.8E-10 Ry

     convergence has been achieved in   9 iterations

     Forces acting on atoms (Ry/au):

     atom    1 type  1   force =    -0.00056607    0.00014042   -0.06505716
     atom    2 type  1   force =     0.00056607   -0.00014042    0.06505716

     Total force =     0.092008     Total SCF correction =     0.000062

     Entering Dynamics:    iteration =    12
                           time      =   0.0581 pico-seconds


     Andersen thermostat:    2 collisions

ATOMIC_POSITIONS (bohr)
Au      -0.059302297   0.046590145  -0.377652258
Au       0.059302297  -0.046590145   4.377652258


     kinetic energy (Ekin) =     0.01540066 Ry
     temperature           =  1621.04574631 K 
     Ekin + Etot (const)   =  -131.71696369 Ry
     Message from routine dynamics:
     Total linear momentum <> 0

     Linear momentum :    0.2241966325   -0.2411164413   -0.7415982506

     Writing output data file pwscf.save

     second order wave-functions extrapolation
     Check: negative starting charge=   -0.006435
     second order charge density extrapolation
     Check: negative starting charge=   -0.006448

     negative rho (up, down):  1.245E-03 0.000E+00

     total cpu time spent up to now is        9.3 secs

     per-process dynamical memory:    20.1 Mb

     Self-consistent Calculation

     iteration #  1     ecut=    30.00 Ry     beta=0.70
     Davidson diagonalization with overlap
     ethr =  1.00E-06,  avg # of iterations =  6.0

     negative rho (up, down):  1.577E-04 0.000E+00

     total cpu time spent up to now is        9.5 secs

     total energy              =    -131.73788757 Ry
     Harris-Foulkes estimate   =    -131.73770476 Ry
     estimated scf accuracy    <       0.00018397 Ry

     iteration #  2     ecut=    30.00 Ry     beta=0.70
     Davidson diagonalization with overlap
     ethr =  8.36E-07,  avg # of iterations =  3.0

     negative rho (up, down):  5.049E-05 0.000E+00

     total cpu time spent up to now is        9.5 secs

     total energy              =    -131.73792130 Ry
     Harris-Foulkes estimate   =    -131.73797940 Ry
     estimated scf accuracy    <       0.00011296 Ry

     iteration #  3     ecut=    30.00 Ry     beta=0.70
     Davidson diagonalization with overlap
     ethr =  5.13E-07,  avg # of iterations =  2.0

     negative rho (up, down):  7.929E-08 0.000E+00

     total cpu time spent up to now is        9.5 secs

     total energy              =    -131.73795201 Ry
     Harris-Foulkes estimate   =    -131.73794826 Ry
     estimated scf accuracy    <       0.00000272 Ry

     iteration #  4     ecut=    30.00 Ry     beta=0.70
     Davidson diagonalization with overlap
     ethr =  1.24E-08,  avg # of iterations =  2.0

     total cpu time spent up to now is        9.6 secs

     total energy              =    -131.73795389 Ry
     Harris-Foulkes estimate   =    -131.73795304 Ry
     estimated scf accuracy    <       0.00000054 Ry

     iteration #  5     ecut=    30.00 Ry     beta=0.70
     Davidson diagonalization with overlap
     ethr =  2.44E-09,  avg # of iterations =  2.0

     total cpu time spent up to now is        9.6 secs

     total energy              =    -131.73795467 Ry
     Harris-Foulkes estimate   =    -131.73795409 Ry
     estimated scf accuracy    <       0.00000011 Ry

     iteration #  6     ecut=    30.00 Ry     beta=0.70
     Davidson diagonalization with overlap
     ethr =  5.20E-10,  avg # of iterations =  4.0

     total cpu time spent up to now is        9.7 secs

     total energy              =    -131.73795484 Ry
     Harris-Foulkes estimate   =    -131.73795471 Ry
     estimated scf accuracy    <       0.00000001 Ry

     iteration #  7     ecut=    30.00 Ry     beta=0.70
     Davidson diagonalization with overlap
     ethr =  5.57E-11,  avg # of iterations =  5.0

     total cpu time spent up to now is        9.7 secs

     End of self-consistent calculation

          k = 0.0000 0.0000 0.0000 ( 22119 PWs)   bands (ev):

    -8.4698  -7.2558  -7.2546  -6.2207  -6.2203  -5.8999  -5.8971  -5.8644
    -5.7040  -5.7033  -5.6264

     highest occupied level (ev):    -5.6264

!    total energy              =    -131.73795486 Ry
     Harris-Foulkes estimate   =    -131.73795484 Ry
     estimated scf accuracy    <          1.1E-09 Ry

     convergence has been achieved in   7 iterations

     Forces acting on atoms (Ry/au):

     atom    1 type  1   force =     0.00055966   -0.00053590   -0.02317715
     atom    2 type  1   force =    -0.00055966    0.00053590    0.02317715

     Total force =     0.032796     Total SCF correction =     0.000116

     Entering Dynamics:    iteration =    13
                           time      =   0.0629 pico-seconds


     Andersen thermostat:    2 collisions

ATOMIC_POSITIONS (bohr)
Au      -0.006824687   0.008677307  -0.421246181
Au       0.006824687  -0.008677307   4.421246181


     kinetic energy (Ekin) =     0.01893088 Ry
     temperature           =  1992.63060686 K 
     Ekin + Etot (const)   =  -131.71902398 Ry
     Message from routine dynamics:
     Total linear momentum <> 0

     Linear momentum :    0.5261231637   -0.0751357972   -0.9108536673

     Writing output data file pwscf.save

     second order wave-functions extrapolation
     Check: negative starting charge=   -0.006448
     second order charge density extrapolation
     Check: negative starting charge=   -0.006420

     negative rho (up, down):  1.410E-03 0.000E+00

     total cpu time spent up to now is       10.0 secs

     per-process dynamical memory:    20.1 Mb

     Self-consistent Calculation

     iteration #  1     ecut=    30.00 Ry     beta=0.70
     Davidson diagonalization with overlap
     ethr =  1.00E-06,  avg # of iterations =  6.0

     negative rho (up, down):  1.765E-04 0.000E+00

     total cpu time spent up to now is       10.1 secs

     total energy              =    -131.73895319 Ry
     Harris-Foulkes estimate   =    -131.73867350 Ry
     estimated scf accuracy    <       0.00040117 Ry

     iteration #  2     ecut=    30.00 Ry     beta=0.70
     Davidson diagonalization with overlap
     ethr =  1.82E-06,  avg # of iterations =  3.0

     negative rho (up, down):  5.908E-05 0.000E+00

     total cpu time spent up to now is       10.1 secs

     total energy              =    -131.73902954 Ry
     Harris-Foulkes estimate   =    -131.73916131 Ry
     estimated scf accuracy    <       0.00026589 Ry

     iteration #  3     ecut=    30.00 Ry     beta=0.70
     Davidson diagonalization with overlap
     ethr =  1.21E-06,  avg # of iterations =  2.0

     negative rho (up, down):  6.189E-08 0.000E+00

     total cpu time spent up to now is       10.2 secs

     total energy              =    -131.73909178 Ry
     Harris-Foulkes estimate   =    -131.73908871 Ry
     estimated scf accuracy    <       0.00000461 Ry

     iteration #  4     ecut=    30.00 Ry     beta=0.70
     Davidson diagonalization with overlap
     ethr =  2.09E-08,  avg # of iterations =  3.0

     total cpu time spent up to now is       10.2 secs

     total energy              =    -131.73909389 Ry
     Harris-Foulkes estimate   =    -131.73909370 Ry
     estimated scf accuracy    <       0.00000077 Ry

     iteration #  5     ecut=    30.00 Ry     beta=0.70
     Davidson diagonalization with overlap
     ethr =  3.50E-09,  avg # of iterations =  2.0

     total cpu time spent up to now is       10.3 secs

     total energy              =    -131.73909397 Ry
     Harris-Foulkes estimate   =    -131.73909410 Ry
     estimated scf accuracy    <       0.00000021 Ry

     iteration #  6     ecut=    30.00 Ry     beta=0.70
     Davidson diagonalization with overlap
     ethr =  9.70E-10,  avg # of iterations =  2.0

     total cpu time spent up to now is       10.3 secs

     total energy              =    -131.73909407 Ry
     Harris-Foulkes estimate   =    -131.73909401 Ry
     estimated scf accuracy    <       0.00000002 Ry

     iteration #  7     ecut=    30.00 Ry     beta=0.70
     Davidson diagonalization with overlap
     ethr =  9.16E-11,  avg # of iterations =  4.0

     total cpu time spent up to now is       10.3 secs

     End of self-consistent calculation

          k = 0.0000 0.0000 0.0000 ( 22119 PWs)   bands (ev):

    -8.3233  -7.1624  -7.1623  -6.1981  -6.1958  -5.9112  -5.9100  -5.8397
    -5.7401  -5.7401  -5.6613

     highest occupied level (ev):    -5.6613

!    total energy              =    -131.73909417 Ry
     Harris-Foulkes estimate   =    -131.73909408 Ry
     estimated scf accuracy    <          6.1E-09 Ry

     convergence has been achieved in   7 iterations

     Forces acting on atoms (Ry/au):

     atom    1 type  1   force =     0.00005809   -0.00006493   -0.00263223
     atom    2 type  1   force =    -0.00005809    0.00006493    0.00263223

     Total force =     0.003725     Total SCF correction =     0.000273

     Entering Dynamics:    iteration =    14
                           time      =   0.0677 pico-seconds


     Andersen thermostat:    2 collisions

ATOMIC_POSITIONS (bohr)
Au      -0.058133169  -0.010041357  -0.382494193
Au       0.058133169   0.010041357   4.382494193


     kinetic energy (Ekin) =     0.01183313 Ry
     temperature           =  1245.53396695 K 
     Ekin + Etot (const)   =  -131.72726104 Ry
     Message from routine dynamics:
     Total linear momentum <> 0

     Linear momentum :    0.1240413246    0.0200880211   -0.2186656619

     Writing output data file pwscf.save

     second order wave-functions extrapolation
     Check: negative starting charge=   -0.006420
     second order charge density extrapolation
     Check: negative starting charge=   -0.006441

     negative rho (up, down):  1.072E-03 0.000E+00

     total cpu time spent up to now is       10.7 secs

     per-process dynamical memory:    20.1 Mb

     Self-consistent Calculation

     iteration #  1     ecut=    30.00 Ry     beta=0.70
     Davidson diagonalization with overlap
     ethr =  1.00E-06,  avg # of iterations =  6.0

     negative rho (up, down):  1.189E-04 0.000E+00

     total cpu time spent up to now is       10.8 secs

     total energy              =    -131.73807957 Ry
     Harris-Foulkes estimate   =    -131.73799617 Ry
     estimated scf accuracy    <       0.00033738 Ry

     iteration #  2     ecut=    30.00 Ry     beta=0.70
     Davidson diagonalization with overlap
     ethr =  1.53E-06,  avg # of iterations =  2.0

     negative rho (up, down):  3.504E-05 0.000E+00

     total cpu time spent up to now is       10.8 secs

     total energy              =    -131.73814460 Ry
     Harris-Foulkes estimate   =    -131.73825294 Ry
     estimated scf accuracy    <       0.00021887 Ry

     iteration #  3     ecut=    30.00 Ry     beta=0.70
     Davidson diagonalization with overlap
     ethr =  9.95E-07,  avg # of iterations =  2.0

     total cpu time spent up to now is       10.9 secs

     total energy              =    -131.73819384 Ry
     Harris-Foulkes estimate   =    -131.73819453 Ry
     estimated scf accuracy    <       0.00000340 Ry

     iteration #  4     ecut=    30.00 Ry     beta=0.70
     Davidson diagonalization with overlap
     ethr =  1.55E-08,  avg # of iterations =  4.0

     total cpu time spent up to now is       10.9 secs

     total energy              =    -131.73819502 Ry
     Harris-Foulkes estimate   =    -131.73819532 Ry
     estimated scf accuracy    <       0.00000049 Ry

     iteration #  5     ecut=    30.00 Ry     beta=0.70
     Davidson diagonalization with overlap
     ethr =  2.25E-09,  avg # of iterations =  4.0

     total cpu time spent up to now is       10.9 secs

     total energy              =    -131.73819483 Ry
     Harris-Foulkes estimate   =    -131.73819517 Ry
     estimated scf accuracy    <       0.00000018 Ry

     iteration #  6     ecut=    30.00 Ry     beta=0.70
     Davidson diagonalization with overlap
     ethr =  8.09E-10,  avg # of iterations =  3.0

     total cpu time spent up to now is       11.0 secs

     total energy              =    -131.73819498 Ry
     Harris-Foulkes estimate   =    -131.73819489 Ry
     estimated scf accuracy    <       0.00000002 Ry

     iteration #  7     ecut=    30.00 Ry     beta=0.70
     Davidson diagonalization with overlap
     ethr =  9.21E-11,  avg # of iterations =  4.0

     total cpu time spent up to now is       11.0 secs

     End of self-consistent calculation

          k = 0.0000 0.0000 0.0000 ( 22119 PWs)   bands (ev):

    -8.4536  -7.2460  -7.2446  -6.2182  -6.2168  -5.9010  -5.8990  -5.8615
    -5.7081  -5.7069  -5.6300

     highest occupied level (ev):    -5.6300

!    total energy              =    -131.73819506 Ry
     Harris-Foulkes estimate   =    -131.73819498 Ry
     estimated scf accuracy    <          7.8E-10 Ry

     convergence has been achieved in   7 iterations

     Forces acting on atoms (Ry/au):

     atom    1 type  1   force =     0.00041945    0.00013759   -0.02068810
     atom    2 type  1   force =    -0.00041945   -0.00013759    0.02068810

     Total force =     0.029264     Total SCF correction =     0.000079

     Entering Dynamics:    iteration =    15
                           time      =   0.0726 pico-seconds


     Andersen thermostat:    2 collisions

ATOMIC_POSITIONS (bohr)
Au      -0.080889574   0.009821963  -0.393701736
Au       0.080889574  -0.009821963   4.393701736


     kinetic energy (Ekin) =     0.00554742 Ry
     temperature           =   583.91174037 K 
     Ekin + Etot (const)   =  -131.73264763 Ry
     Message from routine dynamics:
     Total linear momentum <> 0

     Linear momentum :    0.5103945162    0.6544555228    0.3129776385

     Writing output data file pwscf.save

     second order wave-functions extrapolation
     Check: negative starting charge=   -0.006441
     second order charge density extrapolation
     Check: negative starting charge=   -0.006443

     negative rho (up, down):  4.001E-04 0.000E+00

     total cpu time spent up to now is       11.3 secs

     per-process dynamical memory:    20.1 Mb

     Self-consistent Calculation

     iteration #  1     ecut=    30.00 Ry     beta=0.70
     Davidson diagonalization with overlap
     ethr =  1.00E-06,  avg # of iterations =  6.0

     negative rho (up, down):  2.886E-05 0.000E+00

     total cpu time spent up to now is       11.4 secs

     total energy              =    -131.73853786 Ry
     Harris-Foulkes estimate   =    -131.73855623 Ry
     estimated scf accuracy    <       0.00008286 Ry

     iteration #  2     ecut=    30.00 Ry     beta=0.70
     Davidson diagonalization with overlap
     ethr =  3.77E-07,  avg # of iterations =  5.0

     negative rho (up, down):  6.687E-06 0.000E+00

     total cpu time spent up to now is       11.5 secs

     total energy              =    -131.73855560 Ry
     Harris-Foulkes estimate   =    -131.73857935 Ry
     estimated scf accuracy    <       0.00005553 Ry

     iteration #  3     ecut=    30.00 Ry     beta=0.70
     Davidson diagonalization with overlap
     ethr =  2.52E-07,  avg # of iterations =  2.0

     negative rho (up, down):  1.087E-07 0.000E+00

     total cpu time spent up to now is       11.5 secs

     total energy              =    -131.73857075 Ry
     Harris-Foulkes estimate   =    -131.73856826 Ry
     estimated scf accuracy    <       0.00000250 Ry

     iteration #  4     ecut=    30.00 Ry     beta=0.70
     Davidson diagonalization with overlap
     ethr =  1.14E-08,  avg # of iterations =  5.0

     total cpu time spent up to now is       11.6 secs

     total energy              =    -131.73857277 Ry
     Harris-Foulkes estimate   =    -131.73857285 Ry
     estimated scf accuracy    <       0.00000180 Ry

     iteration #  5     ecut=    30.00 Ry     beta=0.70
     Davidson diagonalization with overlap
     ethr =  8.18E-09,  avg # of iterations =  2.0

     total cpu time spent up to now is       11.6 secs

     total energy              =    -131.73857297 Ry
     Harris-Foulkes estimate   =    -131.73857299 Ry
     estimated scf accuracy    <       0.00000030 Ry

     iteration #  6     ecut=    30.00 Ry     beta=0.70
     Davidson diagonalization with overlap
     ethr =  1.34E-09,  avg # of iterations =  5.0

     total cpu time spent up to now is       11.6 secs

     total energy              =    -131.73857313 Ry
     Harris-Foulkes estimate   =    -131.73857306 Ry
     estimated scf accuracy    <       0.00000003 Ry

     iteration #  7     ecut=    30.00 Ry     beta=0.70
     Davidson diagonalization with overlap
     ethr =  1.35E-10,  avg # of iterations =  3.0

     total cpu time spent up to now is       11.7 secs

     End of self-consistent calculation

          k = 0.0000 0.0000 0.0000 ( 22119 PWs)   bands (ev):

    -8.4129  -7.2191  -7.2167  -6.2119  -6.2111  -5.9035  -5.9012  -5.8546
    -5.7185  -5.7167  -5.6407

     highest occupied level (ev):    -5.6407

!    total energy              =    -131.73857327 Ry
     Harris-Foulkes estimate   =    -131.73857314 Ry
     estimated scf accuracy    <          5.9E-09 Ry

     convergence has been achieved in   7 iterations

     Forces acting on atoms (Ry/au):

     atom    1 type  1   force =     0.00052916   -0.00017067   -0.01494408
     atom    2 type  1   force =    -0.00052916    0.00017067    0.01494408

     Total force =     0.021149     Total SCF correction =     0.000145

     Entering Dynamics:    iteration =    16
                           time      =   0.0774 pico-seconds


     Andersen thermostat:    2 collisions

ATOMIC_POSITIONS (bohr)
Au      -0.131846190  -0.000763149  -0.456720269
Au       0.131846190   0.000763149   4.456720269


     kinetic energy (Ekin) =     0.01922390 Ry
     temperature           =  2023.47291736 K 
     Ekin + Etot (const)   =  -131.71934938 Ry
     Message from routine dynamics:
     Total linear momentum <> 0

     Linear momentum :   -0.5024919690    0.6016775328   -0.3978064397

     Writing output data file pwscf.save

     second order wave-functions extrapolation
     Check: negative starting charge=   -0.006443
     second order charge density extrapolation
     Check: negative starting charge=   -0.006399

     negative rho (up, down):  1.995E-03 0.000E+00

     total cpu time spent up to now is       12.0 secs

     per-process dynamical memory:    20.1 Mb

     Self-consistent Calculation

     iteration #  1     ecut=    30.00 Ry     beta=0.70
     Davidson diagonalization with overlap
     ethr =  1.00E-06,  avg # of iterations =  7.0

     negative rho (up, down):  2.843E-04 0.000E+00

     total cpu time spent up to now is       12.2 secs

     total energy              =    -131.73838059 Ry
     Harris-Foulkes estimate   =    -131.73765275 Ry
     estimated scf accuracy    <       0.00066213 Ry

     iteration #  2     ecut=    30.00 Ry     beta=0.70
     Davidson diagonalization with overlap
     ethr =  3.01E-06,  avg # of iterations =  4.0

     negative rho (up, down):  1.098E-04 0.000E+00

     total cpu time spent up to now is       12.3 secs

     total energy              =    -131.73850598 Ry
     Harris-Foulkes estimate   =    -131.73873852 Ry
     estimated scf accuracy    <       0.00050169 Ry

     iteration #  3     ecut=    30.00 Ry     beta=0.70
     Davidson diagonalization with overlap
     ethr =  2.28E-06,  avg # of iterations =  2.0

     negative rho (up, down):  4.713E-06 0.000E+00

     total cpu time spent up to now is       12.3 secs

     total energy              =    -131.73861470 Ry
     Harris-Foulkes estimate   =    -131.73861188 Ry
     estimated scf accuracy    <       0.00001740 Ry

     iteration #  4     ecut=    30.00 Ry     beta=0.70
     Davidson diagonalization with overlap
     ethr =  7.91E-08,  avg # of iterations =  5.0

     total cpu time spent up to now is       12.4 secs

     total energy              =    -131.73863020 Ry
     Harris-Foulkes estimate   =    -131.73863234 Ry
     estimated scf accuracy    <       0.00001571 Ry

     iteration #  5     ecut=    30.00 Ry     beta=0.70
     Davidson diagonalization with overlap
     ethr =  7.14E-08,  avg # of iterations =  2.0

     total cpu time spent up to now is       12.4 secs

     total energy              =    -131.73863159 Ry
     Harris-Foulkes estimate   =    -131.73863186 Ry
     estimated scf accuracy    <       0.00000306 Ry

     iteration #  6     ecut=    30.00 Ry     beta=0.70
     Davidson diagonalization with overlap
     ethr =  1.39E-08,  avg # of iterations =  5.0

     total cpu time spent up to now is       12.4 secs

     total energy              =    -131.73863262 Ry
     Harris-Foulkes estimate   =    -131.73863234 Ry
     estimated scf accuracy    <       0.00000040 Ry

     iteration #  7     ecut=    30.00 Ry     beta=0.70
     Davidson diagonalization with overlap
     ethr =  1.82E-09,  avg # of iterations =  3.0

     total cpu time spent up to now is       12.5 secs

     total energy              =    -131.73863310 Ry
     Harris-Foulkes estimate   =    -131.73863268 Ry
     estimated scf accuracy    <       0.00000012 Ry

     iteration #  8     ecut=    30.00 Ry     beta=0.70
     Davidson diagonalization with overlap
     ethr =  5.34E-10,  avg # of iterations =  2.0

     total cpu time spent up to now is       12.5 secs

     total energy              =    -131.73863328 Ry
     Harris-Foulkes estimate   =    -131.73863311 Ry
     estimated scf accuracy    <       0.00000005 Ry

     iteration #  9     ecut=    30.00 Ry     beta=0.70
     Davidson diagonalization with overlap
     ethr =  2.05E-10,  avg # of iterations =  4.0

     total cpu time spent up to now is       12.6 secs

     End of self-consistent calculation

          k = 0.0000 0.0000 0.0000 ( 22119 PWs)   bands (ev):

    -8.2023  -7.0836  -7.0800  -6.1823  -6.1821  -5.9178  -5.9156  -5.8211
    -5.7725  -5.7710  -5.6890

[...]
     ethr =  2.04E-09,  avg # of iterations =  2.0

     total cpu time spent up to now is       73.9 secs

     total energy              =    -131.73898162 Ry
     Harris-Foulkes estimate   =    -131.73898171 Ry
     estimated scf accuracy    <       0.00000002 Ry

     iteration #  6     ecut=    30.00 Ry     beta=0.70
     Davidson diagonalization with overlap
     ethr =  8.64E-11,  avg # of iterations =  4.0

     total cpu time spent up to now is       74.0 secs

     End of self-consistent calculation

          k = 0.0000 0.0000 0.0000 ( 22119 PWs)   bands (ev):

    -8.2909  -7.1328  -7.1298  -6.2019  -6.1985  -5.9055  -5.8983  -5.8342
    -5.7555  -5.7513  -5.6662

     highest occupied level (ev):    -5.6662

!    total energy              =    -131.73898150 Ry
     Harris-Foulkes estimate   =    -131.73898163 Ry
     estimated scf accuracy    <          9.3E-09 Ry

     convergence has been achieved in   6 iterations

     Forces acting on atoms (Ry/au):

     atom    1 type  1   force =    -0.00128107   -0.00089439    0.00170876
     atom    2 type  1   force =     0.00128107    0.00089439   -0.00170876

     Total force =     0.003274     Total SCF correction =     0.000168

     Entering Dynamics:    iteration =    96
                           time      =   0.4644 pico-seconds


     Andersen thermostat:    2 collisions

ATOMIC_POSITIONS (bohr)
Au       0.335411006   0.123767140  -0.406700777
Au      -0.335411006  -0.123767140   4.406700777


     kinetic energy (Ekin) =     0.00617118 Ry
     temperature           =   649.56756829 K 
     Ekin + Etot (const)   =  -131.73281031 Ry
     Message from routine dynamics:
     Total linear momentum <> 0

     Linear momentum :    0.8271648410   -0.4596294407   -0.2018563740

     Writing output data file pwscf.save

     second order wave-functions extrapolation
     Check: negative starting charge=   -0.006408
     second order charge density extrapolation
     Check: negative starting charge=   -0.006408

     negative rho (up, down):  1.761E-04 0.000E+00

     total cpu time spent up to now is       74.4 secs

     per-process dynamical memory:    20.1 Mb

     Self-consistent Calculation

     iteration #  1     ecut=    30.00 Ry     beta=0.70
     Davidson diagonalization with overlap
     ethr =  1.00E-06,  avg # of iterations =  4.0

     Threshold (ethr) on eigenvalues was too large:
     Diagonalizing with lowered threshold

     Davidson diagonalization with overlap
     ethr =  2.58E-08,  avg # of iterations =  3.0

     negative rho (up, down):  8.935E-06 0.000E+00

     total cpu time spent up to now is       74.5 secs

     total energy              =    -131.73901358 Ry
     Harris-Foulkes estimate   =    -131.73901303 Ry
     estimated scf accuracy    <       0.00000652 Ry

     iteration #  2     ecut=    30.00 Ry     beta=0.70
     Davidson diagonalization with overlap
     ethr =  2.96E-08,  avg # of iterations =  3.0

     negative rho (up, down):  1.037E-06 0.000E+00

     total cpu time spent up to now is       74.6 secs

     total energy              =    -131.73901663 Ry
     Harris-Foulkes estimate   =    -131.73901623 Ry
     estimated scf accuracy    <       0.00000299 Ry

     iteration #  3     ecut=    30.00 Ry     beta=0.70
     Davidson diagonalization with overlap
     ethr =  1.36E-08,  avg # of iterations =  2.0

     total cpu time spent up to now is       74.6 secs

     total energy              =    -131.73901997 Ry
     Harris-Foulkes estimate   =    -131.73901747 Ry
     estimated scf accuracy    <       0.00000020 Ry

     iteration #  4     ecut=    30.00 Ry     beta=0.70
     Davidson diagonalization with overlap
     ethr =  8.99E-10,  avg # of iterations =  2.0

     total cpu time spent up to now is       74.7 secs

     End of self-consistent calculation

          k = 0.0000 0.0000 0.0000 ( 22119 PWs)   bands (ev):

    -8.2911  -7.1330  -7.1302  -6.2024  -6.1987  -5.9039  -5.8996  -5.8343
    -5.7557  -5.7506  -5.6660

     highest occupied level (ev):    -5.6660

!    total energy              =    -131.73902049 Ry
     Harris-Foulkes estimate   =    -131.73902005 Ry
     estimated scf accuracy    <          6.7E-09 Ry

     convergence has been achieved in   4 iterations

     Forces acting on atoms (Ry/au):

     atom    1 type  1   force =    -0.00122913   -0.00043698    0.00168337
     atom    2 type  1   force =     0.00122913    0.00043698   -0.00168337

     Total force =     0.003012     Total SCF correction =     0.000182

     Entering Dynamics:    iteration =    97
                           time      =   0.4693 pico-seconds


     Andersen thermostat:    2 collisions

ATOMIC_POSITIONS (bohr)
Au       0.259892730   0.132624508  -0.379500946
Au      -0.259892730  -0.132624508   4.379500946


     kinetic energy (Ekin) =     0.02066302 Ry
     temperature           =  2174.95216726 K 
     Ekin + Etot (const)   =  -131.71835748 Ry
     Message from routine dynamics:
     Total linear momentum <> 0

     Linear momentum :    0.8802429248    0.4989032336   -0.1635016500

     Writing output data file pwscf.save

     second order wave-functions extrapolation
     Check: negative starting charge=   -0.006408
     second order charge density extrapolation
     Check: negative starting charge=   -0.006442

     negative rho (up, down):  1.308E-03 0.000E+00

     total cpu time spent up to now is       75.0 secs

     per-process dynamical memory:    20.1 Mb

     Self-consistent Calculation

     iteration #  1     ecut=    30.00 Ry     beta=0.70
     Davidson diagonalization with overlap
     ethr =  1.00E-06,  avg # of iterations =  5.0

     negative rho (up, down):  1.733E-04 0.000E+00

     total cpu time spent up to now is       75.1 secs

     total energy              =    -131.73859760 Ry
     Harris-Foulkes estimate   =    -131.73831404 Ry
     estimated scf accuracy    <       0.00005659 Ry

     iteration #  2     ecut=    30.00 Ry     beta=0.70
     Davidson diagonalization with overlap
     ethr =  2.57E-07,  avg # of iterations =  4.0

     negative rho (up, down):  5.436E-05 0.000E+00

     total cpu time spent up to now is       75.2 secs

     total energy              =    -131.73860796 Ry
     Harris-Foulkes estimate   =    -131.73862523 Ry
     estimated scf accuracy    <       0.00003129 Ry

     iteration #  3     ecut=    30.00 Ry     beta=0.70
     Davidson diagonalization with overlap
     ethr =  1.42E-07,  avg # of iterations =  2.0

     negative rho (up, down):  4.143E-07 0.000E+00

     total cpu time spent up to now is       75.2 secs

     total energy              =    -131.73861745 Ry
     Harris-Foulkes estimate   =    -131.73861519 Ry
     estimated scf accuracy    <       0.00000195 Ry

     iteration #  4     ecut=    30.00 Ry     beta=0.70
     Davidson diagonalization with overlap
     ethr =  8.84E-09,  avg # of iterations =  5.0

     total cpu time spent up to now is       75.3 secs

     total energy              =    -131.73861943 Ry
     Harris-Foulkes estimate   =    -131.73861935 Ry
     estimated scf accuracy    <       0.00000179 Ry

     iteration #  5     ecut=    30.00 Ry     beta=0.70
     Davidson diagonalization with overlap
     ethr =  8.13E-09,  avg # of iterations =  2.0

     total cpu time spent up to now is       75.3 secs

     total energy              =    -131.73861988 Ry
     Harris-Foulkes estimate   =    -131.73861960 Ry
     estimated scf accuracy    <       0.00000040 Ry

     iteration #  6     ecut=    30.00 Ry     beta=0.70
     Davidson diagonalization with overlap
     ethr =  1.82E-09,  avg # of iterations =  5.0

     total cpu time spent up to now is       75.3 secs

     total energy              =    -131.73862000 Ry
     Harris-Foulkes estimate   =    -131.73861999 Ry
     estimated scf accuracy    <       0.00000003 Ry

     iteration #  7     ecut=    30.00 Ry     beta=0.70
     Davidson diagonalization with overlap
     ethr =  1.39E-10,  avg # of iterations =  3.0

     total cpu time spent up to now is       75.4 secs

     End of self-consistent calculation

          k = 0.0000 0.0000 0.0000 ( 22119 PWs)   bands (ev):

    -8.4097  -7.2106  -7.2078  -6.2193  -6.2160  -5.8942  -5.8929  -5.8534
    -5.7251  -5.7195  -5.6389

     highest occupied level (ev):    -5.6389

!    total energy              =    -131.73862014 Ry
     Harris-Foulkes estimate   =    -131.73862001 Ry
     estimated scf accuracy    <          4.1E-09 Ry

     convergence has been achieved in   7 iterations

     Forces acting on atoms (Ry/au):

     atom    1 type  1   force =     0.00221606    0.00068615   -0.01399928
     atom    2 type  1   force =    -0.00221606   -0.00068615    0.01399928

     Total force =     0.020068     Total SCF correction =     0.000149

     Entering Dynamics:    iteration =    98
                           time      =   0.4741 pico-seconds


     Andersen thermostat:    2 collisions

ATOMIC_POSITIONS (bohr)
Au       0.225067211   0.100999059  -0.396162441
Au      -0.225067211  -0.100999059   4.396162441


     kinetic energy (Ekin) =     0.00882894 Ry
     temperature           =   929.31811133 K 
     Ekin + Etot (const)   =  -131.72979120 Ry
     Message from routine dynamics:
     Total linear momentum <> 0

     Linear momentum :   -0.2553704910   -0.6907350490    0.3391977928

     Writing output data file pwscf.save

     second order wave-functions extrapolation
     Check: negative starting charge=   -0.006442
     second order charge density extrapolation
     Check: negative starting charge=   -0.006440

     negative rho (up, down):  1.144E-03 0.000E+00

     total cpu time spent up to now is       75.6 secs

     per-process dynamical memory:    20.1 Mb

     Self-consistent Calculation

     iteration #  1     ecut=    30.00 Ry     beta=0.70
     Davidson diagonalization with overlap
     ethr =  1.00E-06,  avg # of iterations =  7.0

     negative rho (up, down):  1.351E-04 0.000E+00

     total cpu time spent up to now is       75.7 secs

     total energy              =    -131.73872235 Ry
     Harris-Foulkes estimate   =    -131.73859411 Ry
     estimated scf accuracy    <       0.00033627 Ry

     iteration #  2     ecut=    30.00 Ry     beta=0.70
     Davidson diagonalization with overlap
     ethr =  1.53E-06,  avg # of iterations =  4.0

     negative rho (up, down):  4.215E-05 0.000E+00

     total cpu time spent up to now is       75.8 secs

     total energy              =    -131.73878816 Ry
     Harris-Foulkes estimate   =    -131.73889721 Ry
     estimated scf accuracy    <       0.00022726 Ry

     iteration #  3     ecut=    30.00 Ry     beta=0.70
     Davidson diagonalization with overlap
     ethr =  1.03E-06,  avg # of iterations =  2.0

     negative rho (up, down):  3.114E-07 0.000E+00

     total cpu time spent up to now is       75.8 secs

     total energy              =    -131.73884060 Ry
     Harris-Foulkes estimate   =    -131.73883763 Ry
     estimated scf accuracy    <       0.00000584 Ry

     iteration #  4     ecut=    30.00 Ry     beta=0.70
     Davidson diagonalization with overlap
     ethr =  2.65E-08,  avg # of iterations =  5.0

     total cpu time spent up to now is       75.9 secs

     total energy              =    -131.73884447 Ry
     Harris-Foulkes estimate   =    -131.73884602 Ry
     estimated scf accuracy    <       0.00000497 Ry

     iteration #  5     ecut=    30.00 Ry     beta=0.70
     Davidson diagonalization with overlap
     ethr =  2.26E-08,  avg # of iterations =  5.0

     total cpu time spent up to now is       75.9 secs

     total energy              =    -131.73884537 Ry
     Harris-Foulkes estimate   =    -131.73884511 Ry
     estimated scf accuracy    <       0.00000040 Ry

     iteration #  6     ecut=    30.00 Ry     beta=0.70
     Davidson diagonalization with overlap
     ethr =  1.82E-09,  avg # of iterations =  2.0

     total cpu time spent up to now is       76.0 secs

     total energy              =    -131.73884555 Ry
     Harris-Foulkes estimate   =    -131.73884542 Ry
     estimated scf accuracy    <       0.00000011 Ry

     iteration #  7     ecut=    30.00 Ry     beta=0.70
     Davidson diagonalization with overlap
     ethr =  5.10E-10,  avg # of iterations =  5.0

     total cpu time spent up to now is       76.0 secs

     End of self-consistent calculation

          k = 0.0000 0.0000 0.0000 ( 22119 PWs)   bands (ev):

    -8.3701  -7.1857  -7.1838  -6.2123  -6.2091  -5.8994  -5.8971  -5.8471
    -5.7337  -5.7294  -5.6491

     highest occupied level (ev):    -5.6491

!    total energy              =    -131.73884571 Ry
     Harris-Foulkes estimate   =    -131.73884559 Ry
     estimated scf accuracy    <          3.6E-09 Ry

     convergence has been achieved in   7 iterations

     Forces acting on atoms (Ry/au):

     atom    1 type  1   force =     0.00219372   -0.00057327   -0.00865404
     atom    2 type  1   force =    -0.00219372    0.00057327    0.00865404

     Total force =     0.012652     Total SCF correction =     0.000262

     Entering Dynamics:    iteration =    99
                           time      =   0.4789 pico-seconds


     Andersen thermostat:    2 collisions

ATOMIC_POSITIONS (bohr)
Au       0.193007020   0.060267361  -0.438743054
Au      -0.193007020  -0.060267361   4.438743054


     kinetic energy (Ekin) =     0.01294632 Ry
     temperature           =  1362.70618039 K 
     Ekin + Etot (const)   =  -131.72589940 Ry
     Message from routine dynamics:
     Total linear momentum <> 0

     Linear momentum :   -0.5224438035    0.1464092395   -0.3887827411

     Writing output data file pwscf.save

     second order wave-functions extrapolation
     Check: negative starting charge=   -0.006440
     second order charge density extrapolation
     Check: negative starting charge=   -0.006400

     negative rho (up, down):  7.244E-04 0.000E+00

     total cpu time spent up to now is       76.3 secs

     per-process dynamical memory:    20.1 Mb

     Self-consistent Calculation

     iteration #  1     ecut=    30.00 Ry     beta=0.70
     Davidson diagonalization with overlap
     ethr =  1.00E-06,  avg # of iterations =  4.0

     negative rho (up, down):  7.688E-05 0.000E+00

     total cpu time spent up to now is       76.4 secs

     total energy              =    -131.73886993 Ry
     Harris-Foulkes estimate   =    -131.73885158 Ry
     estimated scf accuracy    <       0.00004167 Ry

     iteration #  2     ecut=    30.00 Ry     beta=0.70
     Davidson diagonalization with overlap
     ethr =  1.89E-07,  avg # of iterations =  3.0

     negative rho (up, down):  1.856E-05 0.000E+00

     total cpu time spent up to now is       76.4 secs

     total energy              =    -131.73887990 Ry
     Harris-Foulkes estimate   =    -131.73888833 Ry
     estimated scf accuracy    <       0.00002029 Ry

     iteration #  3     ecut=    30.00 Ry     beta=0.70
     Davidson diagonalization with overlap
     ethr =  9.22E-08,  avg # of iterations =  2.0

     negative rho (up, down):  4.561E-08 0.000E+00

     total cpu time spent up to now is       76.5 secs

     total energy              =    -131.73889211 Ry
     Harris-Foulkes estimate   =    -131.73888570 Ry
     estimated scf accuracy    <       0.00000180 Ry

     iteration #  4     ecut=    30.00 Ry     beta=0.70
     Davidson diagonalization with overlap
     ethr =  8.17E-09,  avg # of iterations =  2.0

     total cpu time spent up to now is       76.5 secs

     total energy              =    -131.73889412 Ry
     Harris-Foulkes estimate   =    -131.73889283 Ry
     estimated scf accuracy    <       0.00000046 Ry

     iteration #  5     ecut=    30.00 Ry     beta=0.70
     Davidson diagonalization with overlap
     ethr =  2.10E-09,  avg # of iterations =  2.0

     total cpu time spent up to now is       76.6 secs

     total energy              =    -131.73889489 Ry
     Harris-Foulkes estimate   =    -131.73889424 Ry
     estimated scf accuracy    <       0.00000002 Ry

     iteration #  6     ecut=    30.00 Ry     beta=0.70
     Davidson diagonalization with overlap
     ethr =  8.28E-11,  avg # of iterations =  5.0

     total cpu time spent up to now is       76.6 secs

     End of self-consistent calculation

          k = 0.0000 0.0000 0.0000 ( 22119 PWs)   bands (ev):

    -8.2448  -7.1077  -7.1047  -6.1917  -6.1897  -5.9114  -5.9081  -5.8273
    -5.7636  -5.7615  -5.6781

     highest occupied level (ev):    -5.6781

!    total energy              =    -131.73889520 Ry
     Harris-Foulkes estimate   =    -131.73889491 Ry
     estimated scf accuracy    <          5.3E-09 Ry

     convergence has been achieved in   6 iterations

     Forces acting on atoms (Ry/au):

     atom    1 type  1   force =     0.00079779   -0.00128237    0.00705311
     atom    2 type  1   force =    -0.00079779    0.00128237   -0.00705311

     Total force =     0.010201     Total SCF correction =     0.000187

     Entering Dynamics:    iteration =   100
                           time      =   0.4838 pico-seconds


     Andersen thermostat:    2 collisions

ATOMIC_POSITIONS (bohr)
Au       0.142081102   0.018190052  -0.433442472
Au      -0.142081102  -0.018190052   4.433442472


     kinetic energy (Ekin) =     0.01373542 Ry
     temperature           =  1445.76533257 K 
     Ekin + Etot (const)   =  -131.72515978 Ry
     Message from routine dynamics:
     Total linear momentum <> 0

     Linear momentum :   -0.5720122500   -0.3109321250   -0.4751882412

     The maximum number of steps has been reached.

     End of molecular dynamics calculation

     diffusion coefficients :
     atom     1   D =       0.00000201 cm^2/s
     atom     2   D =       0.00000201 cm^2/s

     < D > =       0.00000201 cm^2/s

     Writing output data file pwscf.save
 
     init_run     :      0.07s CPU      0.20s WALL (       1 calls)
     electrons    :     34.15s CPU     45.84s WALL (     100 calls)
     update_pot   :     12.62s CPU     20.46s WALL (      99 calls)
     forces       :      2.14s CPU      2.37s WALL (     100 calls)

     Called by init_run:
     wfcinit      :      0.03s CPU      0.07s WALL (       1 calls)
     potinit      :      0.00s CPU      0.02s WALL (       1 calls)

     Called by electrons:
     c_bands      :     19.48s CPU     21.28s WALL (     710 calls)
     sum_band     :      2.70s CPU      2.87s WALL (     710 calls)
     v_of_rho     :      5.51s CPU      6.06s WALL (     788 calls)
     mix_rho      :      2.55s CPU      4.70s WALL (     710 calls)

     Called by c_bands:
     init_us_2    :      0.40s CPU      0.46s WALL (    1421 calls)
     cegterg      :     17.47s CPU     18.64s WALL (     710 calls)

     Called by sum_band:

     Called by *egterg:
     h_psi        :     14.21s CPU     15.21s WALL (    3291 calls)
     g_psi        :      0.09s CPU      0.12s WALL (    2580 calls)
     cdiaghg      :      1.26s CPU      1.30s WALL (    3169 calls)

     Called by h_psi:
     h_psi:pot    :     14.17s CPU     15.13s WALL (    3291 calls)
     h_psi:calbec :      1.01s CPU      1.35s WALL (    3291 calls)
     vloc_psi     :     12.85s CPU     13.43s WALL (    3291 calls)
     add_vuspsi   :      0.31s CPU      0.33s WALL (    3291 calls)

     General routines
     calbec       :      2.32s CPU      2.95s WALL (    3789 calls)
     fft          :      4.31s CPU      4.77s WALL (    8911 calls)
     fftw         :     13.98s CPU     14.14s WALL (   59690 calls)
     davcio       :      0.49s CPU      1.87s WALL (    5749 calls)
 
     Parallel routines
     fft_scatter  :      7.39s CPU      8.22s WALL (   68601 calls)
 
     PWSCF        :  0m51.58s CPU     1m16.81s WALL

 
   This run was terminated on:  21:33:34  18Apr2017            

=------------------------------------------------------------------------------=
   JOB DONE.
=------------------------------------------------------------------------------=
