
     Program PWSCF v.6.0 (svn rev. 13079) starts on 18Jun2017 at  7:44:23 

     This program is part of the open-source Quantum ESPRESSO suite
     for quantum simulation of materials; please cite
         "P. Giannozzi et al., J. Phys.:Condens. Matter 21 395502 (2009);
          URL http://www.quantum-espresso.org", 
     in publications or presentations arising from this work. More details at
     http://www.quantum-espresso.org/quote

     Parallel version (MPI), running on    28 processors
     R & G space division:  proc/nbgrp/npool/nimage =      28
     Waiting for input...
     Reading input from standard input

     Current dimensions of program PWSCF are:
     Max number of different atomic species (ntypx) = 10
     Max number of k-points (npk) =  40000
     Max angular momentum in pseudopotentials (lmaxx) =  3

     Subspace diagonalization in iterative solution of the eigenvalue problem:
     a serial algorithm will be used

 
     Parallelization info
     --------------------
     sticks:   dense  smooth     PW     G-vecs:    dense   smooth      PW
     Min         136     136     33                 6338     6338     787
     Max         137     137     34                 6341     6341     792
     Sum        3809    3809    949               177509   177509   22119
 


     bravais-lattice index     =            1
     lattice parameter (alat)  =      20.0000  a.u.
     unit-cell volume          =    8000.0000 (a.u.)^3
     number of atoms/cell      =            4
     number of atomic types    =            1
     number of electrons       =        44.00
     number of Kohn-Sham states=           26
     kinetic-energy cutoff     =      30.0000  Ry
     charge density cutoff     =     120.0000  Ry
     convergence threshold     =      1.0E-08
     mixing beta               =       0.7000
     number of iterations used =            8  plain     mixing
     Exchange-correlation      = BLYP ( 1  3  1  3 0 0)
     nstep                     =         1000


     celldm(1)=  20.000000  celldm(2)=   0.000000  celldm(3)=   0.000000
     celldm(4)=   0.000000  celldm(5)=   0.000000  celldm(6)=   0.000000

     crystal axes: (cart. coord. in units of alat)
               a(1) = (   1.000000   0.000000   0.000000 )  
               a(2) = (   0.000000   1.000000   0.000000 )  
               a(3) = (   0.000000   0.000000   1.000000 )  

     reciprocal axes: (cart. coord. in units 2 pi/alat)
               b(1) = (  1.000000  0.000000  0.000000 )  
               b(2) = (  0.000000  1.000000  0.000000 )  
               b(3) = (  0.000000  0.000000  1.000000 )  


     PseudoPot. # 1 for Au read from file:
     ./Au.blyp-d-hgh.UPF
     MD5 check sum: c10d8bae01f806c36a1643a1c69a8479
     Pseudo is Norm-conserving, Zval = 11.0
     Generated in analytical, separable form
     Using radial grid of 1279 points,  6 beta functions with: 
                l(1) =   0
                l(2) =   0
                l(3) =   1
                l(4) =   1
                l(5) =   2
                l(6) =   2

     atomic species   valence    mass     pseudopotential
        Au            11.00    28.08600     Au( 1.00)

     No symmetry found



   Cartesian axes

     site n.     atom                  positions (alat units)
         1           Au  tau(   1) = (   0.0000000   0.0000000   0.0000000  )
         2           Au  tau(   2) = (   0.0000000   0.4000000   0.4000000  )
         3           Au  tau(   3) = (   0.4000000   0.4000000   0.0000000  )
         4           Au  tau(   4) = (   0.4000000   0.4000000   0.4000000  )

     number of k points=     1  Marzari-Vanderbilt smearing, width (Ry)=  0.0250
                       cart. coord. in units 2pi/alat
        k(    1) = (   0.0000000   0.0000000   0.0000000), wk =   2.0000000

     Dense  grid:   177509 G-vectors     FFT dimensions: (  72,  72,  72)

     Estimated max dynamical RAM per process >       6.09Mb

     Estimated total allocated dynamical RAM >     170.64Mb

     Initial potential from superposition of free atoms
     Check: negative starting charge=   -0.003322

     starting charge   43.99952, renormalised to   44.00000

     negative rho (up, down):  3.322E-03 0.000E+00
     Starting wfc are   36 randomized atomic wfcs

     total cpu time spent up to now is        0.6 secs

     per-process dynamical memory:    20.3 Mb

     Self-consistent Calculation

     iteration #  1     ecut=    30.00 Ry     beta=0.70
     Davidson diagonalization with overlap
     ethr =  1.00E-02,  avg # of iterations =  2.0

     Threshold (ethr) on eigenvalues was too large:
     Diagonalizing with lowered threshold

     Davidson diagonalization with overlap
     ethr =  3.47E-04,  avg # of iterations =  2.0

     negative rho (up, down):  3.960E-04 0.000E+00

     total cpu time spent up to now is        0.9 secs

     total energy              =    -263.09228347 Ry
     Harris-Foulkes estimate   =    -263.16657592 Ry
     estimated scf accuracy    <       0.13215981 Ry

     iteration #  2     ecut=    30.00 Ry     beta=0.70
     Davidson diagonalization with overlap
     ethr =  3.00E-04,  avg # of iterations =  3.0

     negative rho (up, down):  3.216E-04 0.000E+00

     total cpu time spent up to now is        1.1 secs

     total energy              =    -262.79516995 Ry
     Harris-Foulkes estimate   =    -263.44812863 Ry
     estimated scf accuracy    <       6.62865211 Ry

     iteration #  3     ecut=    30.00 Ry     beta=0.70
     Davidson diagonalization with overlap
     ethr =  3.00E-04,  avg # of iterations =  3.0

     negative rho (up, down):  2.535E-04 0.000E+00

     total cpu time spent up to now is        1.2 secs

     total energy              =    -262.85704362 Ry
     Harris-Foulkes estimate   =    -263.40604220 Ry
     estimated scf accuracy    <       5.17997932 Ry

     iteration #  4     ecut=    30.00 Ry     beta=0.70
     Davidson diagonalization with overlap
     ethr =  3.00E-04,  avg # of iterations =  2.0

     negative rho (up, down):  1.998E-04 0.000E+00

     total cpu time spent up to now is        1.3 secs

     total energy              =    -262.99141938 Ry
     Harris-Foulkes estimate   =    -263.54620783 Ry
     estimated scf accuracy    <       7.62187436 Ry

     iteration #  5     ecut=    30.00 Ry     beta=0.70
     Davidson diagonalization with overlap
     ethr =  3.00E-04,  avg # of iterations =  3.0

     negative rho (up, down):  1.222E-04 0.000E+00

     total cpu time spent up to now is        1.4 secs

     total energy              =    -263.16146303 Ry
     Harris-Foulkes estimate   =    -263.17198110 Ry
     estimated scf accuracy    <       0.09247048 Ry

     iteration #  6     ecut=    30.00 Ry     beta=0.70
     Davidson diagonalization with overlap
     ethr =  2.10E-04,  avg # of iterations =  1.0

     negative rho (up, down):  2.103E-06 0.000E+00

     total cpu time spent up to now is        1.4 secs

     total energy              =    -263.16518855 Ry
     Harris-Foulkes estimate   =    -263.19540473 Ry
     estimated scf accuracy    <       1.01485273 Ry

     iteration #  7     ecut=    30.00 Ry     beta=0.70
     Davidson diagonalization with overlap
     ethr =  2.10E-04,  avg # of iterations =  1.0

     total cpu time spent up to now is        1.5 secs

     total energy              =    -263.16519566 Ry
     Harris-Foulkes estimate   =    -263.17126006 Ry
     estimated scf accuracy    <       0.15367845 Ry

     iteration #  8     ecut=    30.00 Ry     beta=0.70
     Davidson diagonalization with overlap
     ethr =  2.10E-04,  avg # of iterations =  1.0

     total cpu time spent up to now is        1.6 secs

     total energy              =    -263.16665399 Ry
     Harris-Foulkes estimate   =    -263.16908235 Ry
     estimated scf accuracy    <       0.11908653 Ry

     iteration #  9     ecut=    30.00 Ry     beta=0.70
     Davidson diagonalization with overlap
     ethr =  2.10E-04,  avg # of iterations =  1.0

     total cpu time spent up to now is        1.7 secs

     total energy              =    -263.16652244 Ry
     Harris-Foulkes estimate   =    -263.16696705 Ry
     estimated scf accuracy    <       0.06166174 Ry

     iteration # 10     ecut=    30.00 Ry     beta=0.70
     Davidson diagonalization with overlap
     ethr =  1.40E-04,  avg # of iterations =  1.0

     total cpu time spent up to now is        1.7 secs

     total energy              =    -263.16473897 Ry
     Harris-Foulkes estimate   =    -263.16657082 Ry
     estimated scf accuracy    <       0.04539847 Ry

     iteration # 11     ecut=    30.00 Ry     beta=0.70
     Davidson diagonalization with overlap
     ethr =  1.03E-04,  avg # of iterations =  1.0

     total cpu time spent up to now is        1.8 secs

     total energy              =    -263.16580818 Ry
     Harris-Foulkes estimate   =    -263.16599263 Ry
     estimated scf accuracy    <       0.01412671 Ry

     iteration # 12     ecut=    30.00 Ry     beta=0.70
     Davidson diagonalization with overlap
     ethr =  3.21E-05,  avg # of iterations =  1.0

     total cpu time spent up to now is        1.9 secs

     total energy              =    -263.16547816 Ry
     Harris-Foulkes estimate   =    -263.16600076 Ry
     estimated scf accuracy    <       0.01316133 Ry

     iteration # 13     ecut=    30.00 Ry     beta=0.70
     Davidson diagonalization with overlap
     ethr =  2.99E-05,  avg # of iterations =  1.0

     total cpu time spent up to now is        1.9 secs

     total energy              =    -263.16565528 Ry
     Harris-Foulkes estimate   =    -263.16593769 Ry
     estimated scf accuracy    <       0.00808735 Ry

     iteration # 14     ecut=    30.00 Ry     beta=0.70
     Davidson diagonalization with overlap
     ethr =  1.84E-05,  avg # of iterations =  1.0

     total cpu time spent up to now is        2.0 secs

     total energy              =    -263.16579736 Ry
     Harris-Foulkes estimate   =    -263.16581188 Ry
     estimated scf accuracy    <       0.00043395 Ry

     iteration # 15     ecut=    30.00 Ry     beta=0.70
     Davidson diagonalization with overlap
     ethr =  9.86E-07,  avg # of iterations =  1.0

     total cpu time spent up to now is        2.1 secs

     total energy              =    -263.16580246 Ry
     Harris-Foulkes estimate   =    -263.16581373 Ry
     estimated scf accuracy    <       0.00011419 Ry

     iteration # 16     ecut=    30.00 Ry     beta=0.70
     Davidson diagonalization with overlap
     ethr =  2.60E-07,  avg # of iterations =  1.0

     total cpu time spent up to now is        2.1 secs

     total energy              =    -263.16580977 Ry
     Harris-Foulkes estimate   =    -263.16581372 Ry
     estimated scf accuracy    <       0.00021005 Ry

     iteration # 17     ecut=    30.00 Ry     beta=0.70
     Davidson diagonalization with overlap
     ethr =  2.60E-07,  avg # of iterations =  1.0

     total cpu time spent up to now is        2.2 secs

     total energy              =    -263.16580669 Ry
     Harris-Foulkes estimate   =    -263.16581330 Ry
     estimated scf accuracy    <       0.00017185 Ry

     iteration # 18     ecut=    30.00 Ry     beta=0.70
     Davidson diagonalization with overlap
     ethr =  2.60E-07,  avg # of iterations =  1.0

     total cpu time spent up to now is        2.3 secs

     total energy              =    -263.16581057 Ry
     Harris-Foulkes estimate   =    -263.16581073 Ry
     estimated scf accuracy    <       0.00000415 Ry

     iteration # 19     ecut=    30.00 Ry     beta=0.70
     Davidson diagonalization with overlap
     ethr =  9.44E-09,  avg # of iterations =  1.0

     total cpu time spent up to now is        2.3 secs

     total energy              =    -263.16581070 Ry
     Harris-Foulkes estimate   =    -263.16581078 Ry
     estimated scf accuracy    <       0.00000176 Ry

     iteration # 20     ecut=    30.00 Ry     beta=0.70
     Davidson diagonalization with overlap
     ethr =  4.00E-09,  avg # of iterations =  1.0

     total cpu time spent up to now is        2.4 secs

     total energy              =    -263.16581078 Ry
     Harris-Foulkes estimate   =    -263.16581083 Ry
     estimated scf accuracy    <       0.00000068 Ry

     iteration # 21     ecut=    30.00 Ry     beta=0.70
     Davidson diagonalization with overlap
     ethr =  1.55E-09,  avg # of iterations =  1.0

     total cpu time spent up to now is        2.5 secs

     total energy              =    -263.16581080 Ry
     Harris-Foulkes estimate   =    -263.16581085 Ry
     estimated scf accuracy    <       0.00000040 Ry

     iteration # 22     ecut=    30.00 Ry     beta=0.70
     Davidson diagonalization with overlap
     ethr =  9.18E-10,  avg # of iterations =  1.0

     total cpu time spent up to now is        2.5 secs

     total energy              =    -263.16581082 Ry
     Harris-Foulkes estimate   =    -263.16581082 Ry
     estimated scf accuracy    <       0.00000008 Ry

     iteration # 23     ecut=    30.00 Ry     beta=0.70
     Davidson diagonalization with overlap
     ethr =  1.83E-10,  avg # of iterations =  3.0

     total cpu time spent up to now is        2.6 secs

     total energy              =    -263.16581080 Ry
     Harris-Foulkes estimate   =    -263.16581084 Ry
     estimated scf accuracy    <       0.00000075 Ry

     iteration # 24     ecut=    30.00 Ry     beta=0.70
     Davidson diagonalization with overlap
     ethr =  1.83E-10,  avg # of iterations =  1.0

     total cpu time spent up to now is        2.7 secs

     total energy              =    -263.16581081 Ry
     Harris-Foulkes estimate   =    -263.16581082 Ry
     estimated scf accuracy    <       0.00000005 Ry

     iteration # 25     ecut=    30.00 Ry     beta=0.70
     Davidson diagonalization with overlap
     ethr =  1.13E-10,  avg # of iterations =  1.0

     total cpu time spent up to now is        2.8 secs

     total energy              =    -263.16581081 Ry
     Harris-Foulkes estimate   =    -263.16581081 Ry
     estimated scf accuracy    <       0.00000001 Ry

     iteration # 26     ecut=    30.00 Ry     beta=0.70
     Davidson diagonalization with overlap
     ethr =  2.43E-11,  avg # of iterations =  1.0

     total cpu time spent up to now is        2.8 secs

     total energy              =    -263.16581081 Ry
     Harris-Foulkes estimate   =    -263.16581082 Ry
     estimated scf accuracy    <       0.00000012 Ry

     iteration # 27     ecut=    30.00 Ry     beta=0.70
     Davidson diagonalization with overlap
     ethr =  2.43E-11,  avg # of iterations =  1.0

     total cpu time spent up to now is        2.9 secs

     total energy              =    -263.16581081 Ry
     Harris-Foulkes estimate   =    -263.16581082 Ry
     estimated scf accuracy    <       0.00000012 Ry

     iteration # 28     ecut=    30.00 Ry     beta=0.70
     Davidson diagonalization with overlap
     ethr =  2.43E-11,  avg # of iterations =  1.0

     total cpu time spent up to now is        2.9 secs

     End of self-consistent calculation

          k = 0.0000 0.0000 0.0000 ( 22119 PWs)   bands (ev):

    -4.9976  -4.9908  -4.9821  -4.9411  -4.9403  -4.8937  -4.8735  -4.8719
    -4.8667  -4.8657  -4.8633  -4.8625  -4.8583  -4.8565  -4.8560  -4.8545
    -4.8481  -4.8446  -4.8142  -4.7876  -4.6475  -4.4163  -4.2849  -3.9171
    -0.1428  -0.1237

     the Fermi energy is    -4.5013 ev

!    total energy              =    -263.16581081 Ry
     Harris-Foulkes estimate   =    -263.16581081 Ry
     estimated scf accuracy    <          6.7E-09 Ry

     convergence has been achieved in  28 iterations

     Forces acting on atoms (Ry/au):

     atom    1 type  1   force =    -0.00014536    0.00005031   -0.00014498
     atom    2 type  1   force =     0.01891559   -0.00039306   -0.00073726
     atom    3 type  1   force =    -0.00073839   -0.00039168    0.01891215
     atom    4 type  1   force =    -0.01803183    0.00073444   -0.01802991

     Total force =     0.036982     Total SCF correction =     0.000045

     Molecular Dynamics Calculation

     Starting temperature  =  1000.00 K

     temperature is controlled by Andersen thermostat
     Collision frequency = 1.0000/timestep
     mass Au               =    28.09
     Time step             =   100.00 a.u.,  4.8378 femto-seconds

     Entering Dynamics:    iteration =     1
                           time      =   0.0048 pico-seconds


     Andersen thermostat:    4 collisions

ATOMIC_POSITIONS (bohr)
Au      -0.008078118  -0.005022735  -0.003516445
Au      -0.040501587   8.003320981   8.010687519
Au       8.004762891   7.997710334   0.002345905
Au       8.043816815   8.003991420   7.990483021


     kinetic energy (Ekin) =     0.00576866 Ry
     temperature           =   202.39963449 K 
     Ekin + Etot (const)   =  -263.16004215 Ry

     Linear momentum :    0.0000000000   -0.0000000000    0.0000000000

     Writing output data file pwscf.save
     Check: negative starting charge=   -0.003322
     NEW-OLD atomic charge density approx. for the potential
     Check: negative starting charge=   -0.003305

     negative rho (up, down):  8.745E-05 0.000E+00

     total cpu time spent up to now is        3.5 secs

     per-process dynamical memory:    23.1 Mb

     Self-consistent Calculation

     iteration #  1     ecut=    30.00 Ry     beta=0.70
     Davidson diagonalization with overlap
     ethr =  1.00E-06,  avg # of iterations =  5.0

     negative rho (up, down):  8.906E-07 0.000E+00

     total cpu time spent up to now is        3.7 secs

     total energy              =    -263.16431169 Ry
     Harris-Foulkes estimate   =    -263.16430462 Ry
     estimated scf accuracy    <       0.00032582 Ry

     iteration #  2     ecut=    30.00 Ry     beta=0.70
     Davidson diagonalization with overlap
     ethr =  7.41E-07,  avg # of iterations =  3.0

     negative rho (up, down):  8.382E-07 0.000E+00

     total cpu time spent up to now is        3.8 secs

     total energy              =    -263.15879714 Ry
     Harris-Foulkes estimate   =    -263.16985642 Ry
     estimated scf accuracy    <       0.51456223 Ry

     iteration #  3     ecut=    30.00 Ry     beta=0.70
     Davidson diagonalization with overlap
     ethr =  7.41E-07,  avg # of iterations =  3.0

     negative rho (up, down):  7.215E-07 0.000E+00

     total cpu time spent up to now is        3.8 secs

     total energy              =    -263.16394701 Ry
     Harris-Foulkes estimate   =    -263.16475316 Ry
     estimated scf accuracy    <       0.01803954 Ry

     iteration #  4     ecut=    30.00 Ry     beta=0.70
     Davidson diagonalization with overlap
     ethr =  7.41E-07,  avg # of iterations =  1.0

     negative rho (up, down):  2.362E-07 0.000E+00

     total cpu time spent up to now is        3.9 secs

     total energy              =    -263.16410284 Ry
     Harris-Foulkes estimate   =    -263.16475349 Ry
     estimated scf accuracy    <       0.02189030 Ry

     iteration #  5     ecut=    30.00 Ry     beta=0.70
     Davidson diagonalization with overlap
     ethr =  7.41E-07,  avg # of iterations =  2.0

     negative rho (up, down):  1.254E-07 0.000E+00

     total cpu time spent up to now is        4.0 secs

     total energy              =    -263.16390065 Ry
     Harris-Foulkes estimate   =    -263.16507372 Ry
     estimated scf accuracy    <       0.04455534 Ry

     iteration #  6     ecut=    30.00 Ry     beta=0.70
     Davidson diagonalization with overlap
     ethr =  7.41E-07,  avg # of iterations =  1.0

     total cpu time spent up to now is        4.0 secs

     total energy              =    -263.16445267 Ry
     Harris-Foulkes estimate   =    -263.16451034 Ry
     estimated scf accuracy    <       0.00046085 Ry

     iteration #  7     ecut=    30.00 Ry     beta=0.70
     Davidson diagonalization with overlap
     ethr =  7.41E-07,  avg # of iterations =  1.0

     total cpu time spent up to now is        4.1 secs

     total energy              =    -263.16448360 Ry
     Harris-Foulkes estimate   =    -263.16449347 Ry
     estimated scf accuracy    <       0.00008297 Ry

     iteration #  8     ecut=    30.00 Ry     beta=0.70
     Davidson diagonalization with overlap
     ethr =  1.89E-07,  avg # of iterations =  1.0

     total cpu time spent up to now is        4.2 secs

     total energy              =    -263.16449022 Ry
     Harris-Foulkes estimate   =    -263.16449132 Ry
     estimated scf accuracy    <       0.00000468 Ry

     iteration #  9     ecut=    30.00 Ry     beta=0.70
     Davidson diagonalization with overlap
     ethr =  1.06E-08,  avg # of iterations =  3.0

     total cpu time spent up to now is        4.3 secs

     total energy              =    -263.16449118 Ry
     Harris-Foulkes estimate   =    -263.16449110 Ry
     estimated scf accuracy    <       0.00000038 Ry

     iteration # 10     ecut=    30.00 Ry     beta=0.70
     Davidson diagonalization with overlap
     ethr =  8.53E-10,  avg # of iterations =  2.0

     total cpu time spent up to now is        4.3 secs

     total energy              =    -263.16449131 Ry
     Harris-Foulkes estimate   =    -263.16449128 Ry
     estimated scf accuracy    <       0.00000016 Ry

     iteration # 11     ecut=    30.00 Ry     beta=0.70
     Davidson diagonalization with overlap
     ethr =  3.54E-10,  avg # of iterations =  2.0

     total cpu time spent up to now is        4.4 secs

     total energy              =    -263.16449145 Ry
     Harris-Foulkes estimate   =    -263.16449134 Ry
     estimated scf accuracy    <       0.00000010 Ry

     iteration # 12     ecut=    30.00 Ry     beta=0.70
     Davidson diagonalization with overlap
     ethr =  2.17E-10,  avg # of iterations =  2.0

     total cpu time spent up to now is        4.5 secs

     total energy              =    -263.16449148 Ry
     Harris-Foulkes estimate   =    -263.16449147 Ry
     estimated scf accuracy    <       0.00000008 Ry

     iteration # 13     ecut=    30.00 Ry     beta=0.70
     Davidson diagonalization with overlap
     ethr =  1.71E-10,  avg # of iterations =  1.0

     total cpu time spent up to now is        4.6 secs

     total energy              =    -263.16449128 Ry
     Harris-Foulkes estimate   =    -263.16449166 Ry
     estimated scf accuracy    <       0.00001425 Ry

     iteration # 14     ecut=    30.00 Ry     beta=0.70
     Davidson diagonalization with overlap
     ethr =  1.71E-10,  avg # of iterations =  1.0

     total cpu time spent up to now is        4.6 secs

     total energy              =    -263.16449150 Ry
     Harris-Foulkes estimate   =    -263.16449150 Ry
     estimated scf accuracy    <       0.00000318 Ry

     iteration # 15     ecut=    30.00 Ry     beta=0.70
     Davidson diagonalization with overlap
     ethr =  1.71E-10,  avg # of iterations =  1.0

     total cpu time spent up to now is        4.7 secs

     total energy              =    -263.16449154 Ry
     Harris-Foulkes estimate   =    -263.16449156 Ry
     estimated scf accuracy    <       0.00000117 Ry

     iteration # 16     ecut=    30.00 Ry     beta=0.70
     Davidson diagonalization with overlap
     ethr =  1.71E-10,  avg # of iterations =  1.0

     total cpu time spent up to now is        4.8 secs

     total energy              =    -263.16449162 Ry
     Harris-Foulkes estimate   =    -263.16449156 Ry
     estimated scf accuracy    <       0.00000013 Ry

     iteration # 17     ecut=    30.00 Ry     beta=0.70
     Davidson diagonalization with overlap
     ethr =  1.71E-10,  avg # of iterations =  1.0

     total cpu time spent up to now is        4.8 secs

     End of self-consistent calculation

          k = 0.0000 0.0000 0.0000 ( 22119 PWs)   bands (ev):

    -4.9948  -4.9801  -4.9770  -4.9398  -4.9332  -4.8905  -4.8714  -4.8699
    -4.8645  -4.8637  -4.8617  -4.8609  -4.8564  -4.8549  -4.8538  -4.8527
    -4.8470  -4.8434  -4.8138  -4.7876  -4.6446  -4.4150  -4.2864  -3.9240
    -0.1436  -0.1239

     the Fermi energy is    -4.4997 ev

!    total energy              =    -263.16449162 Ry
     Harris-Foulkes estimate   =    -263.16449163 Ry
     estimated scf accuracy    <          4.1E-09 Ry

     convergence has been achieved in  17 iterations

     Forces acting on atoms (Ry/au):

     atom    1 type  1   force =    -0.00010828    0.00006301   -0.00008765
     atom    2 type  1   force =     0.01826306   -0.00015371   -0.00052630
     atom    3 type  1   force =    -0.00046959   -0.00033315    0.01924359
     atom    4 type  1   force =    -0.01768518    0.00042385   -0.01862964

     Total force =     0.036939     Total SCF correction =     0.000056

     Entering Dynamics:    iteration =     2
                           time      =   0.0097 pico-seconds


     Andersen thermostat:    4 collisions

ATOMIC_POSITIONS (bohr)
Au       0.073139882  -0.011422738  -0.027742449
Au      -0.077726556   7.982814840   7.955592966
Au       7.991906715   8.001454213   0.002820269
Au       8.012679960   8.027153685   8.069329214


     kinetic energy (Ekin) =     0.02690686 Ry
     temperature           =   944.05616761 K 
     Ekin + Etot (const)   =  -263.13758476 Ry
     Message from routine dynamics:
     Total linear momentum <> 0

     Linear momentum :    0.4864196221   -0.0193073147   -0.1514251995

     Writing output data file pwscf.save

     first order wave-functions extrapolation
     Check: negative starting charge=   -0.003305
     first order charge density extrapolation
     Check: negative starting charge=   -0.003298

     negative rho (up, down):  8.540E-04 0.000E+00

     total cpu time spent up to now is        5.1 secs

     per-process dynamical memory:    23.1 Mb

     Self-consistent Calculation

     iteration #  1     ecut=    30.00 Ry     beta=0.70
     Davidson diagonalization with overlap
     ethr =  1.00E-06,  avg # of iterations =  9.0

     negative rho (up, down):  3.740E-05 0.000E+00

     total cpu time spent up to now is        5.3 secs

     total energy              =    -263.16228614 Ry
     Harris-Foulkes estimate   =    -263.16103765 Ry
     estimated scf accuracy    <       0.00124121 Ry

     iteration #  2     ecut=    30.00 Ry     beta=0.70
     Davidson diagonalization with overlap
     ethr =  2.82E-06,  avg # of iterations =  6.0

     negative rho (up, down):  3.603E-05 0.000E+00

     total cpu time spent up to now is        5.4 secs

     total energy              =    -263.14887626 Ry
     Harris-Foulkes estimate   =    -263.17590836 Ry
     estimated scf accuracy    <       1.21166164 Ry

     iteration #  3     ecut=    30.00 Ry     beta=0.70
     Davidson diagonalization with overlap
     ethr =  2.82E-06,  avg # of iterations =  3.0

     negative rho (up, down):  3.350E-05 0.000E+00

     total cpu time spent up to now is        5.5 secs

     total energy              =    -263.16084629 Ry
     Harris-Foulkes estimate   =    -263.16371698 Ry
     estimated scf accuracy    <       0.07229876 Ry

     iteration #  4     ecut=    30.00 Ry     beta=0.70
     Davidson diagonalization with overlap
     ethr =  2.82E-06,  avg # of iterations =  1.0

     negative rho (up, down):  7.285E-06 0.000E+00

     total cpu time spent up to now is        5.6 secs

     total energy              =    -263.16198227 Ry
     Harris-Foulkes estimate   =    -263.16338415 Ry
     estimated scf accuracy    <       0.05375243 Ry

     iteration #  5     ecut=    30.00 Ry     beta=0.70
     Davidson diagonalization with overlap
     ethr =  2.82E-06,  avg # of iterations =  1.0

     negative rho (up, down):  5.583E-06 0.000E+00

     total cpu time spent up to now is        5.6 secs

     total energy              =    -263.16219621 Ry
     Harris-Foulkes estimate   =    -263.16313027 Ry
     estimated scf accuracy    <       0.01758554 Ry

     iteration #  6     ecut=    30.00 Ry     beta=0.70
     Davidson diagonalization with overlap
     ethr =  2.82E-06,  avg # of iterations =  1.0

     negative rho (up, down):  1.757E-07 0.000E+00

     total cpu time spent up to now is        5.7 secs

     total energy              =    -263.16228539 Ry
     Harris-Foulkes estimate   =    -263.16335715 Ry
     estimated scf accuracy    <       0.03806495 Ry

     iteration #  7     ecut=    30.00 Ry     beta=0.70
     Davidson diagonalization with overlap
     ethr =  2.82E-06,  avg # of iterations =  1.0

     total cpu time spent up to now is        5.8 secs

     total energy              =    -263.16278777 Ry
     Harris-Foulkes estimate   =    -263.16290779 Ry
     estimated scf accuracy    <       0.00099123 Ry

     iteration #  8     ecut=    30.00 Ry     beta=0.70
     Davidson diagonalization with overlap
     ethr =  2.25E-06,  avg # of iterations =  1.0

     total cpu time spent up to now is        5.8 secs

     total energy              =    -263.16284808 Ry
     Harris-Foulkes estimate   =    -263.16285464 Ry
     estimated scf accuracy    <       0.00006234 Ry

     iteration #  9     ecut=    30.00 Ry     beta=0.70
     Davidson diagonalization with overlap
     ethr =  1.42E-07,  avg # of iterations =  1.0

     total cpu time spent up to now is        5.9 secs

     total energy              =    -263.16284999 Ry
     Harris-Foulkes estimate   =    -263.16285135 Ry
     estimated scf accuracy    <       0.00001351 Ry

     iteration # 10     ecut=    30.00 Ry     beta=0.70
     Davidson diagonalization with overlap
     ethr =  3.07E-08,  avg # of iterations =  2.0

     total cpu time spent up to now is        6.0 secs

     total energy              =    -263.16285021 Ry
     Harris-Foulkes estimate   =    -263.16285091 Ry
     estimated scf accuracy    <       0.00000386 Ry

     iteration # 11     ecut=    30.00 Ry     beta=0.70
     Davidson diagonalization with overlap
     ethr =  8.78E-09,  avg # of iterations =  1.0

     total cpu time spent up to now is        6.0 secs

     total energy              =    -263.16285047 Ry
     Harris-Foulkes estimate   =    -263.16285057 Ry
     estimated scf accuracy    <       0.00000032 Ry

     iteration # 12     ecut=    30.00 Ry     beta=0.70
     Davidson diagonalization with overlap
     ethr =  7.17E-10,  avg # of iterations =  3.0

     total cpu time spent up to now is        6.1 secs

     total energy              =    -263.16285075 Ry
     Harris-Foulkes estimate   =    -263.16285058 Ry
     estimated scf accuracy    <       0.00000018 Ry

     iteration # 13     ecut=    30.00 Ry     beta=0.70
     Davidson diagonalization with overlap
     ethr =  4.02E-10,  avg # of iterations =  2.0

     total cpu time spent up to now is        6.2 secs

     total energy              =    -263.16285073 Ry
     Harris-Foulkes estimate   =    -263.16285078 Ry
     estimated scf accuracy    <       0.00000017 Ry

     iteration # 14     ecut=    30.00 Ry     beta=0.70
     Davidson diagonalization with overlap
     ethr =  3.95E-10,  avg # of iterations =  1.0

     total cpu time spent up to now is        6.3 secs

     total energy              =    -263.16285062 Ry
     Harris-Foulkes estimate   =    -263.16285092 Ry
     estimated scf accuracy    <       0.00001194 Ry

     iteration # 15     ecut=    30.00 Ry     beta=0.70
     Davidson diagonalization with overlap
     ethr =  3.95E-10,  avg # of iterations =  1.0

     total cpu time spent up to now is        6.3 secs

     total energy              =    -263.16285065 Ry
     Harris-Foulkes estimate   =    -263.16285082 Ry
     estimated scf accuracy    <       0.00000303 Ry

     iteration # 16     ecut=    30.00 Ry     beta=0.70
     Davidson diagonalization with overlap
     ethr =  3.95E-10,  avg # of iterations =  1.0

     total cpu time spent up to now is        6.4 secs

     total energy              =    -263.16285072 Ry
     Harris-Foulkes estimate   =    -263.16285074 Ry
     estimated scf accuracy    <       0.00000160 Ry

     iteration # 17     ecut=    30.00 Ry     beta=0.70
     Davidson diagonalization with overlap
     ethr =  3.95E-10,  avg # of iterations =  1.0

     total cpu time spent up to now is        6.5 secs

     total energy              =    -263.16285068 Ry
     Harris-Foulkes estimate   =    -263.16285082 Ry
     estimated scf accuracy    <       0.00000455 Ry

     iteration # 18     ecut=    30.00 Ry     beta=0.70
     Davidson diagonalization with overlap
     ethr =  3.95E-10,  avg # of iterations =  1.0

     total cpu time spent up to now is        6.5 secs

     total energy              =    -263.16285077 Ry
     Harris-Foulkes estimate   =    -263.16285073 Ry
     estimated scf accuracy    <       0.00000005 Ry

     iteration # 19     ecut=    30.00 Ry     beta=0.70
     Davidson diagonalization with overlap
     ethr =  1.09E-10,  avg # of iterations =  2.0

     total cpu time spent up to now is        6.6 secs

     total energy              =    -263.16285077 Ry
     Harris-Foulkes estimate   =    -263.16285077 Ry
     estimated scf accuracy    <       0.00000003 Ry

     iteration # 20     ecut=    30.00 Ry     beta=0.70
     Davidson diagonalization with overlap
     ethr =  6.04E-11,  avg # of iterations =  1.0

     total cpu time spent up to now is        6.7 secs

     End of self-consistent calculation

          k = 0.0000 0.0000 0.0000 ( 22119 PWs)   bands (ev):

    -4.9836  -4.9764  -4.9693  -4.9334  -4.9294  -4.8849  -4.8684  -4.8668
    -4.8618  -4.8609  -4.8603  -4.8591  -4.8563  -4.8526  -4.8522  -4.8508
    -4.8439  -4.8397  -4.8134  -4.7884  -4.6424  -4.4127  -4.2864  -3.9334
    -0.1455  -0.1237

     the Fermi energy is    -4.4978 ev

!    total energy              =    -263.16285077 Ry
     Harris-Foulkes estimate   =    -263.16285077 Ry
     estimated scf accuracy    <          8.1E-09 Ry

     convergence has been achieved in  20 iterations

     Forces acting on atoms (Ry/au):

     atom    1 type  1   force =    -0.00024159    0.00023214    0.00024108
     atom    2 type  1   force =     0.01905255    0.00073515    0.00052877
     atom    3 type  1   force =    -0.00054332   -0.00012754    0.01787875
     atom    4 type  1   force =    -0.01826764   -0.00083975   -0.01864859

     Total force =     0.036961     Total SCF correction =     0.000066

     Entering Dynamics:    iteration =     3
                           time      =   0.0145 pico-seconds


     Andersen thermostat:    4 collisions

ATOMIC_POSITIONS (bohr)
Au      -0.006340900   0.039874466  -0.029655128
Au      -0.078702745   8.044187915   7.900292533
Au       8.003422097   7.945011339  -0.010609381
Au       8.081621548   7.970926280   8.139971975


     kinetic energy (Ekin) =     0.04611128 Ry
     temperature           =  1617.86375198 K 
     Ekin + Etot (const)   =  -263.11673948 Ry
     Message from routine dynamics:
     Total linear momentum <> 0

     Linear momentum :    0.3808177949    1.0663148043    0.7081418915

     Writing output data file pwscf.save

     second order wave-functions extrapolation
     Check: negative starting charge=   -0.003298
     second order charge density extrapolation
     Check: negative starting charge=   -0.003272

     negative rho (up, down):  1.002E-03 0.000E+00

     total cpu time spent up to now is        7.0 secs

     per-process dynamical memory:    23.1 Mb

     Self-consistent Calculation

     iteration #  1     ecut=    30.00 Ry     beta=0.70
     Davidson diagonalization with overlap
     ethr =  1.00E-06,  avg # of iterations =  8.0

     negative rho (up, down):  4.823E-05 0.000E+00

     total cpu time spent up to now is        7.3 secs

     total energy              =    -263.15857675 Ry
     Harris-Foulkes estimate   =    -263.15813073 Ry
     estimated scf accuracy    <       0.00238598 Ry

     iteration #  2     ecut=    30.00 Ry     beta=0.70
     Davidson diagonalization with overlap
     ethr =  5.42E-06,  avg # of iterations =  5.0

     negative rho (up, down):  4.601E-05 0.000E+00

     total cpu time spent up to now is        7.3 secs

     total energy              =    -263.12142496 Ry
     Harris-Foulkes estimate   =    -263.21433212 Ry
     estimated scf accuracy    <       3.57087492 Ry

     iteration #  3     ecut=    30.00 Ry     beta=0.70
     Davidson diagonalization with overlap
     ethr =  5.42E-06,  avg # of iterations =  3.0

     negative rho (up, down):  4.396E-05 0.000E+00

     total cpu time spent up to now is        7.4 secs

     total energy              =    -263.15715721 Ry
     Harris-Foulkes estimate   =    -263.16159151 Ry
     estimated scf accuracy    <       0.16604276 Ry

     iteration #  4     ecut=    30.00 Ry     beta=0.70
     Davidson diagonalization with overlap
     ethr =  5.42E-06,  avg # of iterations =  1.0

     negative rho (up, down):  1.963E-05 0.000E+00

     total cpu time spent up to now is        7.5 secs

     total energy              =    -263.15916568 Ry
     Harris-Foulkes estimate   =    -263.16033850 Ry
     estimated scf accuracy    <       0.03029735 Ry

     iteration #  5     ecut=    30.00 Ry     beta=0.70
     Davidson diagonalization with overlap
     ethr =  5.42E-06,  avg # of iterations =  1.0

     negative rho (up, down):  1.340E-05 0.000E+00

     total cpu time spent up to now is        7.6 secs

     total energy              =    -263.15775214 Ry
     Harris-Foulkes estimate   =    -263.16215320 Ry
     estimated scf accuracy    <       0.15747179 Ry

     iteration #  6     ecut=    30.00 Ry     beta=0.70
     Davidson diagonalization with overlap
     ethr =  5.42E-06,  avg # of iterations =  1.0

     negative rho (up, down):  5.612E-07 0.000E+00

     total cpu time spent up to now is        7.6 secs

     total energy              =    -263.15958812 Ry
     Harris-Foulkes estimate   =    -263.16052754 Ry
     estimated scf accuracy    <       0.01818448 Ry

     iteration #  7     ecut=    30.00 Ry     beta=0.70
     Davidson diagonalization with overlap
     ethr =  5.42E-06,  avg # of iterations =  1.0

     total cpu time spent up to now is        7.7 secs

     total energy              =    -263.15999281 Ry
     Harris-Foulkes estimate   =    -263.16011363 Ry
     estimated scf accuracy    <       0.00122425 Ry

     iteration #  8     ecut=    30.00 Ry     beta=0.70
     Davidson diagonalization with overlap
     ethr =  2.78E-06,  avg # of iterations =  1.0

     total cpu time spent up to now is        7.8 secs

     total energy              =    -263.16005260 Ry
     Harris-Foulkes estimate   =    -263.16006665 Ry
     estimated scf accuracy    <       0.00013800 Ry

     iteration #  9     ecut=    30.00 Ry     beta=0.70
     Davidson diagonalization with overlap
     ethr =  3.14E-07,  avg # of iterations =  1.0

     total cpu time spent up to now is        7.8 secs

     total energy              =    -263.16005672 Ry
     Harris-Foulkes estimate   =    -263.16005977 Ry
     estimated scf accuracy    <       0.00003870 Ry

     iteration # 10     ecut=    30.00 Ry     beta=0.70
     Davidson diagonalization with overlap
     ethr =  8.80E-08,  avg # of iterations =  1.0

     total cpu time spent up to now is        7.9 secs

     total energy              =    -263.16005648 Ry
     Harris-Foulkes estimate   =    -263.16005812 Ry
     estimated scf accuracy    <       0.00000853 Ry

     iteration # 11     ecut=    30.00 Ry     beta=0.70
     Davidson diagonalization with overlap
     ethr =  1.94E-08,  avg # of iterations =  1.0

     total cpu time spent up to now is        8.0 secs

     total energy              =    -263.16005656 Ry
     Harris-Foulkes estimate   =    -263.16005709 Ry
     estimated scf accuracy    <       0.00000077 Ry

     iteration # 12     ecut=    30.00 Ry     beta=0.70
     Davidson diagonalization with overlap
     ethr =  1.75E-09,  avg # of iterations =  4.0

     total cpu time spent up to now is        8.1 secs

     total energy              =    -263.16005686 Ry
     Harris-Foulkes estimate   =    -263.16005711 Ry
     estimated scf accuracy    <       0.00000767 Ry

     iteration # 13     ecut=    30.00 Ry     beta=0.70
     Davidson diagonalization with overlap
     ethr =  1.75E-09,  avg # of iterations =  1.0

     total cpu time spent up to now is        8.1 secs

     total energy              =    -263.16005707 Ry
     Harris-Foulkes estimate   =    -263.16005706 Ry
     estimated scf accuracy    <       0.00000016 Ry

     iteration # 14     ecut=    30.00 Ry     beta=0.70
     Davidson diagonalization with overlap
     ethr =  3.62E-10,  avg # of iterations =  2.0

     total cpu time spent up to now is        8.2 secs

     total energy              =    -263.16005693 Ry
     Harris-Foulkes estimate   =    -263.16005723 Ry
     estimated scf accuracy    <       0.00001180 Ry

     iteration # 15     ecut=    30.00 Ry     beta=0.70
     Davidson diagonalization with overlap
     ethr =  3.62E-10,  avg # of iterations =  1.0

     total cpu time spent up to now is        8.3 secs

     total energy              =    -263.16005709 Ry
     Harris-Foulkes estimate   =    -263.16005711 Ry
     estimated scf accuracy    <       0.00000046 Ry

     iteration # 16     ecut=    30.00 Ry     beta=0.70
     Davidson diagonalization with overlap
     ethr =  3.62E-10,  avg # of iterations =  1.0

     total cpu time spent up to now is        8.3 secs

     total energy              =    -263.16005704 Ry
     Harris-Foulkes estimate   =    -263.16005718 Ry
     estimated scf accuracy    <       0.00000607 Ry

     iteration # 17     ecut=    30.00 Ry     beta=0.70
     Davidson diagonalization with overlap
     ethr =  3.62E-10,  avg # of iterations =  1.0

     total cpu time spent up to now is        8.4 secs

     total energy              =    -263.16005720 Ry
     Harris-Foulkes estimate   =    -263.16005713 Ry
     estimated scf accuracy    <       0.00000044 Ry

     iteration # 18     ecut=    30.00 Ry     beta=0.70
     Davidson diagonalization with overlap
     ethr =  3.62E-10,  avg # of iterations =  1.0

     total cpu time spent up to now is        8.5 secs

     total energy              =    -263.16005723 Ry
     Harris-Foulkes estimate   =    -263.16005721 Ry
     estimated scf accuracy    <       0.00000003 Ry

     iteration # 19     ecut=    30.00 Ry     beta=0.70
     Davidson diagonalization with overlap
     ethr =  7.68E-11,  avg # of iterations =  1.0

     total cpu time spent up to now is        8.5 secs

     End of self-consistent calculation

          k = 0.0000 0.0000 0.0000 ( 22119 PWs)   bands (ev):

    -4.9727  -4.9652  -4.9556  -4.9231  -4.9194  -4.8778  -4.8638  -4.8629
    -4.8579  -4.8571  -4.8557  -4.8545  -4.8511  -4.8486  -4.8478  -4.8453
    -4.8404  -4.8367  -4.8140  -4.7883  -4.6377  -4.4092  -4.2876  -3.9497
    -0.1493  -0.1237

     the Fermi energy is    -4.4941 ev

!    total energy              =    -263.16005719 Ry
     Harris-Foulkes estimate   =    -263.16005723 Ry
     estimated scf accuracy    <          3.6E-09 Ry

     convergence has been achieved in  19 iterations

     Forces acting on atoms (Ry/au):

     atom    1 type  1   force =    -0.00024723    0.00029840    0.00050087
     atom    2 type  1   force =     0.01798561   -0.00099295   -0.00000813
     atom    3 type  1   force =     0.00031881   -0.00016496    0.01791430
     atom    4 type  1   force =    -0.01805719    0.00085950   -0.01840704

     Total force =     0.036215     Total SCF correction =     0.000040

     Entering Dynamics:    iteration =     4
                           time      =   0.0194 pico-seconds


     Andersen thermostat:    4 collisions

ATOMIC_POSITIONS (bohr)
Au       0.027055277   0.007163721  -0.077643893
Au      -0.049019067   8.022597949   7.973885289
Au       7.950866791   7.947486922   0.054096686
Au       8.071096998   8.022751408   8.049661918


     kinetic energy (Ekin) =     0.03702763 Ry
     temperature           =  1299.15402970 K 
     Ekin + Etot (const)   =  -263.12302956 Ry
     Message from routine dynamics:
     Total linear momentum <> 0

     Linear momentum :   -0.0405574205    0.3452754818   -0.7777826080

     Writing output data file pwscf.save

     second order wave-functions extrapolation
     Check: negative starting charge=   -0.003272
     second order charge density extrapolation
     Check: negative starting charge=   -0.003316

     negative rho (up, down):  4.150E-04 0.000E+00

     total cpu time spent up to now is        8.8 secs

     per-process dynamical memory:    23.1 Mb

     Self-consistent Calculation

     iteration #  1     ecut=    30.00 Ry     beta=0.70
     Davidson diagonalization with overlap
     ethr =  1.00E-06,  avg # of iterations =  7.0

     negative rho (up, down):  1.192E-05 0.000E+00

     total cpu time spent up to now is        9.0 secs

     total energy              =    -263.16341544 Ry
     Harris-Foulkes estimate   =    -263.16275721 Ry
     estimated scf accuracy    <       0.00050300 Ry

     iteration #  2     ecut=    30.00 Ry     beta=0.70
     Davidson diagonalization with overlap
     ethr =  1.14E-06,  avg # of iterations =  5.0

     negative rho (up, down):  1.113E-05 0.000E+00

     total cpu time spent up to now is        9.1 secs

     total energy              =    -263.16045380 Ry
     Harris-Foulkes estimate   =    -263.16784562 Ry
     estimated scf accuracy    <       0.20772308 Ry

     iteration #  3     ecut=    30.00 Ry     beta=0.70
     Davidson diagonalization with overlap
     ethr =  1.14E-06,  avg # of iterations =  2.0

     negative rho (up, down):  1.036E-05 0.000E+00

     total cpu time spent up to now is        9.2 secs

     total energy              =    -263.16289003 Ry
     Harris-Foulkes estimate   =    -263.16399075 Ry
     estimated scf accuracy    <       0.02987799 Ry

     iteration #  4     ecut=    30.00 Ry     beta=0.70
     Davidson diagonalization with overlap
     ethr =  1.14E-06,  avg # of iterations =  1.0

     negative rho (up, down):  8.298E-07 0.000E+00

     total cpu time spent up to now is        9.2 secs

     total energy              =    -263.16342630 Ry
     Harris-Foulkes estimate   =    -263.16375525 Ry
     estimated scf accuracy    <       0.01151997 Ry

     iteration #  5     ecut=    30.00 Ry     beta=0.70
     Davidson diagonalization with overlap
     ethr =  1.14E-06,  avg # of iterations =  1.0

     negative rho (up, down):  5.543E-07 0.000E+00

     total cpu time spent up to now is        9.3 secs

     total energy              =    -263.16309304 Ry
     Harris-Foulkes estimate   =    -263.16401810 Ry
     estimated scf accuracy    <       0.03687603 Ry

     iteration #  6     ecut=    30.00 Ry     beta=0.70
     Davidson diagonalization with overlap
     ethr =  1.14E-06,  avg # of iterations =  1.0

     total cpu time spent up to now is        9.4 secs

     total energy              =    -263.16357546 Ry
     Harris-Foulkes estimate   =    -263.16367176 Ry
     estimated scf accuracy    <       0.00245558 Ry

     iteration #  7     ecut=    30.00 Ry     beta=0.70
     Davidson diagonalization with overlap
     ethr =  1.14E-06,  avg # of iterations =  1.0

     total cpu time spent up to now is        9.4 secs

     total energy              =    -263.16361308 Ry
     Harris-Foulkes estimate   =    -263.16364032 Ry
     estimated scf accuracy    <       0.00022234 Ry

     iteration #  8     ecut=    30.00 Ry     beta=0.70
     Davidson diagonalization with overlap
     ethr =  5.05E-07,  avg # of iterations =  1.0

     total cpu time spent up to now is        9.5 secs

     total energy              =    -263.16362274 Ry
     Harris-Foulkes estimate   =    -263.16362477 Ry
     estimated scf accuracy    <       0.00001003 Ry

     iteration #  9     ecut=    30.00 Ry     beta=0.70
     Davidson diagonalization with overlap
     ethr =  2.28E-08,  avg # of iterations =  2.0

     total cpu time spent up to now is        9.6 secs

     total energy              =    -263.16362298 Ry
     Harris-Foulkes estimate   =    -263.16362383 Ry
     estimated scf accuracy    <       0.00000212 Ry

     iteration # 10     ecut=    30.00 Ry     beta=0.70
     Davidson diagonalization with overlap
     ethr =  4.81E-09,  avg # of iterations =  2.0

     total cpu time spent up to now is        9.7 secs

     total energy              =    -263.16362289 Ry
     Harris-Foulkes estimate   =    -263.16362328 Ry
     estimated scf accuracy    <       0.00000076 Ry

     iteration # 11     ecut=    30.00 Ry     beta=0.70
     Davidson diagonalization with overlap
     ethr =  1.73E-09,  avg # of iterations =  1.0

     total cpu time spent up to now is        9.8 secs

     total energy              =    -263.16362286 Ry
     Harris-Foulkes estimate   =    -263.16362300 Ry
     estimated scf accuracy    <       0.00000048 Ry

     iteration # 12     ecut=    30.00 Ry     beta=0.70
     Davidson diagonalization with overlap
     ethr =  1.08E-09,  avg # of iterations =  2.0

     total cpu time spent up to now is        9.8 secs

     total energy              =    -263.16362275 Ry
     Harris-Foulkes estimate   =    -263.16362292 Ry
     estimated scf accuracy    <       0.00000144 Ry

     iteration # 13     ecut=    30.00 Ry     beta=0.70
     Davidson diagonalization with overlap
     ethr =  1.08E-09,  avg # of iterations =  1.0

     total cpu time spent up to now is        9.9 secs

     total energy              =    -263.16362270 Ry
     Harris-Foulkes estimate   =    -263.16362291 Ry
     estimated scf accuracy    <       0.00000568 Ry

     iteration # 14     ecut=    30.00 Ry     beta=0.70
     Davidson diagonalization with overlap
     ethr =  1.08E-09,  avg # of iterations =  1.0

     total cpu time spent up to now is       10.0 secs

     total energy              =    -263.16362197 Ry
     Harris-Foulkes estimate   =    -263.16362362 Ry
     estimated scf accuracy    <       0.00006430 Ry

     iteration # 15     ecut=    30.00 Ry     beta=0.70
     Davidson diagonalization with overlap
     ethr =  1.08E-09,  avg # of iterations =  2.0

     total cpu time spent up to now is       10.1 secs

     total energy              =    -263.16362273 Ry
     Harris-Foulkes estimate   =    -263.16362275 Ry
     estimated scf accuracy    <       0.00000035 Ry

     iteration # 16     ecut=    30.00 Ry     beta=0.70
     Davidson diagonalization with overlap
     ethr =  7.96E-10,  avg # of iterations =  1.0

     total cpu time spent up to now is       10.1 secs

     total energy              =    -263.16362272 Ry
     Harris-Foulkes estimate   =    -263.16362275 Ry
     estimated scf accuracy    <       0.00000016 Ry

     iteration # 17     ecut=    30.00 Ry     beta=0.70
     Davidson diagonalization with overlap
     ethr =  3.73E-10,  avg # of iterations =  1.0

     total cpu time spent up to now is       10.2 secs

     total energy              =    -263.16362272 Ry
     Harris-Foulkes estimate   =    -263.16362274 Ry
     estimated scf accuracy    <       0.00000040 Ry

     iteration # 18     ecut=    30.00 Ry     beta=0.70
     Davidson diagonalization with overlap
     ethr =  3.73E-10,  avg # of iterations =  1.0

     total cpu time spent up to now is       10.3 secs

     total energy              =    -263.16362273 Ry
     Harris-Foulkes estimate   =    -263.16362273 Ry
     estimated scf accuracy    <       0.00000006 Ry

     iteration # 19     ecut=    30.00 Ry     beta=0.70
     Davidson diagonalization with overlap
     ethr =  1.31E-10,  avg # of iterations =  1.0

     total cpu time spent up to now is       10.3 secs

     total energy              =    -263.16362272 Ry
     Harris-Foulkes estimate   =    -263.16362273 Ry
     estimated scf accuracy    <       0.00000003 Ry

     iteration # 20     ecut=    30.00 Ry     beta=0.70
     Davidson diagonalization with overlap
     ethr =  6.93E-11,  avg # of iterations =  1.0

     total cpu time spent up to now is       10.4 secs

     End of self-consistent calculation

          k = 0.0000 0.0000 0.0000 ( 22119 PWs)   bands (ev):

    -4.9934  -4.9763  -4.9720  -4.9382  -4.9300  -4.8859  -4.8696  -4.8676
    -4.8643  -4.8616  -4.8614  -4.8607  -4.8588  -4.8539  -4.8533  -4.8522
    -4.8453  -4.8390  -4.8135  -4.7876  -4.6445  -4.4139  -4.2848  -3.9298
    -0.1468  -0.1221

     the Fermi energy is    -4.4987 ev

!    total energy              =    -263.16362272 Ry
     Harris-Foulkes estimate   =    -263.16362272 Ry
     estimated scf accuracy    <          1.6E-09 Ry

     convergence has been achieved in  20 iterations

     Forces acting on atoms (Ry/au):

     atom    1 type  1   force =    -0.00053074    0.00012669    0.00054308
     atom    2 type  1   force =     0.01816311    0.00024007    0.00074716
     atom    3 type  1   force =     0.00017539    0.00056476    0.01802915
     atom    4 type  1   force =    -0.01780776   -0.00093152   -0.01931939

     Total force =     0.036711     Total SCF correction =     0.000029

     Entering Dynamics:    iteration =     5
                           time      =   0.0242 pico-seconds


     Andersen thermostat:    4 collisions

ATOMIC_POSITIONS (bohr)
Au      -0.003765992   0.028824254  -0.083003927
Au      -0.032773833   7.997995240   7.963666934
Au       8.001132118   7.932889407   0.096926502
Au       8.035407708   8.040291099   8.022410492


     kinetic energy (Ekin) =     0.01256349 Ry
     temperature           =   440.80359967 K 
     Ekin + Etot (const)   =  -263.15105923 Ry
     Message from routine dynamics:
     Total linear momentum <> 0

     Linear momentum :    0.3872976056   -0.0585281184   -0.8398194169

     Writing output data file pwscf.save

     second order wave-functions extrapolation
     Check: negative starting charge=   -0.003316
     second order charge density extrapolation
     Check: negative starting charge=   -0.003328

     negative rho (up, down):  2.654E-04 0.000E+00

     total cpu time spent up to now is       10.7 secs

     per-process dynamical memory:    23.1 Mb

     Self-consistent Calculation

     iteration #  1     ecut=    30.00 Ry     beta=0.70
     Davidson diagonalization with overlap
     ethr =  1.00E-06,  avg # of iterations =  6.0

     negative rho (up, down):  5.283E-06 0.000E+00

     total cpu time spent up to now is       10.9 secs

     total energy              =    -263.16558734 Ry
     Harris-Foulkes estimate   =    -263.16523742 Ry
     estimated scf accuracy    <       0.00056156 Ry

     iteration #  2     ecut=    30.00 Ry     beta=0.70
     Davidson diagonalization with overlap
     ethr =  1.28E-06,  avg # of iterations =  7.0

     negative rho (up, down):  5.030E-06 0.000E+00

     total cpu time spent up to now is       11.0 secs

     total energy              =    -263.15997429 Ry
     Harris-Foulkes estimate   =    -263.17373232 Ry
     estimated scf accuracy    <       0.59624432 Ry

     iteration #  3     ecut=    30.00 Ry     beta=0.70
     Davidson diagonalization with overlap
     ethr =  1.28E-06,  avg # of iterations =  3.0

     negative rho (up, down):  4.519E-06 0.000E+00

     total cpu time spent up to now is       11.0 secs

     total energy              =    -263.16437511 Ry
     Harris-Foulkes estimate   =    -263.16741297 Ry
     estimated scf accuracy    <       0.07278747 Ry

     iteration #  4     ecut=    30.00 Ry     beta=0.70
     Davidson diagonalization with overlap
     ethr =  1.28E-06,  avg # of iterations =  3.0

     negative rho (up, down):  1.324E-06 0.000E+00

     total cpu time spent up to now is       11.1 secs

     total energy              =    -263.16565212 Ry
     Harris-Foulkes estimate   =    -263.16601680 Ry
     estimated scf accuracy    <       0.00494482 Ry

     iteration #  5     ecut=    30.00 Ry     beta=0.70
     Davidson diagonalization with overlap
     ethr =  1.28E-06,  avg # of iterations =  1.0

     negative rho (up, down):  1.002E-06 0.000E+00

     total cpu time spent up to now is       11.2 secs

     total energy              =    -263.16564455 Ry
     Harris-Foulkes estimate   =    -263.16595964 Ry
     estimated scf accuracy    <       0.00603477 Ry

     iteration #  6     ecut=    30.00 Ry     beta=0.70
     Davidson diagonalization with overlap
     ethr =  1.28E-06,  avg # of iterations =  1.0

     total cpu time spent up to now is       11.2 secs

     total energy              =    -263.16568354 Ry
     Harris-Foulkes estimate   =    -263.16605798 Ry
     estimated scf accuracy    <       0.01469780 Ry

     iteration #  7     ecut=    30.00 Ry     beta=0.70
     Davidson diagonalization with overlap
     ethr =  1.28E-06,  avg # of iterations =  1.0

     total cpu time spent up to now is       11.3 secs

     total energy              =    -263.16586764 Ry
     Harris-Foulkes estimate   =    -263.16589964 Ry
     estimated scf accuracy    <       0.00017836 Ry

     iteration #  8     ecut=    30.00 Ry     beta=0.70
     Davidson diagonalization with overlap
     ethr =  4.05E-07,  avg # of iterations =  1.0

     total cpu time spent up to now is       11.4 secs

     total energy              =    -263.16588144 Ry
     Harris-Foulkes estimate   =    -263.16588323 Ry
     estimated scf accuracy    <       0.00001099 Ry

     iteration #  9     ecut=    30.00 Ry     beta=0.70
     Davidson diagonalization with overlap
     ethr =  2.50E-08,  avg # of iterations =  2.0

     total cpu time spent up to now is       11.4 secs

     total energy              =    -263.16588193 Ry
     Harris-Foulkes estimate   =    -263.16588244 Ry
     estimated scf accuracy    <       0.00000217 Ry

     iteration # 10     ecut=    30.00 Ry     beta=0.70
     Davidson diagonalization with overlap
     ethr =  4.94E-09,  avg # of iterations =  2.0

     total cpu time spent up to now is       11.5 secs

     total energy              =    -263.16588185 Ry
     Harris-Foulkes estimate   =    -263.16588217 Ry
     estimated scf accuracy    <       0.00000122 Ry

     iteration # 11     ecut=    30.00 Ry     beta=0.70
     Davidson diagonalization with overlap
     ethr =  2.78E-09,  avg # of iterations =  1.0

     total cpu time spent up to now is       11.6 secs

     total energy              =    -263.16588160 Ry
     Harris-Foulkes estimate   =    -263.16588196 Ry
     estimated scf accuracy    <       0.00000031 Ry

     iteration # 12     ecut=    30.00 Ry     beta=0.70
     Davidson diagonalization with overlap
     ethr =  7.11E-10,  avg # of iterations =  2.0

     total cpu time spent up to now is       11.6 secs

     total energy              =    -263.16588159 Ry
     Harris-Foulkes estimate   =    -263.16588175 Ry
     estimated scf accuracy    <       0.00000782 Ry

     iteration # 13     ecut=    30.00 Ry     beta=0.70
     Davidson diagonalization with overlap
     ethr =  7.11E-10,  avg # of iterations =  2.0

     total cpu time spent up to now is       11.7 secs

     total energy              =    -263.16588174 Ry
     Harris-Foulkes estimate   =    -263.16588182 Ry
     estimated scf accuracy    <       0.00000429 Ry

     iteration # 14     ecut=    30.00 Ry     beta=0.70
     Davidson diagonalization with overlap
     ethr =  7.11E-10,  avg # of iterations =  1.0

     total cpu time spent up to now is       11.8 secs

     total energy              =    -263.16588173 Ry
     Harris-Foulkes estimate   =    -263.16588184 Ry
     estimated scf accuracy    <       0.00000198 Ry

     iteration # 15     ecut=    30.00 Ry     beta=0.70
     Davidson diagonalization with overlap
     ethr =  7.11E-10,  avg # of iterations =  1.0

     total cpu time spent up to now is       11.9 secs

     total energy              =    -263.16588171 Ry
     Harris-Foulkes estimate   =    -263.16588177 Ry
     estimated scf accuracy    <       0.00000031 Ry

     iteration # 16     ecut=    30.00 Ry     beta=0.70
     Davidson diagonalization with overlap
     ethr =  7.09E-10,  avg # of iterations =  1.0

     total cpu time spent up to now is       11.9 secs

     total energy              =    -263.16588161 Ry
     Harris-Foulkes estimate   =    -263.16588188 Ry
     estimated scf accuracy    <       0.00001231 Ry

     iteration # 17     ecut=    30.00 Ry     beta=0.70
     Davidson diagonalization with overlap
     ethr =  7.09E-10,  avg # of iterations =  1.0

     total cpu time spent up to now is       12.1 secs

     total energy              =    -263.16588175 Ry
     Harris-Foulkes estimate   =    -263.16588177 Ry
     estimated scf accuracy    <       0.00000009 Ry

     iteration # 18     ecut=    30.00 Ry     beta=0.70
     Davidson diagonalization with overlap
     ethr =  1.94E-10,  avg # of iterations =  1.0

     total cpu time spent up to now is       12.1 secs

     End of self-consistent calculation

          k = 0.0000 0.0000 0.0000 ( 22119 PWs)   bands (ev):

    -5.0084  -4.9852  -4.9826  -4.9454  -4.9367  -4.8928  -4.8728  -4.8708
    -4.8679  -4.8651  -4.8645  -4.8637  -4.8605  -4.8575  -4.8566  -4.8559
    -4.8474  -4.8435  -4.8142  -4.7874  -4.6491  -4.4166  -4.2836  -3.9171
    -0.1457  -0.1222

     the Fermi energy is    -4.5016 ev

!    total energy              =    -263.16588175 Ry
     Harris-Foulkes estimate   =    -263.16588175 Ry
     estimated scf accuracy    <          2.4E-09 Ry

     convergence has been achieved in  18 iterations

     Forces acting on atoms (Ry/au):

     atom    1 type  1   force =    -0.00016752   -0.00026924    0.00073170
     atom    2 type  1   force =     0.01877304    0.00081917    0.00073929
     atom    3 type  1   force =     0.00000638    0.00037792    0.01924515
     atom    4 type  1   force =    -0.01861189   -0.00092786   -0.02071614

     Total force =     0.038746     Total SCF correction =     0.000050

     Entering Dynamics:    iteration =     6
                           time      =   0.0290 pico-seconds


     Andersen thermostat:    4 collisions

ATOMIC_POSITIONS (bohr)
Au       0.008963867   0.028422068  -0.070885093
Au       0.001286909   8.021519334   8.011974872
Au       8.042112136   7.855593521   0.094525294
Au       7.947637088   8.094465076   7.964384927


     kinetic energy (Ekin) =     0.03586176 Ry
     temperature           =  1258.24830787 K 
     Ekin + Etot (const)   =  -263.13001999 Ry
     Message from routine dynamics:
     Total linear momentum <> 0

     Linear momentum :   -1.3485261580   -0.0968722065    0.5624519887

     Writing output data file pwscf.save

     second order wave-functions extrapolation
     Check: negative starting charge=   -0.003328
     second order charge density extrapolation
     Check: negative starting charge=   -0.003331

     negative rho (up, down):  8.042E-04 0.000E+00

     total cpu time spent up to now is       12.4 secs

     per-process dynamical memory:    23.1 Mb

     Self-consistent Calculation

     iteration #  1     ecut=    30.00 Ry     beta=0.70
     Davidson diagonalization with overlap
     ethr =  1.00E-06,  avg # of iterations =  9.0

     negative rho (up, down):  3.761E-05 0.000E+00

     total cpu time spent up to now is       12.6 secs

     total energy              =    -263.16854858 Ry
     Harris-Foulkes estimate   =    -263.16751453 Ry
     estimated scf accuracy    <       0.00110238 Ry

     iteration #  2     ecut=    30.00 Ry     beta=0.70
     Davidson diagonalization with overlap
     ethr =  2.51E-06,  avg # of iterations =  7.0

     negative rho (up, down):  3.596E-05 0.000E+00

     total cpu time spent up to now is       12.7 secs

     total energy              =    -263.16360962 Ry
     Harris-Foulkes estimate   =    -263.17932033 Ry
     estimated scf accuracy    <       0.56697295 Ry

     iteration #  3     ecut=    30.00 Ry     beta=0.70
     Davidson diagonalization with overlap
     ethr =  2.51E-06,  avg # of iterations =  3.0

     negative rho (up, down):  3.125E-05 0.000E+00

     total cpu time spent up to now is       12.8 secs

     total energy              =    -263.16768867 Ry
     Harris-Foulkes estimate   =    -263.17449190 Ry
     estimated scf accuracy    <       0.15162105 Ry

     iteration #  4     ecut=    30.00 Ry     beta=0.70
     Davidson diagonalization with overlap
     ethr =  2.51E-06,  avg # of iterations =  2.0

     negative rho (up, down):  2.979E-05 0.000E+00

     total cpu time spent up to now is       12.8 secs

     total energy              =    -263.16761729 Ry
     Harris-Foulkes estimate   =    -263.17019926 Ry
     estimated scf accuracy    <       0.08808548 Ry

     iteration #  5     ecut=    30.00 Ry     beta=0.70
     Davidson diagonalization with overlap
     ethr =  2.51E-06,  avg # of iterations =  1.0

     negative rho (up, down):  1.423E-05 0.000E+00

     total cpu time spent up to now is       12.9 secs

     total energy              =    -263.16878771 Ry
     Harris-Foulkes estimate   =    -263.16931126 Ry
     estimated scf accuracy    <       0.01012321 Ry

     iteration #  6     ecut=    30.00 Ry     beta=0.70
     Davidson diagonalization with overlap
     ethr =  2.51E-06,  avg # of iterations =  2.0

     negative rho (up, down):  3.515E-07 0.000E+00

     total cpu time spent up to now is       13.0 secs

     total energy              =    -263.16872475 Ry
     Harris-Foulkes estimate   =    -263.16931640 Ry
     estimated scf accuracy    <       0.01057707 Ry

     iteration #  7     ecut=    30.00 Ry     beta=0.70
     Davidson diagonalization with overlap
     ethr =  2.51E-06,  avg # of iterations =  1.0

     total cpu time spent up to now is       13.1 secs

     total energy              =    -263.16907891 Ry
     Harris-Foulkes estimate   =    -263.16928196 Ry
     estimated scf accuracy    <       0.00561786 Ry

     iteration #  8     ecut=    30.00 Ry     beta=0.70
     Davidson diagonalization with overlap
     ethr =  2.51E-06,  avg # of iterations =  1.0

     total cpu time spent up to now is       13.1 secs

     total energy              =    -263.16916209 Ry
     Harris-Foulkes estimate   =    -263.16917129 Ry
     estimated scf accuracy    <       0.00010342 Ry

     iteration #  9     ecut=    30.00 Ry     beta=0.70
     Davidson diagonalization with overlap
     ethr =  2.35E-07,  avg # of iterations =  1.0

     total cpu time spent up to now is       13.2 secs

     total energy              =    -263.16916524 Ry
     Harris-Foulkes estimate   =    -263.16916750 Ry
     estimated scf accuracy    <       0.00009087 Ry

     iteration # 10     ecut=    30.00 Ry     beta=0.70
     Davidson diagonalization with overlap
     ethr =  2.07E-07,  avg # of iterations =  1.0

     total cpu time spent up to now is       13.3 secs

     total energy              =    -263.16916566 Ry
     Harris-Foulkes estimate   =    -263.16916644 Ry
     estimated scf accuracy    <       0.00001823 Ry

     iteration # 11     ecut=    30.00 Ry     beta=0.70
     Davidson diagonalization with overlap
     ethr =  4.14E-08,  avg # of iterations =  1.0

     total cpu time spent up to now is       13.4 secs

     total energy              =    -263.16916636 Ry
     Harris-Foulkes estimate   =    -263.16916625 Ry
     estimated scf accuracy    <       0.00000068 Ry

     iteration # 12     ecut=    30.00 Ry     beta=0.70
     Davidson diagonalization with overlap
     ethr =  1.55E-09,  avg # of iterations =  3.0

     total cpu time spent up to now is       13.4 secs

     total energy              =    -263.16916630 Ry
     Harris-Foulkes estimate   =    -263.16916666 Ry
     estimated scf accuracy    <       0.00000597 Ry

     iteration # 13     ecut=    30.00 Ry     beta=0.70
     Davidson diagonalization with overlap
     ethr =  1.55E-09,  avg # of iterations =  1.0

     total cpu time spent up to now is       13.5 secs

     total energy              =    -263.16916642 Ry
     Harris-Foulkes estimate   =    -263.16916662 Ry
     estimated scf accuracy    <       0.00000814 Ry

     iteration # 14     ecut=    30.00 Ry     beta=0.70
     Davidson diagonalization with overlap
     ethr =  1.55E-09,  avg # of iterations =  1.0

     total cpu time spent up to now is       13.6 secs

     total energy              =    -263.16916649 Ry
     Harris-Foulkes estimate   =    -263.16916660 Ry
     estimated scf accuracy    <       0.00000330 Ry

     iteration # 15     ecut=    30.00 Ry     beta=0.70
     Davidson diagonalization with overlap
     ethr =  1.55E-09,  avg # of iterations =  1.0

     total cpu time spent up to now is       13.6 secs

     total energy              =    -263.16916648 Ry
     Harris-Foulkes estimate   =    -263.16916658 Ry
     estimated scf accuracy    <       0.00000149 Ry

     iteration # 16     ecut=    30.00 Ry     beta=0.70
     Davidson diagonalization with overlap
     ethr =  1.55E-09,  avg # of iterations =  1.0

     total cpu time spent up to now is       13.7 secs

     total energy              =    -263.16916652 Ry
     Harris-Foulkes estimate   =    -263.16916658 Ry
     estimated scf accuracy    <       0.00000251 Ry

     iteration # 17     ecut=    30.00 Ry     beta=0.70
     Davidson diagonalization with overlap
     ethr =  1.55E-09,  avg # of iterations =  1.0

     total cpu time spent up to now is       13.8 secs

     total energy              =    -263.16916655 Ry
     Harris-Foulkes estimate   =    -263.16916656 Ry
     estimated scf accuracy    <       0.00000004 Ry

     iteration # 18     ecut=    30.00 Ry     beta=0.70
     Davidson diagonalization with overlap
     ethr =  9.22E-11,  avg # of iterations =  1.0

     total cpu time spent up to now is       13.8 secs

     End of self-consistent calculation

          k = 0.0000 0.0000 0.0000 ( 22119 PWs)   bands (ev):

    -5.0218  -5.0071  -4.9952  -4.9537  -4.9491  -4.9033  -4.8775  -4.8761
    -4.8736  -4.8701  -4.8685  -4.8676  -4.8626  -4.8620  -4.8612  -4.8568
    -4.8528  -4.8502  -4.8154  -4.7875  -4.6546  -4.4201  -4.2834  -3.8982
    -0.1407  -0.1237

     the Fermi energy is    -4.5054 ev

!    total energy              =    -263.16916654 Ry
     Harris-Foulkes estimate   =    -263.16916656 Ry
     estimated scf accuracy    <          6.1E-09 Ry

     convergence has been achieved in  18 iterations

     Forces acting on atoms (Ry/au):

     atom    1 type  1   force =    -0.00019659    0.00114658    0.00026563
     atom    2 type  1   force =     0.01977733    0.00053869   -0.00121316
     atom    3 type  1   force =    -0.00106369   -0.00026107    0.01996116
     atom    4 type  1   force =    -0.01851705   -0.00142420   -0.01901362

     Total force =     0.038735     Total SCF correction =     0.000128

     Entering Dynamics:    iteration =     7
                           time      =   0.0339 pico-seconds


     Andersen thermostat:    4 collisions

ATOMIC_POSITIONS (bohr)
Au       0.011069704  -0.012918033  -0.018187766
Au      -0.032174441   8.027462447   7.963295772
Au       8.039615358   7.864898105   0.063980428
Au       7.981489379   8.120557481   7.990911565


     kinetic energy (Ekin) =     0.01644390 Ry
     temperature           =   576.95200474 K 
     Ekin + Etot (const)   =  -263.15272264 Ry
     Message from routine dynamics:
     Total linear momentum <> 0

     Linear momentum :   -0.1384404221    0.4026619940    0.0122118907

     Writing output data file pwscf.save

     second order wave-functions extrapolation
     Check: negative starting charge=   -0.003331
     second order charge density extrapolation
     Check: negative starting charge=   -0.003321

     negative rho (up, down):  3.196E-04 0.000E+00

     total cpu time spent up to now is       14.2 secs

     per-process dynamical memory:    23.1 Mb

     Self-consistent Calculation

     iteration #  1     ecut=    30.00 Ry     beta=0.70
     Davidson diagonalization with overlap
     ethr =  1.00E-06,  avg # of iterations =  6.0

     negative rho (up, down):  8.007E-06 0.000E+00

     total cpu time spent up to now is       14.3 secs

     total energy              =    -263.16659902 Ry
     Harris-Foulkes estimate   =    -263.16610675 Ry
     estimated scf accuracy    <       0.00037520 Ry

     iteration #  2     ecut=    30.00 Ry     beta=0.70
     Davidson diagonalization with overlap
     ethr =  8.53E-07,  avg # of iterations =  4.0

     negative rho (up, down):  7.618E-06 0.000E+00

     total cpu time spent up to now is       14.4 secs

     total energy              =    -263.16295214 Ry
     Harris-Foulkes estimate   =    -263.17022614 Ry
     estimated scf accuracy    <       0.29578701 Ry

     iteration #  3     ecut=    30.00 Ry     beta=0.70
     Davidson diagonalization with overlap
     ethr =  8.53E-07,  avg # of iterations =  2.0

     negative rho (up, down):  2.486E-06 0.000E+00

     total cpu time spent up to now is       14.5 secs

     total energy              =    -263.16658429 Ry
     Harris-Foulkes estimate   =    -263.16681717 Ry
     estimated scf accuracy    <       0.00292572 Ry

     iteration #  4     ecut=    30.00 Ry     beta=0.70
     Davidson diagonalization with overlap
     ethr =  8.53E-07,  avg # of iterations =  2.0

     negative rho (up, down):  1.713E-06 0.000E+00

     total cpu time spent up to now is       14.6 secs

     total energy              =    -263.16650764 Ry
     Harris-Foulkes estimate   =    -263.16683568 Ry
     estimated scf accuracy    <       0.00508826 Ry

     iteration #  5     ecut=    30.00 Ry     beta=0.70
     Davidson diagonalization with overlap
     ethr =  8.53E-07,  avg # of iterations =  1.0

     total cpu time spent up to now is       14.6 secs

     total energy              =    -263.16648768 Ry
     Harris-Foulkes estimate   =    -263.16703159 Ry
     estimated scf accuracy    <       0.02010653 Ry

     iteration #  6     ecut=    30.00 Ry     beta=0.70
     Davidson diagonalization with overlap
     ethr =  8.53E-07,  avg # of iterations =  1.0

     total cpu time spent up to now is       14.7 secs

     total energy              =    -263.16664885 Ry
     Harris-Foulkes estimate   =    -263.16679896 Ry
     estimated scf accuracy    <       0.00317329 Ry

     iteration #  7     ecut=    30.00 Ry     beta=0.70
     Davidson diagonalization with overlap
     ethr =  8.53E-07,  avg # of iterations =  1.0

     total cpu time spent up to now is       14.8 secs

     total energy              =    -263.16671109 Ry
     Harris-Foulkes estimate   =    -263.16678876 Ry
     estimated scf accuracy    <       0.00249348 Ry

     iteration #  8     ecut=    30.00 Ry     beta=0.70
     Davidson diagonalization with overlap
     ethr =  8.53E-07,  avg # of iterations =  1.0

     total cpu time spent up to now is       14.8 secs

     total energy              =    -263.16674794 Ry
     Harris-Foulkes estimate   =    -263.16674944 Ry
     estimated scf accuracy    <       0.00000730 Ry

     iteration #  9     ecut=    30.00 Ry     beta=0.70
     Davidson diagonalization with overlap
     ethr =  1.66E-08,  avg # of iterations =  2.0

     total cpu time spent up to now is       14.9 secs

     total energy              =    -263.16674851 Ry
     Harris-Foulkes estimate   =    -263.16674884 Ry
     estimated scf accuracy    <       0.00000137 Ry

     iteration # 10     ecut=    30.00 Ry     beta=0.70
     Davidson diagonalization with overlap
     ethr =  3.11E-09,  avg # of iterations =  2.0

     total cpu time spent up to now is       15.0 secs

     total energy              =    -263.16674848 Ry
     Harris-Foulkes estimate   =    -263.16674874 Ry
     estimated scf accuracy    <       0.00000036 Ry

     iteration # 11     ecut=    30.00 Ry     beta=0.70
     Davidson diagonalization with overlap
     ethr =  8.11E-10,  avg # of iterations =  2.0

     total cpu time spent up to now is       15.1 secs

     total energy              =    -263.16674857 Ry
     Harris-Foulkes estimate   =    -263.16674854 Ry
     estimated scf accuracy    <       0.00000009 Ry

     iteration # 12     ecut=    30.00 Ry     beta=0.70
     Davidson diagonalization with overlap
     ethr =  2.14E-10,  avg # of iterations =  2.0

     total cpu time spent up to now is       15.1 secs

     total energy              =    -263.16674865 Ry
     Harris-Foulkes estimate   =    -263.16674858 Ry
     estimated scf accuracy    <       0.00000006 Ry

     iteration # 13     ecut=    30.00 Ry     beta=0.70
     Davidson diagonalization with overlap
     ethr =  1.38E-10,  avg # of iterations =  2.0

     total cpu time spent up to now is       15.2 secs

     total energy              =    -263.16674866 Ry
     Harris-Foulkes estimate   =    -263.16674867 Ry
     estimated scf accuracy    <       0.00000102 Ry

     iteration # 14     ecut=    30.00 Ry     beta=0.70
     Davidson diagonalization with overlap
     ethr =  1.38E-10,  avg # of iterations =  1.0

     total cpu time spent up to now is       15.3 secs

     total energy              =    -263.16674877 Ry
     Harris-Foulkes estimate   =    -263.16674868 Ry
     estimated scf accuracy    <       0.00000004 Ry

     iteration # 15     ecut=    30.00 Ry     beta=0.70
     Davidson diagonalization with overlap
     ethr =  9.44E-11,  avg # of iterations =  2.0

     total cpu time spent up to now is       15.4 secs

     total energy              =    -263.16674880 Ry
     Harris-Foulkes estimate   =    -263.16674877 Ry
     estimated scf accuracy    <       0.00000027 Ry

     iteration # 16     ecut=    30.00 Ry     beta=0.70
     Davidson diagonalization with overlap
     ethr =  9.44E-11,  avg # of iterations =  2.0

     total cpu time spent up to now is       15.4 secs

     total energy              =    -263.16674881 Ry
     Harris-Foulkes estimate   =    -263.16674881 Ry
     estimated scf accuracy    <       0.00000026 Ry

     iteration # 17     ecut=    30.00 Ry     beta=0.70
     Davidson diagonalization with overlap
     ethr =  9.44E-11,  avg # of iterations =  2.0

     total cpu time spent up to now is       15.5 secs

     total energy              =    -263.16674875 Ry
     Harris-Foulkes estimate   =    -263.16674888 Ry
     estimated scf accuracy    <       0.00000473 Ry

     iteration # 18     ecut=    30.00 Ry     beta=0.70
     Davidson diagonalization with overlap
     ethr =  9.44E-11,  avg # of iterations =  1.0

     total cpu time spent up to now is       15.5 secs

     End of self-consistent calculation

          k = 0.0000 0.0000 0.0000 ( 22119 PWs)   bands (ev):

    -5.0077  -4.9933  -4.9856  -4.9454  -4.9403  -4.8964  -4.8739  -4.8726
    -4.8684  -4.8671  -4.8645  -4.8642  -4.8600  -4.8585  -4.8573  -4.8548
    -4.8496  -4.8467  -4.8161  -4.7880  -4.6501  -4.4175  -4.2844  -3.9115
    -0.1426  -0.1228

     the Fermi energy is    -4.5027 ev

!    total energy              =    -263.16674881 Ry
     Harris-Foulkes estimate   =    -263.16674881 Ry
     estimated scf accuracy    <          1.7E-09 Ry

     convergence has been achieved in  18 iterations

     Forces acting on atoms (Ry/au):

     atom    1 type  1   force =    -0.00037000    0.00094771   -0.00026652
     atom    2 type  1   force =     0.01922158    0.00129824    0.00017857
     atom    3 type  1   force =    -0.00130133   -0.00008648    0.01867298
     atom    4 type  1   force =    -0.01755024   -0.00215947   -0.01858503

     Total force =     0.037158     Total SCF correction =     0.000063

     Entering Dynamics:    iteration =     8
                           time      =   0.0387 pico-seconds


     Andersen thermostat:    4 collisions

ATOMIC_POSITIONS (bohr)
Au      -0.027185515  -0.027180275  -0.034042747
Au      -0.072801160   8.026813962   8.059551272
Au       8.045565882   7.919652554  -0.024043472
Au       8.054420793   8.080713760   7.998534947


     kinetic energy (Ekin) =     0.04341387 Ry
     temperature           =  1523.22230906 K 
     Ekin + Etot (const)   =  -263.12333493 Ry
     Message from routine dynamics:
[...]
     Harris-Foulkes estimate   =    -263.31449609 Ry
     estimated scf accuracy    <       0.00002270 Ry

     iteration # 53     ecut=    30.00 Ry     beta=0.70
     Davidson diagonalization with overlap
     ethr =  3.97E-08,  avg # of iterations =  2.0

     total cpu time spent up to now is      165.8 secs

     total energy              =    -263.31450309 Ry
     Harris-Foulkes estimate   =    -263.31450505 Ry
     estimated scf accuracy    <       0.00002333 Ry

     iteration # 54     ecut=    30.00 Ry     beta=0.70
     Davidson diagonalization with overlap
     ethr =  3.97E-08,  avg # of iterations =  1.0

     total cpu time spent up to now is      165.9 secs

     total energy              =    -263.31449394 Ry
     Harris-Foulkes estimate   =    -263.31450305 Ry
     estimated scf accuracy    <       0.00002357 Ry

     iteration # 55     ecut=    30.00 Ry     beta=0.70
     Davidson diagonalization with overlap
     ethr =  3.97E-08,  avg # of iterations =  2.0

     total cpu time spent up to now is      166.0 secs

     total energy              =    -263.31448782 Ry
     Harris-Foulkes estimate   =    -263.31449198 Ry
     estimated scf accuracy    <       0.00002584 Ry

     iteration # 56     ecut=    30.00 Ry     beta=0.70
     Davidson diagonalization with overlap
     ethr =  3.97E-08,  avg # of iterations =  1.0

     total cpu time spent up to now is      166.0 secs

     total energy              =    -263.31447393 Ry
     Harris-Foulkes estimate   =    -263.31448734 Ry
     estimated scf accuracy    <       0.00003333 Ry

     iteration # 57     ecut=    30.00 Ry     beta=0.70
     Davidson diagonalization with overlap
     ethr =  3.97E-08,  avg # of iterations =  2.0

     total cpu time spent up to now is      166.1 secs

     total energy              =    -263.31446347 Ry
     Harris-Foulkes estimate   =    -263.31446745 Ry
     estimated scf accuracy    <       0.00007954 Ry

     iteration # 58     ecut=    30.00 Ry     beta=0.70
     Davidson diagonalization with overlap
     ethr =  3.97E-08,  avg # of iterations =  1.0

     total cpu time spent up to now is      166.2 secs

     total energy              =    -263.31451029 Ry
     Harris-Foulkes estimate   =    -263.31446325 Ry
     estimated scf accuracy    <       0.00009390 Ry

     iteration # 59     ecut=    30.00 Ry     beta=0.70
     Davidson diagonalization with overlap
     ethr =  3.97E-08,  avg # of iterations =  3.0

     total cpu time spent up to now is      166.3 secs

     total energy              =    -263.31450587 Ry
     Harris-Foulkes estimate   =    -263.31449210 Ry
     estimated scf accuracy    <       0.00002400 Ry

     iteration # 60     ecut=    30.00 Ry     beta=0.70
     Davidson diagonalization with overlap
     ethr =  3.97E-08,  avg # of iterations =  2.0

     total cpu time spent up to now is      166.4 secs

     total energy              =    -263.31453622 Ry
     Harris-Foulkes estimate   =    -263.31450332 Ry
     estimated scf accuracy    <       0.00002320 Ry

     iteration # 61     ecut=    30.00 Ry     beta=0.70
     Davidson diagonalization with overlap
     ethr =  3.97E-08,  avg # of iterations =  3.0

     total cpu time spent up to now is      166.4 secs

     total energy              =    -263.31454559 Ry
     Harris-Foulkes estimate   =    -263.31453400 Ry
     estimated scf accuracy    <       0.00007206 Ry

     iteration # 62     ecut=    30.00 Ry     beta=0.70
     Davidson diagonalization with overlap
     ethr =  3.97E-08,  avg # of iterations =  1.0

     total cpu time spent up to now is      166.5 secs

     total energy              =    -263.31452585 Ry
     Harris-Foulkes estimate   =    -263.31454596 Ry
     estimated scf accuracy    <       0.00010298 Ry

     iteration # 63     ecut=    30.00 Ry     beta=0.70
     Davidson diagonalization with overlap
     ethr =  3.97E-08,  avg # of iterations =  2.0

     total cpu time spent up to now is      166.6 secs

     total energy              =    -263.31455066 Ry
     Harris-Foulkes estimate   =    -263.31452686 Ry
     estimated scf accuracy    <       0.00005663 Ry

     iteration # 64     ecut=    30.00 Ry     beta=0.70
     Davidson diagonalization with overlap
     ethr =  3.97E-08,  avg # of iterations =  2.0

     total cpu time spent up to now is      166.7 secs

     total energy              =    -263.31459695 Ry
     Harris-Foulkes estimate   =    -263.31455213 Ry
     estimated scf accuracy    <       0.00012181 Ry

     iteration # 65     ecut=    30.00 Ry     beta=0.70
     Davidson diagonalization with overlap
     ethr =  3.97E-08,  avg # of iterations =  3.0

     total cpu time spent up to now is      166.8 secs

     total energy              =    -263.31463913 Ry
     Harris-Foulkes estimate   =    -263.31460283 Ry
     estimated scf accuracy    <       0.00030725 Ry

     iteration # 66     ecut=    30.00 Ry     beta=0.70
     Davidson diagonalization with overlap
     ethr =  3.97E-08,  avg # of iterations =  2.0

     total cpu time spent up to now is      166.8 secs

     total energy              =    -263.31462242 Ry
     Harris-Foulkes estimate   =    -263.31464160 Ry
     estimated scf accuracy    <       0.00047807 Ry

     iteration # 67     ecut=    30.00 Ry     beta=0.70
     Davidson diagonalization with overlap
     ethr =  3.97E-08,  avg # of iterations =  1.0

     total cpu time spent up to now is      166.9 secs

     total energy              =    -263.31441583 Ry
     Harris-Foulkes estimate   =    -263.31462296 Ry
     estimated scf accuracy    <       0.00039869 Ry

     iteration # 68     ecut=    30.00 Ry     beta=0.70
     Davidson diagonalization with overlap
     ethr =  3.97E-08,  avg # of iterations =  4.0

     total cpu time spent up to now is      167.0 secs

     total energy              =    -263.31447862 Ry
     Harris-Foulkes estimate   =    -263.31448413 Ry
     estimated scf accuracy    <       0.00003844 Ry

     iteration # 69     ecut=    30.00 Ry     beta=0.70
     Davidson diagonalization with overlap
     ethr =  3.97E-08,  avg # of iterations =  1.0

     total cpu time spent up to now is      167.1 secs

     total energy              =    -263.31445356 Ry
     Harris-Foulkes estimate   =    -263.31447782 Ry
     estimated scf accuracy    <       0.00005036 Ry

     iteration # 70     ecut=    30.00 Ry     beta=0.70
     Davidson diagonalization with overlap
     ethr =  3.97E-08,  avg # of iterations =  2.0

     total cpu time spent up to now is      167.2 secs

     total energy              =    -263.31441023 Ry
     Harris-Foulkes estimate   =    -263.31443026 Ry
     estimated scf accuracy    <       0.00026586 Ry

     iteration # 71     ecut=    30.00 Ry     beta=0.70
     Davidson diagonalization with overlap
     ethr =  3.97E-08,  avg # of iterations =  2.0

     total cpu time spent up to now is      167.2 secs

     total energy              =    -263.31444119 Ry
     Harris-Foulkes estimate   =    -263.31440690 Ry
     estimated scf accuracy    <       0.00042892 Ry

     iteration # 72     ecut=    30.00 Ry     beta=0.70
     Davidson diagonalization with overlap
     ethr =  3.97E-08,  avg # of iterations =  2.0

     total cpu time spent up to now is      167.3 secs

     total energy              =    -263.31447905 Ry
     Harris-Foulkes estimate   =    -263.31443558 Ry
     estimated scf accuracy    <       0.00023041 Ry

     iteration # 73     ecut=    30.00 Ry     beta=0.70
     Davidson diagonalization with overlap
     ethr =  3.97E-08,  avg # of iterations =  3.0

     total cpu time spent up to now is      167.4 secs

     total energy              =    -263.31444984 Ry
     Harris-Foulkes estimate   =    -263.31446738 Ry
     estimated scf accuracy    <       0.00008313 Ry

     iteration # 74     ecut=    30.00 Ry     beta=0.70
     Davidson diagonalization with overlap
     ethr =  3.97E-08,  avg # of iterations =  2.0

     total cpu time spent up to now is      167.5 secs

     total energy              =    -263.31442268 Ry
     Harris-Foulkes estimate   =    -263.31444324 Ry
     estimated scf accuracy    <       0.00018892 Ry

     iteration # 75     ecut=    30.00 Ry     beta=0.70
     Davidson diagonalization with overlap
     ethr =  3.97E-08,  avg # of iterations =  2.0

     total cpu time spent up to now is      167.6 secs

     total energy              =    -263.31439903 Ry
     Harris-Foulkes estimate   =    -263.31441828 Ry
     estimated scf accuracy    <       0.00034035 Ry

     iteration # 76     ecut=    30.00 Ry     beta=0.70
     Davidson diagonalization with overlap
     ethr =  3.97E-08,  avg # of iterations =  1.0

     total cpu time spent up to now is      167.6 secs

     total energy              =    -263.31463912 Ry
     Harris-Foulkes estimate   =    -263.31439656 Ry
     estimated scf accuracy    <       0.00050000 Ry

     iteration # 77     ecut=    30.00 Ry     beta=0.70
     Davidson diagonalization with overlap
     ethr =  3.97E-08,  avg # of iterations =  4.0

     total cpu time spent up to now is      167.7 secs

     total energy              =    -263.31449897 Ry
     Harris-Foulkes estimate   =    -263.31449633 Ry
     estimated scf accuracy    <       0.00002229 Ry

     iteration # 78     ecut=    30.00 Ry     beta=0.70
     Davidson diagonalization with overlap
     ethr =  3.97E-08,  avg # of iterations =  1.0

     total cpu time spent up to now is      167.8 secs

     total energy              =    -263.31450705 Ry
     Harris-Foulkes estimate   =    -263.31449888 Ry
     estimated scf accuracy    <       0.00002270 Ry

     iteration # 79     ecut=    30.00 Ry     beta=0.70
     Davidson diagonalization with overlap
     ethr =  3.97E-08,  avg # of iterations =  2.0

     total cpu time spent up to now is      167.9 secs

     total energy              =    -263.31450912 Ry
     Harris-Foulkes estimate   =    -263.31450637 Ry
     estimated scf accuracy    <       0.00002172 Ry

     iteration # 80     ecut=    30.00 Ry     beta=0.70
     Davidson diagonalization with overlap
     ethr =  3.97E-08,  avg # of iterations =  1.0

     total cpu time spent up to now is      168.0 secs

     total energy              =    -263.31451685 Ry
     Harris-Foulkes estimate   =    -263.31450911 Ry
     estimated scf accuracy    <       0.00002667 Ry

     iteration # 81     ecut=    30.00 Ry     beta=0.70
     Davidson diagonalization with overlap
     ethr =  3.97E-08,  avg # of iterations =  1.0

     total cpu time spent up to now is      168.0 secs

     total energy              =    -263.31452414 Ry
     Harris-Foulkes estimate   =    -263.31451671 Ry
     estimated scf accuracy    <       0.00003488 Ry

     iteration # 82     ecut=    30.00 Ry     beta=0.70
     Davidson diagonalization with overlap
     ethr =  3.97E-08,  avg # of iterations =  1.0

     total cpu time spent up to now is      168.1 secs

     total energy              =    -263.31452776 Ry
     Harris-Foulkes estimate   =    -263.31452429 Ry
     estimated scf accuracy    <       0.00004934 Ry

     iteration # 83     ecut=    30.00 Ry     beta=0.70
     Davidson diagonalization with overlap
     ethr =  3.97E-08,  avg # of iterations =  1.0

     total cpu time spent up to now is      168.2 secs

     total energy              =    -263.31456735 Ry
     Harris-Foulkes estimate   =    -263.31452786 Ry
     estimated scf accuracy    <       0.00005825 Ry

     iteration # 84     ecut=    30.00 Ry     beta=0.70
     Davidson diagonalization with overlap
     ethr =  3.97E-08,  avg # of iterations =  3.0

     total cpu time spent up to now is      168.3 secs

     total energy              =    -263.31459212 Ry
     Harris-Foulkes estimate   =    -263.31457293 Ry
     estimated scf accuracy    <       0.00019247 Ry

     iteration # 85     ecut=    30.00 Ry     beta=0.70
     Davidson diagonalization with overlap
     ethr =  3.97E-08,  avg # of iterations =  2.0

     total cpu time spent up to now is      168.3 secs

     total energy              =    -263.31443762 Ry
     Harris-Foulkes estimate   =    -263.31459296 Ry
     estimated scf accuracy    <       0.00026431 Ry

     iteration # 86     ecut=    30.00 Ry     beta=0.70
     Davidson diagonalization with overlap
     ethr =  3.97E-08,  avg # of iterations =  4.0

     total cpu time spent up to now is      168.4 secs

     total energy              =    -263.31445878 Ry
     Harris-Foulkes estimate   =    -263.31446923 Ry
     estimated scf accuracy    <       0.00007490 Ry

     iteration # 87     ecut=    30.00 Ry     beta=0.70
     Davidson diagonalization with overlap
     ethr =  3.97E-08,  avg # of iterations =  2.0

     total cpu time spent up to now is      168.5 secs

     total energy              =    -263.31440463 Ry
     Harris-Foulkes estimate   =    -263.31445667 Ry
     estimated scf accuracy    <       0.00012209 Ry

     iteration # 88     ecut=    30.00 Ry     beta=0.70
     Davidson diagonalization with overlap
     ethr =  3.97E-08,  avg # of iterations =  3.0

     total cpu time spent up to now is      168.6 secs

     total energy              =    -263.31493646 Ry
     Harris-Foulkes estimate   =    -263.31434052 Ry
     estimated scf accuracy    <       0.00103328 Ry

     iteration # 89     ecut=    30.00 Ry     beta=0.70
     Davidson diagonalization with overlap
     ethr =  3.97E-08,  avg # of iterations =  4.0

     total cpu time spent up to now is      168.7 secs

     total energy              =    -263.31452157 Ry
     Harris-Foulkes estimate   =    -263.31451951 Ry
     estimated scf accuracy    <       0.00004262 Ry

     iteration # 90     ecut=    30.00 Ry     beta=0.70
     Davidson diagonalization with overlap
     ethr =  3.97E-08,  avg # of iterations =  1.0

     total cpu time spent up to now is      168.8 secs

     total energy              =    -263.31455828 Ry
     Harris-Foulkes estimate   =    -263.31452160 Ry
     estimated scf accuracy    <       0.00004452 Ry

     iteration # 91     ecut=    30.00 Ry     beta=0.70
     Davidson diagonalization with overlap
     ethr =  3.97E-08,  avg # of iterations =  3.0

     total cpu time spent up to now is      168.9 secs

     total energy              =    -263.31454911 Ry
     Harris-Foulkes estimate   =    -263.31456218 Ry
     estimated scf accuracy    <       0.00015349 Ry

     iteration # 92     ecut=    30.00 Ry     beta=0.70
     Davidson diagonalization with overlap
     ethr =  3.97E-08,  avg # of iterations =  1.0

     total cpu time spent up to now is      169.0 secs

     total energy              =    -263.31453643 Ry
     Harris-Foulkes estimate   =    -263.31454955 Ry
     estimated scf accuracy    <       0.00011857 Ry

     iteration # 93     ecut=    30.00 Ry     beta=0.70
     Davidson diagonalization with overlap
     ethr =  3.97E-08,  avg # of iterations =  2.0

     total cpu time spent up to now is      169.0 secs

     total energy              =    -263.31458587 Ry
     Harris-Foulkes estimate   =    -263.31453700 Ry
     estimated scf accuracy    <       0.00008433 Ry

     iteration # 94     ecut=    30.00 Ry     beta=0.70
     Davidson diagonalization with overlap
     ethr =  3.97E-08,  avg # of iterations =  2.0

     total cpu time spent up to now is      169.1 secs

     total energy              =    -263.31460661 Ry
     Harris-Foulkes estimate   =    -263.31459250 Ry
     estimated scf accuracy    <       0.00026864 Ry

     iteration # 95     ecut=    30.00 Ry     beta=0.70
     Davidson diagonalization with overlap
     ethr =  3.97E-08,  avg # of iterations =  1.0

     total cpu time spent up to now is      169.2 secs

     total energy              =    -263.31460817 Ry
     Harris-Foulkes estimate   =    -263.31460705 Ry
     estimated scf accuracy    <       0.00032336 Ry

     iteration # 96     ecut=    30.00 Ry     beta=0.70
     Davidson diagonalization with overlap
     ethr =  3.97E-08,  avg # of iterations =  1.0

     total cpu time spent up to now is      169.3 secs

     total energy              =    -263.31458796 Ry
     Harris-Foulkes estimate   =    -263.31460821 Ry
     estimated scf accuracy    <       0.00032902 Ry

     iteration # 97     ecut=    30.00 Ry     beta=0.70
     Davidson diagonalization with overlap
     ethr =  3.97E-08,  avg # of iterations =  1.0

     total cpu time spent up to now is      169.3 secs

     total energy              =    -263.31446676 Ry
     Harris-Foulkes estimate   =    -263.31458861 Ry
     estimated scf accuracy    <       0.00025511 Ry

     iteration # 98     ecut=    30.00 Ry     beta=0.70
     Davidson diagonalization with overlap
     ethr =  3.97E-08,  avg # of iterations =  4.0

     total cpu time spent up to now is      169.4 secs

     total energy              =    -263.31449432 Ry
     Harris-Foulkes estimate   =    -263.31449842 Ry
     estimated scf accuracy    <       0.00002423 Ry

     iteration # 99     ecut=    30.00 Ry     beta=0.70
     Davidson diagonalization with overlap
     ethr =  3.97E-08,  avg # of iterations =  1.0

     total cpu time spent up to now is      169.5 secs

     total energy              =    -263.31448360 Ry
     Harris-Foulkes estimate   =    -263.31449391 Ry
     estimated scf accuracy    <       0.00002556 Ry

     iteration #100     ecut=    30.00 Ry     beta=0.70
     Davidson diagonalization with overlap
     ethr =  3.97E-08,  avg # of iterations =  2.0

     total cpu time spent up to now is      169.6 secs

     total energy              =    -263.31446606 Ry
     Harris-Foulkes estimate   =    -263.31448001 Ry
     estimated scf accuracy    <       0.00004534 Ry

     End of self-consistent calculation

     convergence NOT achieved after 100 iterations: stopping

     Writing output data file pwscf.save
 
     init_run     :      0.07s CPU      0.36s WALL (       1 calls)
     electrons    :    126.56s CPU    145.95s WALL (      85 calls)
     update_pot   :     10.89s CPU     15.77s WALL (      84 calls)
     forces       :      2.07s CPU      2.17s WALL (      84 calls)

     Called by init_run:
     wfcinit      :      0.02s CPU      0.20s WALL (       1 calls)
     potinit      :      0.01s CPU      0.03s WALL (       1 calls)

     Called by electrons:
     c_bands      :     84.88s CPU     88.67s WALL (    1720 calls)
     sum_band     :     14.10s CPU     14.89s WALL (    1720 calls)
     v_of_rho     :     13.47s CPU     14.03s WALL (    1804 calls)
     mix_rho      :     12.11s CPU     20.96s WALL (    1720 calls)

     Called by c_bands:
     init_us_2    :      1.63s CPU      1.94s WALL (    3441 calls)
     cegterg      :     75.57s CPU     78.10s WALL (    1720 calls)

     Called by sum_band:

     Called by *egterg:
     h_psi        :     58.20s CPU     60.44s WALL (    5218 calls)
     g_psi        :      0.42s CPU      0.43s WALL (    3497 calls)
     cdiaghg      :      6.72s CPU      6.78s WALL (    5132 calls)

     Called by h_psi:
     h_psi:pot    :     57.75s CPU     59.89s WALL (    5218 calls)
     h_psi:calbec :      3.38s CPU      3.53s WALL (    5218 calls)
     vloc_psi     :     52.23s CPU     54.19s WALL (    5218 calls)
     add_vuspsi   :      2.14s CPU      2.15s WALL (    5218 calls)

     General routines
     calbec       :      5.19s CPU      5.85s WALL (    5637 calls)
     fft          :      8.46s CPU      8.93s WALL (   20014 calls)
     fftw         :     60.45s CPU     60.17s WALL (  253800 calls)
     davcio       :      1.77s CPU      7.06s WALL (   26828 calls)
 
     Parallel routines
     fft_scatter  :     25.40s CPU     26.30s WALL (  273814 calls)
 
     PWSCF        :  2m21.90s CPU     2m49.71s WALL

 
   This run was terminated on:   7:47:13  18Jun2017            

=------------------------------------------------------------------------------=
   JOB DONE.
=------------------------------------------------------------------------------=
