
     Program PWSCF v.6.0 (svn rev. 13079) starts on 18Jun2017 at  7:52:18 

     This program is part of the open-source Quantum ESPRESSO suite
     for quantum simulation of materials; please cite
         "P. Giannozzi et al., J. Phys.:Condens. Matter 21 395502 (2009);
          URL http://www.quantum-espresso.org", 
     in publications or presentations arising from this work. More details at
     http://www.quantum-espresso.org/quote

     Parallel version (MPI), running on    28 processors
     R & G space division:  proc/nbgrp/npool/nimage =      28
     Waiting for input...
     Reading input from standard input

     Current dimensions of program PWSCF are:
     Max number of different atomic species (ntypx) = 10
     Max number of k-points (npk) =  40000
     Max angular momentum in pseudopotentials (lmaxx) =  3

     Subspace diagonalization in iterative solution of the eigenvalue problem:
     a serial algorithm will be used

 
     Parallelization info
     --------------------
     sticks:   dense  smooth     PW     G-vecs:    dense   smooth      PW
     Min         136     136     33                 6338     6338     787
     Max         137     137     34                 6341     6341     792
     Sum        3809    3809    949               177509   177509   22119
 


     bravais-lattice index     =            1
     lattice parameter (alat)  =      20.0000  a.u.
     unit-cell volume          =    8000.0000 (a.u.)^3
     number of atoms/cell      =            4
     number of atomic types    =            1
     number of electrons       =        44.00
     number of Kohn-Sham states=           26
     kinetic-energy cutoff     =      30.0000  Ry
     charge density cutoff     =     120.0000  Ry
     convergence threshold     =      1.0E-08
     mixing beta               =       0.7000
     number of iterations used =            8  plain     mixing
     Exchange-correlation      = BLYP ( 1  3  1  3 0 0)
     nstep                     =         1000


     celldm(1)=  20.000000  celldm(2)=   0.000000  celldm(3)=   0.000000
     celldm(4)=   0.000000  celldm(5)=   0.000000  celldm(6)=   0.000000

     crystal axes: (cart. coord. in units of alat)
               a(1) = (   1.000000   0.000000   0.000000 )  
               a(2) = (   0.000000   1.000000   0.000000 )  
               a(3) = (   0.000000   0.000000   1.000000 )  

     reciprocal axes: (cart. coord. in units 2 pi/alat)
               b(1) = (  1.000000  0.000000  0.000000 )  
               b(2) = (  0.000000  1.000000  0.000000 )  
               b(3) = (  0.000000  0.000000  1.000000 )  


     PseudoPot. # 1 for Au read from file:
     ./Au.blyp-d-hgh.UPF
     MD5 check sum: c10d8bae01f806c36a1643a1c69a8479
     Pseudo is Norm-conserving, Zval = 11.0
     Generated in analytical, separable form
     Using radial grid of 1279 points,  6 beta functions with: 
                l(1) =   0
                l(2) =   0
                l(3) =   1
                l(4) =   1
                l(5) =   2
                l(6) =   2

     atomic species   valence    mass     pseudopotential
        Au            11.00    28.08600     Au( 1.00)

     No symmetry found



   Cartesian axes

     site n.     atom                  positions (alat units)
         1           Au  tau(   1) = (   0.0000000   0.0000000   0.0000000  )
         2           Au  tau(   2) = (   0.0000000   0.6000000   0.6000000  )
         3           Au  tau(   3) = (   0.6000000   0.6000000   0.0000000  )
         4           Au  tau(   4) = (   0.6000000   0.6000000   0.6000000  )

     number of k points=     1  Marzari-Vanderbilt smearing, width (Ry)=  0.0250
                       cart. coord. in units 2pi/alat
        k(    1) = (   0.0000000   0.0000000   0.0000000), wk =   2.0000000

     Dense  grid:   177509 G-vectors     FFT dimensions: (  72,  72,  72)

     Estimated max dynamical RAM per process >       6.09Mb

     Estimated total allocated dynamical RAM >     170.64Mb

     Initial potential from superposition of free atoms
     Check: negative starting charge=   -0.003322

     starting charge   43.99952, renormalised to   44.00000

     negative rho (up, down):  3.322E-03 0.000E+00
     Starting wfc are   36 randomized atomic wfcs

     total cpu time spent up to now is        0.5 secs

     per-process dynamical memory:    20.3 Mb

     Self-consistent Calculation

     iteration #  1     ecut=    30.00 Ry     beta=0.70
     Davidson diagonalization with overlap
     ethr =  1.00E-02,  avg # of iterations =  2.0

     Threshold (ethr) on eigenvalues was too large:
     Diagonalizing with lowered threshold

     Davidson diagonalization with overlap
     ethr =  3.47E-04,  avg # of iterations =  2.0

     negative rho (up, down):  3.879E-04 0.000E+00

     total cpu time spent up to now is        0.6 secs

     total energy              =    -263.09236443 Ry
     Harris-Foulkes estimate   =    -263.16658173 Ry
     estimated scf accuracy    <       0.13207135 Ry

     iteration #  2     ecut=    30.00 Ry     beta=0.70
     Davidson diagonalization with overlap
     ethr =  3.00E-04,  avg # of iterations =  3.0

     negative rho (up, down):  3.146E-04 0.000E+00

     total cpu time spent up to now is        0.7 secs

     total energy              =    -262.79631436 Ry
     Harris-Foulkes estimate   =    -263.44696564 Ry
     estimated scf accuracy    <       6.56064757 Ry

     iteration #  3     ecut=    30.00 Ry     beta=0.70
     Davidson diagonalization with overlap
     ethr =  3.00E-04,  avg # of iterations =  3.0

     negative rho (up, down):  2.478E-04 0.000E+00

     total cpu time spent up to now is        0.8 secs

     total energy              =    -262.85916539 Ry
     Harris-Foulkes estimate   =    -263.40272539 Ry
     estimated scf accuracy    <       5.08268368 Ry

     iteration #  4     ecut=    30.00 Ry     beta=0.70
     Davidson diagonalization with overlap
     ethr =  3.00E-04,  avg # of iterations =  2.0

     negative rho (up, down):  1.960E-04 0.000E+00

     total cpu time spent up to now is        0.9 secs

     total energy              =    -262.99197318 Ry
     Harris-Foulkes estimate   =    -263.54439745 Ry
     estimated scf accuracy    <       7.61446777 Ry

     iteration #  5     ecut=    30.00 Ry     beta=0.70
     Davidson diagonalization with overlap
     ethr =  3.00E-04,  avg # of iterations =  3.0

     negative rho (up, down):  1.402E-04 0.000E+00

     total cpu time spent up to now is        1.0 secs

     total energy              =    -263.16067793 Ry
     Harris-Foulkes estimate   =    -263.17232907 Ry
     estimated scf accuracy    <       0.10883938 Ry

     iteration #  6     ecut=    30.00 Ry     beta=0.70
     Davidson diagonalization with overlap
     ethr =  2.47E-04,  avg # of iterations =  1.0

     negative rho (up, down):  1.868E-06 0.000E+00

     total cpu time spent up to now is        1.1 secs

     total energy              =    -263.16709777 Ry
     Harris-Foulkes estimate   =    -263.18957082 Ry
     estimated scf accuracy    <       0.75385666 Ry

     iteration #  7     ecut=    30.00 Ry     beta=0.70
     Davidson diagonalization with overlap
     ethr =  2.47E-04,  avg # of iterations =  1.0

     total cpu time spent up to now is        1.1 secs

     total energy              =    -263.16543594 Ry
     Harris-Foulkes estimate   =    -263.17176564 Ry
     estimated scf accuracy    <       0.15602300 Ry

     iteration #  8     ecut=    30.00 Ry     beta=0.70
     Davidson diagonalization with overlap
     ethr =  2.47E-04,  avg # of iterations =  1.0

     total cpu time spent up to now is        1.2 secs

     total energy              =    -263.16693531 Ry
     Harris-Foulkes estimate   =    -263.16847996 Ry
     estimated scf accuracy    <       0.08962151 Ry

     iteration #  9     ecut=    30.00 Ry     beta=0.70
     Davidson diagonalization with overlap
     ethr =  2.04E-04,  avg # of iterations =  1.0

     total cpu time spent up to now is        1.3 secs

     total energy              =    -263.16607152 Ry
     Harris-Foulkes estimate   =    -263.16715769 Ry
     estimated scf accuracy    <       0.06830316 Ry

     iteration # 10     ecut=    30.00 Ry     beta=0.70
     Davidson diagonalization with overlap
     ethr =  1.55E-04,  avg # of iterations =  1.0

     total cpu time spent up to now is        1.4 secs

     total energy              =    -263.16528335 Ry
     Harris-Foulkes estimate   =    -263.16632878 Ry
     estimated scf accuracy    <       0.03294897 Ry

     iteration # 11     ecut=    30.00 Ry     beta=0.70
     Davidson diagonalization with overlap
     ethr =  7.49E-05,  avg # of iterations =  1.0

     total cpu time spent up to now is        1.4 secs

     total energy              =    -263.16574284 Ry
     Harris-Foulkes estimate   =    -263.16581177 Ry
     estimated scf accuracy    <       0.00053752 Ry

     iteration # 12     ecut=    30.00 Ry     beta=0.70
     Davidson diagonalization with overlap
     ethr =  1.22E-06,  avg # of iterations =  4.0

     total cpu time spent up to now is        1.5 secs

     total energy              =    -263.16505625 Ry
     Harris-Foulkes estimate   =    -263.16612172 Ry
     estimated scf accuracy    <       0.02362613 Ry

     iteration # 13     ecut=    30.00 Ry     beta=0.70
     Davidson diagonalization with overlap
     ethr =  1.22E-06,  avg # of iterations =  2.0

     total cpu time spent up to now is        1.6 secs

     total energy              =    -263.16565048 Ry
     Harris-Foulkes estimate   =    -263.16605331 Ry
     estimated scf accuracy    <       0.01617240 Ry

     iteration # 14     ecut=    30.00 Ry     beta=0.70
     Davidson diagonalization with overlap
     ethr =  1.22E-06,  avg # of iterations =  1.0

     total cpu time spent up to now is        1.7 secs

     total energy              =    -263.16580918 Ry
     Harris-Foulkes estimate   =    -263.16582148 Ry
     estimated scf accuracy    <       0.00068354 Ry

     iteration # 15     ecut=    30.00 Ry     beta=0.70
     Davidson diagonalization with overlap
     ethr =  1.22E-06,  avg # of iterations =  1.0

     total cpu time spent up to now is        1.7 secs

     total energy              =    -263.16579101 Ry
     Harris-Foulkes estimate   =    -263.16582274 Ry
     estimated scf accuracy    <       0.00098088 Ry

     iteration # 16     ecut=    30.00 Ry     beta=0.70
     Davidson diagonalization with overlap
     ethr =  1.22E-06,  avg # of iterations =  1.0

     total cpu time spent up to now is        1.8 secs

     total energy              =    -263.16580680 Ry
     Harris-Foulkes estimate   =    -263.16581202 Ry
     estimated scf accuracy    <       0.00011375 Ry

     iteration # 17     ecut=    30.00 Ry     beta=0.70
     Davidson diagonalization with overlap
     ethr =  2.59E-07,  avg # of iterations =  1.0

     total cpu time spent up to now is        1.9 secs

     total energy              =    -263.16580865 Ry
     Harris-Foulkes estimate   =    -263.16581100 Ry
     estimated scf accuracy    <       0.00004109 Ry

     iteration # 18     ecut=    30.00 Ry     beta=0.70
     Davidson diagonalization with overlap
     ethr =  9.34E-08,  avg # of iterations =  1.0

     total cpu time spent up to now is        1.9 secs

     total energy              =    -263.16581048 Ry
     Harris-Foulkes estimate   =    -263.16581054 Ry
     estimated scf accuracy    <       0.00001587 Ry

     iteration # 19     ecut=    30.00 Ry     beta=0.70
     Davidson diagonalization with overlap
     ethr =  3.61E-08,  avg # of iterations =  1.0

     total cpu time spent up to now is        2.0 secs

     total energy              =    -263.16581064 Ry
     Harris-Foulkes estimate   =    -263.16581069 Ry
     estimated scf accuracy    <       0.00000232 Ry

     iteration # 20     ecut=    30.00 Ry     beta=0.70
     Davidson diagonalization with overlap
     ethr =  5.27E-09,  avg # of iterations =  1.0

     total cpu time spent up to now is        2.1 secs

     total energy              =    -263.16581065 Ry
     Harris-Foulkes estimate   =    -263.16581071 Ry
     estimated scf accuracy    <       0.00000056 Ry

     iteration # 21     ecut=    30.00 Ry     beta=0.70
     Davidson diagonalization with overlap
     ethr =  1.27E-09,  avg # of iterations =  1.0

     total cpu time spent up to now is        2.2 secs

     total energy              =    -263.16581069 Ry
     Harris-Foulkes estimate   =    -263.16581073 Ry
     estimated scf accuracy    <       0.00000182 Ry

     iteration # 22     ecut=    30.00 Ry     beta=0.70
     Davidson diagonalization with overlap
     ethr =  1.27E-09,  avg # of iterations =  1.0

     total cpu time spent up to now is        2.2 secs

     total energy              =    -263.16581075 Ry
     Harris-Foulkes estimate   =    -263.16581075 Ry
     estimated scf accuracy    <       0.00000047 Ry

     iteration # 23     ecut=    30.00 Ry     beta=0.70
     Davidson diagonalization with overlap
     ethr =  1.07E-09,  avg # of iterations =  1.0

     total cpu time spent up to now is        2.3 secs

     total energy              =    -263.16581074 Ry
     Harris-Foulkes estimate   =    -263.16581080 Ry
     estimated scf accuracy    <       0.00000186 Ry

     iteration # 24     ecut=    30.00 Ry     beta=0.70
     Davidson diagonalization with overlap
     ethr =  1.07E-09,  avg # of iterations =  1.0

     total cpu time spent up to now is        2.4 secs

     total energy              =    -263.16581077 Ry
     Harris-Foulkes estimate   =    -263.16581077 Ry
     estimated scf accuracy    <       0.00000004 Ry

     iteration # 25     ecut=    30.00 Ry     beta=0.70
     Davidson diagonalization with overlap
     ethr =  9.81E-11,  avg # of iterations =  1.0

     total cpu time spent up to now is        2.4 secs

     total energy              =    -263.16581077 Ry
     Harris-Foulkes estimate   =    -263.16581078 Ry
     estimated scf accuracy    <       0.00000006 Ry

     iteration # 26     ecut=    30.00 Ry     beta=0.70
     Davidson diagonalization with overlap
     ethr =  9.81E-11,  avg # of iterations =  1.0

     total cpu time spent up to now is        2.5 secs

     total energy              =    -263.16581077 Ry
     Harris-Foulkes estimate   =    -263.16581078 Ry
     estimated scf accuracy    <       0.00000005 Ry

     iteration # 27     ecut=    30.00 Ry     beta=0.70
     Davidson diagonalization with overlap
     ethr =  9.81E-11,  avg # of iterations =  1.0

     total cpu time spent up to now is        2.6 secs

     End of self-consistent calculation

          k = 0.0000 0.0000 0.0000 ( 22119 PWs)   bands (ev):

    -4.9975  -4.9908  -4.9821  -4.9411  -4.9403  -4.8937  -4.8735  -4.8719
    -4.8667  -4.8657  -4.8633  -4.8625  -4.8583  -4.8565  -4.8560  -4.8545
    -4.8481  -4.8446  -4.8141  -4.7875  -4.6475  -4.4163  -4.2849  -3.9171
    -0.1427  -0.1237

     the Fermi energy is    -4.5013 ev

!    total energy              =    -263.16581077 Ry
     Harris-Foulkes estimate   =    -263.16581078 Ry
     estimated scf accuracy    <          1.1E-09 Ry

     convergence has been achieved in  27 iterations

     Forces acting on atoms (Ry/au):

     atom    1 type  1   force =     0.00014575   -0.00005129    0.00014555
     atom    2 type  1   force =    -0.01892035    0.00039134    0.00073769
     atom    3 type  1   force =     0.00073736    0.00039289   -0.01892157
     atom    4 type  1   force =     0.01803724   -0.00073293    0.01803833

     Total force =     0.036996     Total SCF correction =     0.000053

     Molecular Dynamics Calculation

     Starting temperature  =  1000.00 K

     temperature is controlled by Andersen thermostat
     Collision frequency = 1.0000/timestep
     mass Au               =    28.09
     Time step             =   100.00 a.u.,  4.8378 femto-seconds

     Entering Dynamics:    iteration =     1
                           time      =   0.0048 pico-seconds


     Andersen thermostat:    4 collisions

ATOMIC_POSITIONS (bohr)
Au      -0.039606010  -0.013413771   0.003133929
Au       0.033553842  12.056071186  12.007919711
Au      11.958658462  11.957779903  -0.020479579
Au      12.047393705  11.999562683  12.009425940


     kinetic energy (Ekin) =     0.01548078 Ry
     temperature           =   543.15985165 K 
     Ekin + Etot (const)   =  -263.15032999 Ry

     Linear momentum :    0.0000000000    0.0000000000    0.0000000000

     Writing output data file pwscf.save
     Check: negative starting charge=   -0.003322
     NEW-OLD atomic charge density approx. for the potential
     Check: negative starting charge=   -0.003317

     negative rho (up, down):  4.185E-04 0.000E+00

     total cpu time spent up to now is        2.8 secs

     per-process dynamical memory:    23.1 Mb

     Self-consistent Calculation

     iteration #  1     ecut=    30.00 Ry     beta=0.70
     Davidson diagonalization with overlap
     ethr =  1.00E-06,  avg # of iterations =  6.0

     negative rho (up, down):  1.307E-05 0.000E+00

     total cpu time spent up to now is        3.0 secs

     total energy              =    -263.16616277 Ry
     Harris-Foulkes estimate   =    -263.16553157 Ry
     estimated scf accuracy    <       0.00058777 Ry

     iteration #  2     ecut=    30.00 Ry     beta=0.70
     Davidson diagonalization with overlap
     ethr =  1.34E-06,  avg # of iterations =  6.0

     negative rho (up, down):  1.242E-05 0.000E+00

     total cpu time spent up to now is        3.1 secs

     total energy              =    -263.16149946 Ry
     Harris-Foulkes estimate   =    -263.17318997 Ry
     estimated scf accuracy    <       0.42066301 Ry

     iteration #  3     ecut=    30.00 Ry     beta=0.70
     Davidson diagonalization with overlap
     ethr =  1.34E-06,  avg # of iterations =  3.0

     negative rho (up, down):  1.152E-05 0.000E+00

     total cpu time spent up to now is        3.2 secs

     total energy              =    -263.16458379 Ry
     Harris-Foulkes estimate   =    -263.16865081 Ry
     estimated scf accuracy    <       0.12718452 Ry

     iteration #  4     ecut=    30.00 Ry     beta=0.70
     Davidson diagonalization with overlap
     ethr =  1.34E-06,  avg # of iterations =  2.0

     negative rho (up, down):  1.015E-05 0.000E+00

     total cpu time spent up to now is        3.3 secs

     total energy              =    -263.16600339 Ry
     Harris-Foulkes estimate   =    -263.16655391 Ry
     estimated scf accuracy    <       0.01023191 Ry

     iteration #  5     ecut=    30.00 Ry     beta=0.70
     Davidson diagonalization with overlap
     ethr =  1.34E-06,  avg # of iterations =  1.0

     negative rho (up, down):  3.974E-07 0.000E+00

     total cpu time spent up to now is        3.3 secs

     total energy              =    -263.16611484 Ry
     Harris-Foulkes estimate   =    -263.16673685 Ry
     estimated scf accuracy    <       0.02412355 Ry

     iteration #  6     ecut=    30.00 Ry     beta=0.70
     Davidson diagonalization with overlap
     ethr =  1.34E-06,  avg # of iterations =  1.0

     total cpu time spent up to now is        3.4 secs

     total energy              =    -263.16638171 Ry
     Harris-Foulkes estimate   =    -263.16649366 Ry
     estimated scf accuracy    <       0.00078145 Ry

     iteration #  7     ecut=    30.00 Ry     beta=0.70
     Davidson diagonalization with overlap
     ethr =  1.34E-06,  avg # of iterations =  1.0

     total cpu time spent up to now is        3.5 secs

     total energy              =    -263.16643855 Ry
     Harris-Foulkes estimate   =    -263.16646326 Ry
     estimated scf accuracy    <       0.00030250 Ry

     iteration #  8     ecut=    30.00 Ry     beta=0.70
     Davidson diagonalization with overlap
     ethr =  6.88E-07,  avg # of iterations =  1.0

     total cpu time spent up to now is        3.6 secs

     total energy              =    -263.16644681 Ry
     Harris-Foulkes estimate   =    -263.16644862 Ry
     estimated scf accuracy    <       0.00002888 Ry

     iteration #  9     ecut=    30.00 Ry     beta=0.70
     Davidson diagonalization with overlap
     ethr =  6.56E-08,  avg # of iterations =  1.0

     total cpu time spent up to now is        3.6 secs

     total energy              =    -263.16644707 Ry
     Harris-Foulkes estimate   =    -263.16644763 Ry
     estimated scf accuracy    <       0.00000195 Ry

     iteration # 10     ecut=    30.00 Ry     beta=0.70
     Davidson diagonalization with overlap
     ethr =  4.44E-09,  avg # of iterations =  2.0

     total cpu time spent up to now is        3.7 secs

     total energy              =    -263.16644706 Ry
     Harris-Foulkes estimate   =    -263.16644732 Ry
     estimated scf accuracy    <       0.00000083 Ry

     iteration # 11     ecut=    30.00 Ry     beta=0.70
     Davidson diagonalization with overlap
     ethr =  1.90E-09,  avg # of iterations =  1.0

     total cpu time spent up to now is        3.8 secs

     total energy              =    -263.16644708 Ry
     Harris-Foulkes estimate   =    -263.16644714 Ry
     estimated scf accuracy    <       0.00000023 Ry

     iteration # 12     ecut=    30.00 Ry     beta=0.70
     Davidson diagonalization with overlap
     ethr =  5.16E-10,  avg # of iterations =  2.0

     total cpu time spent up to now is        3.8 secs

     total energy              =    -263.16644696 Ry
     Harris-Foulkes estimate   =    -263.16644711 Ry
     estimated scf accuracy    <       0.00000029 Ry

     iteration # 13     ecut=    30.00 Ry     beta=0.70
     Davidson diagonalization with overlap
     ethr =  5.16E-10,  avg # of iterations =  1.0

     total cpu time spent up to now is        3.9 secs

     total energy              =    -263.16644687 Ry
     Harris-Foulkes estimate   =    -263.16644713 Ry
     estimated scf accuracy    <       0.00001027 Ry

     iteration # 14     ecut=    30.00 Ry     beta=0.70
     Davidson diagonalization with overlap
     ethr =  5.16E-10,  avg # of iterations =  1.0

     total cpu time spent up to now is        4.0 secs

     total energy              =    -263.16644698 Ry
     Harris-Foulkes estimate   =    -263.16644701 Ry
     estimated scf accuracy    <       0.00000024 Ry

     iteration # 15     ecut=    30.00 Ry     beta=0.70
     Davidson diagonalization with overlap
     ethr =  5.16E-10,  avg # of iterations =  1.0

     total cpu time spent up to now is        4.1 secs

     total energy              =    -263.16644682 Ry
     Harris-Foulkes estimate   =    -263.16644715 Ry
     estimated scf accuracy    <       0.00001366 Ry

     iteration # 16     ecut=    30.00 Ry     beta=0.70
     Davidson diagonalization with overlap
     ethr =  5.16E-10,  avg # of iterations =  1.0

     total cpu time spent up to now is        4.1 secs

     total energy              =    -263.16644697 Ry
     Harris-Foulkes estimate   =    -263.16644699 Ry
     estimated scf accuracy    <       0.00000004 Ry

     iteration # 17     ecut=    30.00 Ry     beta=0.70
     Davidson diagonalization with overlap
     ethr =  9.38E-11,  avg # of iterations =  1.0

     total cpu time spent up to now is        4.2 secs

     total energy              =    -263.16644696 Ry
     Harris-Foulkes estimate   =    -263.16644698 Ry
     estimated scf accuracy    <       0.00000032 Ry

     iteration # 18     ecut=    30.00 Ry     beta=0.70
     Davidson diagonalization with overlap
     ethr =  9.38E-11,  avg # of iterations =  1.0

     total cpu time spent up to now is        4.3 secs

     total energy              =    -263.16644696 Ry
     Harris-Foulkes estimate   =    -263.16644697 Ry
     estimated scf accuracy    <       0.00000006 Ry

     iteration # 19     ecut=    30.00 Ry     beta=0.70
     Davidson diagonalization with overlap
     ethr =  9.38E-11,  avg # of iterations =  1.0

     total cpu time spent up to now is        4.3 secs

     total energy              =    -263.16644697 Ry
     Harris-Foulkes estimate   =    -263.16644696 Ry
     estimated scf accuracy    <       0.00000002 Ry

     iteration # 20     ecut=    30.00 Ry     beta=0.70
     Davidson diagonalization with overlap
     ethr =  3.44E-11,  avg # of iterations =  1.0

     total cpu time spent up to now is        4.4 secs

     End of self-consistent calculation

          k = 0.0000 0.0000 0.0000 ( 22119 PWs)   bands (ev):

    -5.0024  -4.9960  -4.9842  -4.9442  -4.9413  -4.8966  -4.8743  -4.8733
    -4.8673  -4.8667  -4.8646  -4.8640  -4.8611  -4.8582  -4.8567  -4.8544
    -4.8495  -4.8446  -4.8149  -4.7882  -4.6491  -4.4170  -4.2855  -3.9121
    -0.1415  -0.1245

     the Fermi energy is    -4.5023 ev

!    total energy              =    -263.16644696 Ry
     Harris-Foulkes estimate   =    -263.16644697 Ry
     estimated scf accuracy    <          3.4E-09 Ry

     convergence has been achieved in  20 iterations

     Forces acting on atoms (Ry/au):

     atom    1 type  1   force =    -0.00015913   -0.00011158    0.00060854
     atom    2 type  1   force =    -0.01994584   -0.00021071    0.00016216
     atom    3 type  1   force =     0.00190153    0.00118016   -0.01917467
     atom    4 type  1   force =     0.01820344   -0.00085787    0.01840397

     Total force =     0.037971     Total SCF correction =     0.000053

     Entering Dynamics:    iteration =     2
                           time      =   0.0097 pico-seconds


     Andersen thermostat:    4 collisions

ATOMIC_POSITIONS (bohr)
Au      -0.065837788  -0.109874622  -0.014440511
Au       0.010397852  12.106020163  12.002513045
Au      11.927237122  11.976872808  -0.015416102
Au      12.128202814  12.026981651  12.027343568


     kinetic energy (Ekin) =     0.03047582 Ry
     temperature           =  1069.27673547 K 
     Ekin + Etot (const)   =  -263.13597114 Ry
     Message from routine dynamics:
     Total linear momentum <> 0

     Linear momentum :   -1.1855162285    0.2103983444   -0.1145601685

     Writing output data file pwscf.save

     first order wave-functions extrapolation
     Check: negative starting charge=   -0.003317
     first order charge density extrapolation
     Check: negative starting charge=   -0.003331

     negative rho (up, down):  6.545E-04 0.000E+00

     total cpu time spent up to now is        4.7 secs

     per-process dynamical memory:    23.1 Mb

     Self-consistent Calculation

     iteration #  1     ecut=    30.00 Ry     beta=0.70
     Davidson diagonalization with overlap
     ethr =  1.00E-06,  avg # of iterations =  9.0

     negative rho (up, down):  2.653E-05 0.000E+00

     total cpu time spent up to now is        4.9 secs

     total energy              =    -263.16809196 Ry
     Harris-Foulkes estimate   =    -263.16730909 Ry
     estimated scf accuracy    <       0.00106874 Ry

     iteration #  2     ecut=    30.00 Ry     beta=0.70
     Davidson diagonalization with overlap
     ethr =  2.43E-06,  avg # of iterations =  7.0

     negative rho (up, down):  2.511E-05 0.000E+00

     total cpu time spent up to now is        5.0 secs

     total energy              =    -263.16342563 Ry
     Harris-Foulkes estimate   =    -263.18159688 Ry
     estimated scf accuracy    <       0.56209131 Ry

     iteration #  3     ecut=    30.00 Ry     beta=0.70
     Davidson diagonalization with overlap
     ethr =  2.43E-06,  avg # of iterations =  3.0

     negative rho (up, down):  2.394E-05 0.000E+00

     total cpu time spent up to now is        5.2 secs

     total energy              =    -263.16396507 Ry
     Harris-Foulkes estimate   =    -263.17306744 Ry
     estimated scf accuracy    <       0.36749056 Ry

     iteration #  4     ecut=    30.00 Ry     beta=0.70
     Davidson diagonalization with overlap
     ethr =  2.43E-06,  avg # of iterations =  4.0

     negative rho (up, down):  2.128E-05 0.000E+00

     total cpu time spent up to now is        5.2 secs

     total energy              =    -263.16741076 Ry
     Harris-Foulkes estimate   =    -263.16924684 Ry
     estimated scf accuracy    <       0.03517722 Ry

     iteration #  5     ecut=    30.00 Ry     beta=0.70
     Davidson diagonalization with overlap
     ethr =  2.43E-06,  avg # of iterations =  1.0

     negative rho (up, down):  6.776E-06 0.000E+00

     total cpu time spent up to now is        5.3 secs

     total energy              =    -263.16783266 Ry
     Harris-Foulkes estimate   =    -263.16931463 Ry
     estimated scf accuracy    <       0.04219403 Ry

     iteration #  6     ecut=    30.00 Ry     beta=0.70
     Davidson diagonalization with overlap
     ethr =  2.43E-06,  avg # of iterations =  2.0

     negative rho (up, down):  3.257E-08 0.000E+00

     total cpu time spent up to now is        5.4 secs

     total energy              =    -263.16858119 Ry
     Harris-Foulkes estimate   =    -263.16871360 Ry
     estimated scf accuracy    <       0.00164235 Ry

     iteration #  7     ecut=    30.00 Ry     beta=0.70
     Davidson diagonalization with overlap
     ethr =  2.43E-06,  avg # of iterations =  1.0

     total cpu time spent up to now is        5.4 secs

     total energy              =    -263.16863741 Ry
     Harris-Foulkes estimate   =    -263.16874336 Ry
     estimated scf accuracy    <       0.00177902 Ry

     iteration #  8     ecut=    30.00 Ry     beta=0.70
     Davidson diagonalization with overlap
     ethr =  2.43E-06,  avg # of iterations =  1.0

     total cpu time spent up to now is        5.5 secs

     total energy              =    -263.16868113 Ry
     Harris-Foulkes estimate   =    -263.16868674 Ry
     estimated scf accuracy    <       0.00002614 Ry

     iteration #  9     ecut=    30.00 Ry     beta=0.70
     Davidson diagonalization with overlap
     ethr =  5.94E-08,  avg # of iterations =  2.0

     total cpu time spent up to now is        5.6 secs

     total energy              =    -263.16868364 Ry
     Harris-Foulkes estimate   =    -263.16868470 Ry
     estimated scf accuracy    <       0.00000661 Ry

     iteration # 10     ecut=    30.00 Ry     beta=0.70
     Davidson diagonalization with overlap
     ethr =  1.50E-08,  avg # of iterations =  1.0

     total cpu time spent up to now is        5.7 secs

     total energy              =    -263.16868388 Ry
     Harris-Foulkes estimate   =    -263.16868434 Ry
     estimated scf accuracy    <       0.00000267 Ry

     iteration # 11     ecut=    30.00 Ry     beta=0.70
     Davidson diagonalization with overlap
     ethr =  6.07E-09,  avg # of iterations =  1.0

     total cpu time spent up to now is        5.7 secs

     total energy              =    -263.16868349 Ry
     Harris-Foulkes estimate   =    -263.16868414 Ry
     estimated scf accuracy    <       0.00000078 Ry

     iteration # 12     ecut=    30.00 Ry     beta=0.70
     Davidson diagonalization with overlap
     ethr =  1.77E-09,  avg # of iterations =  2.0

     total cpu time spent up to now is        5.8 secs

     total energy              =    -263.16868312 Ry
     Harris-Foulkes estimate   =    -263.16868418 Ry
     estimated scf accuracy    <       0.00003556 Ry

     iteration # 13     ecut=    30.00 Ry     beta=0.70
     Davidson diagonalization with overlap
     ethr =  1.77E-09,  avg # of iterations =  2.0

     total cpu time spent up to now is        5.9 secs

     total energy              =    -263.16868363 Ry
     Harris-Foulkes estimate   =    -263.16868383 Ry
     estimated scf accuracy    <       0.00000420 Ry

     iteration # 14     ecut=    30.00 Ry     beta=0.70
     Davidson diagonalization with overlap
     ethr =  1.77E-09,  avg # of iterations =  1.0

     total cpu time spent up to now is        6.0 secs

     total energy              =    -263.16868339 Ry
     Harris-Foulkes estimate   =    -263.16868397 Ry
     estimated scf accuracy    <       0.00001690 Ry

     iteration # 15     ecut=    30.00 Ry     beta=0.70
     Davidson diagonalization with overlap
     ethr =  1.77E-09,  avg # of iterations =  1.0

     total cpu time spent up to now is        6.0 secs

     total energy              =    -263.16868356 Ry
     Harris-Foulkes estimate   =    -263.16868363 Ry
     estimated scf accuracy    <       0.00000094 Ry

     iteration # 16     ecut=    30.00 Ry     beta=0.70
     Davidson diagonalization with overlap
     ethr =  1.77E-09,  avg # of iterations =  1.0

     total cpu time spent up to now is        6.1 secs

     total energy              =    -263.16868360 Ry
     Harris-Foulkes estimate   =    -263.16868362 Ry
     estimated scf accuracy    <       0.00000102 Ry

     iteration # 17     ecut=    30.00 Ry     beta=0.70
     Davidson diagonalization with overlap
     ethr =  1.77E-09,  avg # of iterations =  1.0

     total cpu time spent up to now is        6.2 secs

     total energy              =    -263.16868359 Ry
     Harris-Foulkes estimate   =    -263.16868365 Ry
     estimated scf accuracy    <       0.00000049 Ry

     iteration # 18     ecut=    30.00 Ry     beta=0.70
     Davidson diagonalization with overlap
     ethr =  1.11E-09,  avg # of iterations =  1.0

     total cpu time spent up to now is        6.2 secs

     total energy              =    -263.16868360 Ry
     Harris-Foulkes estimate   =    -263.16868361 Ry
     estimated scf accuracy    <       0.00000001 Ry

     iteration # 19     ecut=    30.00 Ry     beta=0.70
     Davidson diagonalization with overlap
     ethr =  2.89E-11,  avg # of iterations =  1.0

     total cpu time spent up to now is        6.3 secs

     total energy              =    -263.16868359 Ry
     Harris-Foulkes estimate   =    -263.16868361 Ry
     estimated scf accuracy    <       0.00000005 Ry

     iteration # 20     ecut=    30.00 Ry     beta=0.70
     Davidson diagonalization with overlap
     ethr =  2.89E-11,  avg # of iterations =  1.0

     total cpu time spent up to now is        6.4 secs

     End of self-consistent calculation

          k = 0.0000 0.0000 0.0000 ( 22119 PWs)   bands (ev):

    -5.0205  -5.0045  -4.9941  -4.9536  -4.9470  -4.9036  -4.8778  -4.8763
    -4.8732  -4.8713  -4.8689  -4.8683  -4.8639  -4.8614  -4.8604  -4.8571
    -4.8514  -4.8469  -4.8157  -4.7878  -4.6543  -4.4186  -4.2855  -3.8996
    -0.1407  -0.1263

     the Fermi energy is    -4.5053 ev

!    total energy              =    -263.16868361 Ry
     Harris-Foulkes estimate   =    -263.16868359 Ry
     estimated scf accuracy    <          2.5E-09 Ry

     convergence has been achieved in  20 iterations

     Forces acting on atoms (Ry/au):

     atom    1 type  1   force =     0.00054431    0.00016913    0.00072179
     atom    2 type  1   force =    -0.02223355    0.00061834    0.00016910
     atom    3 type  1   force =     0.00061946    0.00074545   -0.01931369
     atom    4 type  1   force =     0.02106979   -0.00153293    0.01842279

     Total force =     0.040685     Total SCF correction =     0.000064

     Entering Dynamics:    iteration =     3
                           time      =   0.0145 pico-seconds


     Andersen thermostat:    4 collisions

ATOMIC_POSITIONS (bohr)
Au      -0.066740260  -0.114433789  -0.043852465
Au       0.007161283  12.115224229  11.973992569
Au      11.937029259  12.015165720  -0.029317821
Au      12.122549718  11.984043840  12.099177718


     kinetic energy (Ekin) =     0.01521487 Ry
     temperature           =   533.82998231 K 
     Ekin + Etot (const)   =  -263.15346875 Ry
     Message from routine dynamics:
     Total linear momentum <> 0

     Linear momentum :   -0.3730730359   -0.6361234556    0.8262567821

     Writing output data file pwscf.save

     second order wave-functions extrapolation
     Check: negative starting charge=   -0.003331
     second order charge density extrapolation
     Check: negative starting charge=   -0.003335

     negative rho (up, down):  3.632E-04 0.000E+00

     total cpu time spent up to now is        6.7 secs

     per-process dynamical memory:    23.1 Mb

     Self-consistent Calculation

     iteration #  1     ecut=    30.00 Ry     beta=0.70
     Davidson diagonalization with overlap
     ethr =  1.00E-06,  avg # of iterations =  6.0

     negative rho (up, down):  1.030E-05 0.000E+00

     total cpu time spent up to now is        6.9 secs

     total energy              =    -263.17014328 Ry
     Harris-Foulkes estimate   =    -263.16960229 Ry
     estimated scf accuracy    <       0.00054438 Ry

     iteration #  2     ecut=    30.00 Ry     beta=0.70
     Davidson diagonalization with overlap
     ethr =  1.24E-06,  avg # of iterations =  5.0

     negative rho (up, down):  9.727E-06 0.000E+00

     total cpu time spent up to now is        7.0 secs

     total energy              =    -263.16717080 Ry
     Harris-Foulkes estimate   =    -263.17454336 Ry
     estimated scf accuracy    <       0.25100283 Ry

     iteration #  3     ecut=    30.00 Ry     beta=0.70
     Davidson diagonalization with overlap
     ethr =  1.24E-06,  avg # of iterations =  3.0

     negative rho (up, down):  8.828E-06 0.000E+00

     total cpu time spent up to now is        7.0 secs

     total energy              =    -263.16885348 Ry
     Harris-Foulkes estimate   =    -263.17161789 Ry
     estimated scf accuracy    <       0.07711189 Ry

     iteration #  4     ecut=    30.00 Ry     beta=0.70
     Davidson diagonalization with overlap
     ethr =  1.24E-06,  avg # of iterations =  2.0

     negative rho (up, down):  2.941E-06 0.000E+00

     total cpu time spent up to now is        7.1 secs

     total energy              =    -263.17004070 Ry
     Harris-Foulkes estimate   =    -263.17052170 Ry
     estimated scf accuracy    <       0.00751340 Ry

     iteration #  5     ecut=    30.00 Ry     beta=0.70
     Davidson diagonalization with overlap
     ethr =  1.24E-06,  avg # of iterations =  2.0

     negative rho (up, down):  1.545E-06 0.000E+00

     total cpu time spent up to now is        7.2 secs

     total energy              =    -263.16899209 Ry
     Harris-Foulkes estimate   =    -263.17159376 Ry
     estimated scf accuracy    <       0.10327241 Ry

     iteration #  6     ecut=    30.00 Ry     beta=0.70
     Davidson diagonalization with overlap
     ethr =  1.24E-06,  avg # of iterations =  1.0

     total cpu time spent up to now is        7.2 secs

     total energy              =    -263.17031495 Ry
     Harris-Foulkes estimate   =    -263.17040732 Ry
     estimated scf accuracy    <       0.00156005 Ry

     iteration #  7     ecut=    30.00 Ry     beta=0.70
     Davidson diagonalization with overlap
     ethr =  1.24E-06,  avg # of iterations =  1.0

     total cpu time spent up to now is        7.3 secs

     total energy              =    -263.17035468 Ry
     Harris-Foulkes estimate   =    -263.17040145 Ry
     estimated scf accuracy    <       0.00028890 Ry

     iteration #  8     ecut=    30.00 Ry     beta=0.70
     Davidson diagonalization with overlap
     ethr =  6.57E-07,  avg # of iterations =  1.0

     total cpu time spent up to now is        7.4 secs

     total energy              =    -263.17037416 Ry
     Harris-Foulkes estimate   =    -263.17037575 Ry
     estimated scf accuracy    <       0.00001301 Ry

     iteration #  9     ecut=    30.00 Ry     beta=0.70
     Davidson diagonalization with overlap
     ethr =  2.96E-08,  avg # of iterations =  1.0

     total cpu time spent up to now is        7.5 secs

     total energy              =    -263.17037474 Ry
     Harris-Foulkes estimate   =    -263.17037525 Ry
     estimated scf accuracy    <       0.00000356 Ry

     iteration # 10     ecut=    30.00 Ry     beta=0.70
     Davidson diagonalization with overlap
     ethr =  8.09E-09,  avg # of iterations =  3.0

     total cpu time spent up to now is        7.5 secs

     total energy              =    -263.17037483 Ry
     Harris-Foulkes estimate   =    -263.17037514 Ry
     estimated scf accuracy    <       0.00000307 Ry

     iteration # 11     ecut=    30.00 Ry     beta=0.70
     Davidson diagonalization with overlap
     ethr =  6.98E-09,  avg # of iterations =  1.0

     total cpu time spent up to now is        7.6 secs

     total energy              =    -263.17037484 Ry
     Harris-Foulkes estimate   =    -263.17037500 Ry
     estimated scf accuracy    <       0.00000102 Ry

     iteration # 12     ecut=    30.00 Ry     beta=0.70
     Davidson diagonalization with overlap
     ethr =  2.31E-09,  avg # of iterations =  1.0

     total cpu time spent up to now is        7.7 secs

     total energy              =    -263.17037474 Ry
     Harris-Foulkes estimate   =    -263.17037507 Ry
     estimated scf accuracy    <       0.00000748 Ry

     iteration # 13     ecut=    30.00 Ry     beta=0.70
     Davidson diagonalization with overlap
     ethr =  2.31E-09,  avg # of iterations =  1.0

     total cpu time spent up to now is        7.7 secs

     total energy              =    -263.17037491 Ry
     Harris-Foulkes estimate   =    -263.17037499 Ry
     estimated scf accuracy    <       0.00000355 Ry

     iteration # 14     ecut=    30.00 Ry     beta=0.70
     Davidson diagonalization with overlap
     ethr =  2.31E-09,  avg # of iterations =  1.0

     total cpu time spent up to now is        7.8 secs

     total energy              =    -263.17037489 Ry
     Harris-Foulkes estimate   =    -263.17037502 Ry
     estimated scf accuracy    <       0.00000307 Ry

     iteration # 15     ecut=    30.00 Ry     beta=0.70
     Davidson diagonalization with overlap
     ethr =  2.31E-09,  avg # of iterations =  1.0

     total cpu time spent up to now is        7.9 secs

     total energy              =    -263.17037488 Ry
     Harris-Foulkes estimate   =    -263.17037498 Ry
     estimated scf accuracy    <       0.00000232 Ry

     iteration # 16     ecut=    30.00 Ry     beta=0.70
     Davidson diagonalization with overlap
     ethr =  2.31E-09,  avg # of iterations =  1.0

     total cpu time spent up to now is        8.0 secs

     total energy              =    -263.17037491 Ry
     Harris-Foulkes estimate   =    -263.17037495 Ry
     estimated scf accuracy    <       0.00000106 Ry

     iteration # 17     ecut=    30.00 Ry     beta=0.70
     Davidson diagonalization with overlap
     ethr =  2.31E-09,  avg # of iterations =  1.0

     total cpu time spent up to now is        8.0 secs

     total energy              =    -263.17037493 Ry
     Harris-Foulkes estimate   =    -263.17037495 Ry
     estimated scf accuracy    <       0.00000032 Ry

     iteration # 18     ecut=    30.00 Ry     beta=0.70
     Davidson diagonalization with overlap
     ethr =  7.33E-10,  avg # of iterations =  1.0

     total cpu time spent up to now is        8.1 secs

     End of self-consistent calculation

          k = 0.0000 0.0000 0.0000 ( 22119 PWs)   bands (ev):

    -5.0256  -5.0183  -5.0000  -4.9583  -4.9548  -4.9083  -4.8802  -4.8796
    -4.8768  -4.8739  -4.8715  -4.8703  -4.8641  -4.8638  -4.8633  -4.8591
    -4.8529  -4.8503  -4.8145  -4.7879  -4.6576  -4.4200  -4.2850  -3.8908
    -0.1392  -0.1270

     the Fermi energy is    -4.5071 ev

!    total energy              =    -263.17037492 Ry
     Harris-Foulkes estimate   =    -263.17037494 Ry
     estimated scf accuracy    <          3.6E-09 Ry

     convergence has been achieved in  18 iterations

     Forces acting on atoms (Ry/au):

     atom    1 type  1   force =     0.00037975    0.00008195    0.00033717
     atom    2 type  1   force =    -0.02205319    0.00056343    0.00008290
     atom    3 type  1   force =     0.00085249    0.00000392   -0.02123816
     atom    4 type  1   force =     0.02082096   -0.00064930    0.02081810

     Total force =     0.042498     Total SCF correction =     0.000056

     Entering Dynamics:    iteration =     4
                           time      =   0.0194 pico-seconds


     Andersen thermostat:    4 collisions

ATOMIC_POSITIONS (bohr)
Au       0.000390281  -0.067618731  -0.095794229
Au      -0.121994192  12.112194260  12.028119656
Au      11.933290111  12.010511776  -0.054174304
Au      12.188313799  11.944912695  12.121848877


     kinetic energy (Ekin) =     0.04403481 Ry
     temperature           =  1545.00862092 K 
     Ekin + Etot (const)   =  -263.12634011 Ry
     Message from routine dynamics:
     Total linear momentum <> 0

     Linear momentum :    0.4312343545    0.1168453644   -0.1678590847

     Writing output data file pwscf.save

     second order wave-functions extrapolation
     Check: negative starting charge=   -0.003335
     second order charge density extrapolation
     Check: negative starting charge=   -0.003375

     negative rho (up, down):  1.073E-03 0.000E+00

     total cpu time spent up to now is        8.4 secs

     per-process dynamical memory:    23.1 Mb

     Self-consistent Calculation

     iteration #  1     ecut=    30.00 Ry     beta=0.70
     Davidson diagonalization with overlap
     ethr =  1.00E-06,  avg # of iterations =  9.0

     negative rho (up, down):  5.480E-05 0.000E+00

     total cpu time spent up to now is        8.7 secs

     total energy              =    -263.17419101 Ry
     Harris-Foulkes estimate   =    -263.17427235 Ry
     estimated scf accuracy    <       0.00266817 Ry

     iteration #  2     ecut=    30.00 Ry     beta=0.70
     Davidson diagonalization with overlap
     ethr =  6.06E-06,  avg # of iterations =  6.0

     negative rho (up, down):  5.169E-05 0.000E+00

     total cpu time spent up to now is        8.8 secs

     total energy              =    -263.17390560 Ry
     Harris-Foulkes estimate   =    -263.19741661 Ry
     estimated scf accuracy    <       0.63555892 Ry

     iteration #  3     ecut=    30.00 Ry     beta=0.70
     Davidson diagonalization with overlap
     ethr =  6.06E-06,  avg # of iterations =  3.0

     negative rho (up, down):  4.652E-05 0.000E+00

     total cpu time spent up to now is        8.8 secs

     total energy              =    -263.17126553 Ry
     Harris-Foulkes estimate   =    -263.18944553 Ry
     estimated scf accuracy    <       0.53469340 Ry

     iteration #  4     ecut=    30.00 Ry     beta=0.70
     Davidson diagonalization with overlap
     ethr =  6.06E-06,  avg # of iterations =  3.0

     negative rho (up, down):  3.870E-05 0.000E+00

     total cpu time spent up to now is        8.9 secs

     total energy              =    -263.17316272 Ry
     Harris-Foulkes estimate   =    -263.17825528 Ry
     estimated scf accuracy    <       0.05359500 Ry

     iteration #  5     ecut=    30.00 Ry     beta=0.70
     Davidson diagonalization with overlap
     ethr =  6.06E-06,  avg # of iterations =  3.0

     negative rho (up, down):  2.482E-05 0.000E+00

     total cpu time spent up to now is        9.0 secs

     total energy              =    -263.17151820 Ry
     Harris-Foulkes estimate   =    -263.17838922 Ry
     estimated scf accuracy    <       0.17571357 Ry

     iteration #  6     ecut=    30.00 Ry     beta=0.70
     Davidson diagonalization with overlap
     ethr =  6.06E-06,  avg # of iterations =  2.0

     negative rho (up, down):  5.568E-06 0.000E+00

     total cpu time spent up to now is        9.1 secs

     total energy              =    -263.17457782 Ry
     Harris-Foulkes estimate   =    -263.17632920 Ry
     estimated scf accuracy    <       0.05277983 Ry

     iteration #  7     ecut=    30.00 Ry     beta=0.70
     Davidson diagonalization with overlap
     ethr =  6.06E-06,  avg # of iterations =  1.0

     negative rho (up, down):  6.442E-07 0.000E+00

     total cpu time spent up to now is        9.1 secs

     total energy              =    -263.17543496 Ry
     Harris-Foulkes estimate   =    -263.17627448 Ry
     estimated scf accuracy    <       0.03383261 Ry

     iteration #  8     ecut=    30.00 Ry     beta=0.70
     Davidson diagonalization with overlap
     ethr =  6.06E-06,  avg # of iterations =  1.0

     total cpu time spent up to now is        9.2 secs

     total energy              =    -263.17570248 Ry
     Harris-Foulkes estimate   =    -263.17576747 Ry
     estimated scf accuracy    <       0.00187910 Ry

     iteration #  9     ecut=    30.00 Ry     beta=0.70
     Davidson diagonalization with overlap
     ethr =  4.27E-06,  avg # of iterations =  1.0

     total cpu time spent up to now is        9.3 secs

     total energy              =    -263.17572463 Ry
     Harris-Foulkes estimate   =    -263.17573715 Ry
     estimated scf accuracy    <       0.00089905 Ry

     iteration # 10     ecut=    30.00 Ry     beta=0.70
     Davidson diagonalization with overlap
     ethr =  2.04E-06,  avg # of iterations =  1.0

     total cpu time spent up to now is        9.4 secs

     total energy              =    -263.17572112 Ry
     Harris-Foulkes estimate   =    -263.17573359 Ry
     estimated scf accuracy    <       0.00092574 Ry

     iteration # 11     ecut=    30.00 Ry     beta=0.70
     Davidson diagonalization with overlap
     ethr =  2.04E-06,  avg # of iterations =  1.0

     total cpu time spent up to now is        9.4 secs

     total energy              =    -263.17569934 Ry
     Harris-Foulkes estimate   =    -263.17572578 Ry
     estimated scf accuracy    <       0.00048025 Ry

     iteration # 12     ecut=    30.00 Ry     beta=0.70
     Davidson diagonalization with overlap
     ethr =  1.09E-06,  avg # of iterations =  1.0

     total cpu time spent up to now is        9.5 secs

     total energy              =    -263.17571351 Ry
     Harris-Foulkes estimate   =    -263.17572359 Ry
     estimated scf accuracy    <       0.00025655 Ry

     iteration # 13     ecut=    30.00 Ry     beta=0.70
     Davidson diagonalization with overlap
     ethr =  5.83E-07,  avg # of iterations =  1.0

     total cpu time spent up to now is        9.6 secs

     total energy              =    -263.17571699 Ry
     Harris-Foulkes estimate   =    -263.17571924 Ry
     estimated scf accuracy    <       0.00009752 Ry

     iteration # 14     ecut=    30.00 Ry     beta=0.70
     Davidson diagonalization with overlap
     ethr =  2.22E-07,  avg # of iterations =  1.0

     total cpu time spent up to now is        9.6 secs

     total energy              =    -263.17571808 Ry
     Harris-Foulkes estimate   =    -263.17571913 Ry
     estimated scf accuracy    <       0.00002940 Ry

     iteration # 15     ecut=    30.00 Ry     beta=0.70
     Davidson diagonalization with overlap
     ethr =  6.68E-08,  avg # of iterations =  1.0

     total cpu time spent up to now is        9.7 secs

     total energy              =    -263.17571852 Ry
     Harris-Foulkes estimate   =    -263.17571876 Ry
     estimated scf accuracy    <       0.00000146 Ry

     iteration # 16     ecut=    30.00 Ry     beta=0.70
     Davidson diagonalization with overlap
     ethr =  3.31E-09,  avg # of iterations =  1.0

     total cpu time spent up to now is        9.8 secs

     total energy              =    -263.17571855 Ry
     Harris-Foulkes estimate   =    -263.17571874 Ry
     estimated scf accuracy    <       0.00000277 Ry

     iteration # 17     ecut=    30.00 Ry     beta=0.70
     Davidson diagonalization with overlap
     ethr =  3.31E-09,  avg # of iterations =  1.0

     total cpu time spent up to now is        9.9 secs

     total energy              =    -263.17571861 Ry
     Harris-Foulkes estimate   =    -263.17571883 Ry
     estimated scf accuracy    <       0.00000421 Ry

     iteration # 18     ecut=    30.00 Ry     beta=0.70
     Davidson diagonalization with overlap
     ethr =  3.31E-09,  avg # of iterations =  1.0

     total cpu time spent up to now is        9.9 secs

     total energy              =    -263.17571872 Ry
     Harris-Foulkes estimate   =    -263.17571875 Ry
     estimated scf accuracy    <       0.00000046 Ry

     iteration # 19     ecut=    30.00 Ry     beta=0.70
     Davidson diagonalization with overlap
     ethr =  1.05E-09,  avg # of iterations =  1.0

     total cpu time spent up to now is       10.0 secs

     End of self-consistent calculation

          k = 0.0000 0.0000 0.0000 ( 22119 PWs)   bands (ev):

    -5.0697  -5.0377  -5.0258  -4.9821  -4.9666  -4.9186  -4.8916  -4.8877
    -4.8841  -4.8782  -4.8768  -4.8747  -4.8715  -4.8709  -4.8694  -4.8640
    -4.8585  -4.8513  -4.8138  -4.7855  -4.6673  -4.4245  -4.2800  -3.8652
    -0.1382  -0.1239

     the Fermi energy is    -4.5113 ev

!    total energy              =    -263.17571873 Ry
     Harris-Foulkes estimate   =    -263.17571874 Ry
     estimated scf accuracy    <          1.0E-08 Ry

     convergence has been achieved in  19 iterations

     Forces acting on atoms (Ry/au):

     atom    1 type  1   force =    -0.00082455    0.00034184    0.00030947
     atom    2 type  1   force =    -0.02440591    0.00013959   -0.00032318
     atom    3 type  1   force =     0.00139629   -0.00106087   -0.02155028
     atom    4 type  1   force =     0.02383417    0.00057945    0.02156399

     Total force =     0.045799     Total SCF correction =     0.000106

     Entering Dynamics:    iteration =     5
                           time      =   0.0242 pico-seconds


     Andersen thermostat:    4 collisions

ATOMIC_POSITIONS (bohr)
Au       0.075518187  -0.064988163  -0.203636474
Au      -0.067050927  12.088240484  11.972317185
Au      11.878087229  12.053887555  -0.013836276
Au      12.113445511  11.922860125  12.245155565


     kinetic energy (Ekin) =     0.07185968 Ry
     temperature           =  2521.27385124 K 
     Ekin + Etot (const)   =  -263.10385905 Ry
     Message from routine dynamics:
     Total linear momentum <> 0

     Linear momentum :    0.5486917297    1.4177812238    0.2434309376

     Writing output data file pwscf.save

     second order wave-functions extrapolation
     Check: negative starting charge=   -0.003375
     second order charge density extrapolation
     Check: negative starting charge=   -0.003367

     negative rho (up, down):  1.663E-03 0.000E+00

     total cpu time spent up to now is       10.3 secs

     per-process dynamical memory:    23.1 Mb

     Self-consistent Calculation

     iteration #  1     ecut=    30.00 Ry     beta=0.70
     Davidson diagonalization with overlap
     ethr =  1.00E-06,  avg # of iterations = 10.0

     negative rho (up, down):  1.060E-04 0.000E+00

     total cpu time spent up to now is       10.5 secs

     total energy              =    -263.17343109 Ry
     Harris-Foulkes estimate   =    -263.17141505 Ry
     estimated scf accuracy    <       0.00186118 Ry

     iteration #  2     ecut=    30.00 Ry     beta=0.70
     Davidson diagonalization with overlap
     ethr =  4.23E-06,  avg # of iterations =  5.0

     negative rho (up, down):  9.960E-05 0.000E+00

     total cpu time spent up to now is       10.6 secs

     total energy              =    -263.16433037 Ry
     Harris-Foulkes estimate   =    -263.18909573 Ry
     estimated scf accuracy    <       0.59604068 Ry

     iteration #  3     ecut=    30.00 Ry     beta=0.70
     Davidson diagonalization with overlap
     ethr =  4.23E-06,  avg # of iterations =  3.0

     negative rho (up, down):  9.058E-05 0.000E+00

     total cpu time spent up to now is       10.7 secs

     total energy              =    -263.17064588 Ry
     Harris-Foulkes estimate   =    -263.17715891 Ry
     estimated scf accuracy    <       0.19828506 Ry

     iteration #  4     ecut=    30.00 Ry     beta=0.70
     Davidson diagonalization with overlap
     ethr =  4.23E-06,  avg # of iterations =  1.0

     negative rho (up, down):  3.969E-05 0.000E+00

     total cpu time spent up to now is       10.7 secs

     total energy              =    -263.17292836 Ry
     Harris-Foulkes estimate   =    -263.17483974 Ry
     estimated scf accuracy    <       0.04019746 Ry

     iteration #  5     ecut=    30.00 Ry     beta=0.70
     Davidson diagonalization with overlap
     ethr =  4.23E-06,  avg # of iterations =  2.0

     negative rho (up, down):  2.441E-05 0.000E+00

     total cpu time spent up to now is       10.8 secs

     total energy              =    -263.17356912 Ry
     Harris-Foulkes estimate   =    -263.17513637 Ry
     estimated scf accuracy    <       0.03123697 Ry

     iteration #  6     ecut=    30.00 Ry     beta=0.70
     Davidson diagonalization with overlap
     ethr =  4.23E-06,  avg # of iterations =  1.0

     negative rho (up, down):  1.032E-05 0.000E+00

     total cpu time spent up to now is       10.9 secs

     total energy              =    -263.17195029 Ry
     Harris-Foulkes estimate   =    -263.17680296 Ry
     estimated scf accuracy    <       0.21723604 Ry

     iteration #  7     ecut=    30.00 Ry     beta=0.70
     Davidson diagonalization with overlap
     ethr =  4.23E-06,  avg # of iterations =  1.0

     total cpu time spent up to now is       11.0 secs

     total energy              =    -263.17433969 Ry
     Harris-Foulkes estimate   =    -263.17446100 Ry
     estimated scf accuracy    <       0.00206503 Ry

     iteration #  8     ecut=    30.00 Ry     beta=0.70
     Davidson diagonalization with overlap
     ethr =  4.23E-06,  avg # of iterations =  1.0

     total cpu time spent up to now is       11.0 secs

     total energy              =    -263.17438364 Ry
     Harris-Foulkes estimate   =    -263.17441058 Ry
     estimated scf accuracy    <       0.00031645 Ry

     iteration #  9     ecut=    30.00 Ry     beta=0.70
     Davidson diagonalization with overlap
     ethr =  7.19E-07,  avg # of iterations =  1.0

     total cpu time spent up to now is       11.1 secs

     total energy              =    -263.17439349 Ry
     Harris-Foulkes estimate   =    -263.17439823 Ry
     estimated scf accuracy    <       0.00008244 Ry

     iteration # 10     ecut=    30.00 Ry     beta=0.70
     Davidson diagonalization with overlap
     ethr =  1.87E-07,  avg # of iterations =  1.0

     total cpu time spent up to now is       11.2 secs

     total energy              =    -263.17439492 Ry
     Harris-Foulkes estimate   =    -263.17439601 Ry
     estimated scf accuracy    <       0.00002131 Ry

     iteration # 11     ecut=    30.00 Ry     beta=0.70
     Davidson diagonalization with overlap
     ethr =  4.84E-08,  avg # of iterations =  1.0

     total cpu time spent up to now is       11.3 secs

     total energy              =    -263.17439614 Ry
     Harris-Foulkes estimate   =    -263.17439604 Ry
     estimated scf accuracy    <       0.00000314 Ry

     iteration # 12     ecut=    30.00 Ry     beta=0.70
     Davidson diagonalization with overlap
     ethr =  7.15E-09,  avg # of iterations =  3.0

     total cpu time spent up to now is       11.3 secs

     total energy              =    -263.17439631 Ry
     Harris-Foulkes estimate   =    -263.17439655 Ry
     estimated scf accuracy    <       0.00000590 Ry

     iteration # 13     ecut=    30.00 Ry     beta=0.70
     Davidson diagonalization with overlap
     ethr =  7.15E-09,  avg # of iterations =  1.0

     total cpu time spent up to now is       11.4 secs

     total energy              =    -263.17439646 Ry
     Harris-Foulkes estimate   =    -263.17439661 Ry
     estimated scf accuracy    <       0.00000614 Ry

     iteration # 14     ecut=    30.00 Ry     beta=0.70
     Davidson diagonalization with overlap
     ethr =  7.15E-09,  avg # of iterations =  1.0

     total cpu time spent up to now is       11.5 secs

     total energy              =    -263.17439656 Ry
     Harris-Foulkes estimate   =    -263.17439659 Ry
     estimated scf accuracy    <       0.00000032 Ry

     iteration # 15     ecut=    30.00 Ry     beta=0.70
     Davidson diagonalization with overlap
     ethr =  7.18E-10,  avg # of iterations =  1.0

     total cpu time spent up to now is       11.5 secs

     total energy              =    -263.17439658 Ry
     Harris-Foulkes estimate   =    -263.17439660 Ry
     estimated scf accuracy    <       0.00000034 Ry

     iteration # 16     ecut=    30.00 Ry     beta=0.70
     Davidson diagonalization with overlap
     ethr =  7.18E-10,  avg # of iterations =  1.0

     total cpu time spent up to now is       11.6 secs

     total energy              =    -263.17439652 Ry
     Harris-Foulkes estimate   =    -263.17439663 Ry
     estimated scf accuracy    <       0.00000162 Ry

     iteration # 17     ecut=    30.00 Ry     beta=0.70
     Davidson diagonalization with overlap
     ethr =  7.18E-10,  avg # of iterations =  1.0

     total cpu time spent up to now is       11.7 secs

     total energy              =    -263.17439647 Ry
     Harris-Foulkes estimate   =    -263.17439674 Ry
     estimated scf accuracy    <       0.00001220 Ry

     iteration # 18     ecut=    30.00 Ry     beta=0.70
     Davidson diagonalization with overlap
     ethr =  7.18E-10,  avg # of iterations =  1.0

     total cpu time spent up to now is       11.8 secs

     total energy              =    -263.17439666 Ry
     Harris-Foulkes estimate   =    -263.17439664 Ry
     estimated scf accuracy    <       0.00000003 Ry

     iteration # 19     ecut=    30.00 Ry     beta=0.70
     Davidson diagonalization with overlap
     ethr =  7.66E-11,  avg # of iterations =  1.0

     total cpu time spent up to now is       11.8 secs

     End of self-consistent calculation

          k = 0.0000 0.0000 0.0000 ( 22119 PWs)   bands (ev):

    -5.0556  -5.0368  -5.0186  -4.9769  -4.9637  -4.9183  -4.8883  -4.8853
    -4.8790  -4.8778  -4.8765  -4.8756  -4.8722  -4.8693  -4.8682  -4.8646
    -4.8563  -4.8525  -4.8142  -4.7868  -4.6642  -4.4241  -4.2836  -3.8696
    -0.1355  -0.1257

     the Fermi energy is    -4.5108 ev

!    total energy              =    -263.17439667 Ry
     Harris-Foulkes estimate   =    -263.17439666 Ry
     estimated scf accuracy    <          6.3E-09 Ry

     convergence has been achieved in  19 iterations

     Forces acting on atoms (Ry/au):

     atom    1 type  1   force =    -0.00223517    0.00032985   -0.00099722
     atom    2 type  1   force =    -0.02085847   -0.00035038    0.00170596
     atom    3 type  1   force =     0.00239119   -0.00156025   -0.02226236
     atom    4 type  1   force =     0.02070244    0.00158078    0.02155362

     Total force =     0.042937     Total SCF correction =     0.000027

     Entering Dynamics:    iteration =     6
                           time      =   0.0290 pico-seconds


     Andersen thermostat:    4 collisions

ATOMIC_POSITIONS (bohr)
Au       0.070906599  -0.138243231  -0.178395959
Au      -0.073336498  12.104869266  12.017311500
Au      11.850593639  12.093134584  -0.053390436
Au      12.151836261  11.940239382  12.214474895


     kinetic energy (Ekin) =     0.02628324 Ry
     temperature           =   922.17577834 K 
     Ekin + Etot (const)   =  -263.14811343 Ry
     Message from routine dynamics:
     Total linear momentum <> 0

     Linear momentum :    0.9497109203   -1.2354385776    1.2106520748

     Writing output data file pwscf.save

     second order wave-functions extrapolation
     Check: negative starting charge=   -0.003367
     second order charge density extrapolation
     Check: negative starting charge=   -0.003398

     negative rho (up, down):  3.886E-04 0.000E+00

     total cpu time spent up to now is       12.1 secs

     per-process dynamical memory:    23.1 Mb

     Self-consistent Calculation

     iteration #  1     ecut=    30.00 Ry     beta=0.70
     Davidson diagonalization with overlap
     ethr =  1.00E-06,  avg # of iterations =  6.0

     negative rho (up, down):  9.706E-06 0.000E+00

     total cpu time spent up to now is       12.3 secs

     total energy              =    -263.17533776 Ry
     Harris-Foulkes estimate   =    -263.17462050 Ry
     estimated scf accuracy    <       0.00038301 Ry

     iteration #  2     ecut=    30.00 Ry     beta=0.70
     Davidson diagonalization with overlap
     ethr =  8.70E-07,  avg # of iterations =  5.0

     negative rho (up, down):  9.151E-06 0.000E+00

     total cpu time spent up to now is       12.4 secs

     total energy              =    -263.17370762 Ry
     Harris-Foulkes estimate   =    -263.17701878 Ry
     estimated scf accuracy    <       0.11003301 Ry

     iteration #  3     ecut=    30.00 Ry     beta=0.70
     Davidson diagonalization with overlap
     ethr =  8.70E-07,  avg # of iterations =  2.0

     negative rho (up, down):  5.844E-07 0.000E+00

     total cpu time spent up to now is       12.5 secs

     total energy              =    -263.17535238 Ry
     Harris-Foulkes estimate   =    -263.17545609 Ry
     estimated scf accuracy    <       0.00200782 Ry

     iteration #  4     ecut=    30.00 Ry     beta=0.70
     Davidson diagonalization with overlap
     ethr =  8.70E-07,  avg # of iterations =  1.0

     negative rho (up, down):  1.010E-07 0.000E+00

     total cpu time spent up to now is       12.5 secs

     total energy              =    -263.17420133 Ry
     Harris-Foulkes estimate   =    -263.17667616 Ry
     estimated scf accuracy    <       0.09215516 Ry

     iteration #  5     ecut=    30.00 Ry     beta=0.70
     Davidson diagonalization with overlap
     ethr =  8.70E-07,  avg # of iterations =  1.0

     negative rho (up, down):  3.879E-08 0.000E+00

     total cpu time spent up to now is       12.6 secs

     total energy              =    -263.17523695 Ry
     Harris-Foulkes estimate   =    -263.17556330 Ry
     estimated scf accuracy    <       0.00657942 Ry

     iteration #  6     ecut=    30.00 Ry     beta=0.70
     Davidson diagonalization with overlap
     ethr =  8.70E-07,  avg # of iterations =  1.0

     total cpu time spent up to now is       12.7 secs

     total energy              =    -263.17532607 Ry
     Harris-Foulkes estimate   =    -263.17559850 Ry
     estimated scf accuracy    <       0.00776084 Ry

     iteration #  7     ecut=    30.00 Ry     beta=0.70
     Davidson diagonalization with overlap
     ethr =  8.70E-07,  avg # of iterations =  1.0

     total cpu time spent up to now is       12.7 secs

     total energy              =    -263.17545162 Ry
     Harris-Foulkes estimate   =    -263.17546543 Ry
     estimated scf accuracy    <       0.00008419 Ry

     iteration #  8     ecut=    30.00 Ry     beta=0.70
     Davidson diagonalization with overlap
     ethr =  1.91E-07,  avg # of iterations =  1.0

     total cpu time spent up to now is       12.8 secs

     total energy              =    -263.17545656 Ry
     Harris-Foulkes estimate   =    -263.17545754 Ry
     estimated scf accuracy    <       0.00000762 Ry

     iteration #  9     ecut=    30.00 Ry     beta=0.70
     Davidson diagonalization with overlap
     ethr =  1.73E-08,  avg # of iterations =  3.0

     total cpu time spent up to now is       12.9 secs

     total energy              =    -263.17545664 Ry
     Harris-Foulkes estimate   =    -263.17545743 Ry
     estimated scf accuracy    <       0.00000227 Ry

     iteration # 10     ecut=    30.00 Ry     beta=0.70
     Davidson diagonalization with overlap
     ethr =  5.16E-09,  avg # of iterations =  1.0

     total cpu time spent up to now is       13.0 secs

     total energy              =    -263.17545668 Ry
     Harris-Foulkes estimate   =    -263.17545689 Ry
     estimated scf accuracy    <       0.00000078 Ry

     iteration # 11     ecut=    30.00 Ry     beta=0.70
     Davidson diagonalization with overlap
     ethr =  1.78E-09,  avg # of iterations =  1.0

     total cpu time spent up to now is       13.0 secs

     total energy              =    -263.17545631 Ry
     Harris-Foulkes estimate   =    -263.17545674 Ry
     estimated scf accuracy    <       0.00000038 Ry

     iteration # 12     ecut=    30.00 Ry     beta=0.70
     Davidson diagonalization with overlap
     ethr =  8.67E-10,  avg # of iterations =  2.0

     total cpu time spent up to now is       13.1 secs

     total energy              =    -263.17545631 Ry
     Harris-Foulkes estimate   =    -263.17545634 Ry
     estimated scf accuracy    <       0.00000022 Ry

     iteration # 13     ecut=    30.00 Ry     beta=0.70
     Davidson diagonalization with overlap
     ethr =  4.89E-10,  avg # of iterations =  1.0

     total cpu time spent up to now is       13.2 secs

     total energy              =    -263.17545626 Ry
     Harris-Foulkes estimate   =    -263.17545635 Ry
     estimated scf accuracy    <       0.00000126 Ry

     iteration # 14     ecut=    30.00 Ry     beta=0.70
     Davidson diagonalization with overlap
     ethr =  4.89E-10,  avg # of iterations =  1.0

     total cpu time spent up to now is       13.3 secs

     total energy              =    -263.17545621 Ry
     Harris-Foulkes estimate   =    -263.17545641 Ry
     estimated scf accuracy    <       0.00000772 Ry

     iteration # 15     ecut=    30.00 Ry     beta=0.70
     Davidson diagonalization with overlap
     ethr =  4.89E-10,  avg # of iterations =  1.0

     total cpu time spent up to now is       13.3 secs

     total energy              =    -263.17545632 Ry
     Harris-Foulkes estimate   =    -263.17545632 Ry
     estimated scf accuracy    <       0.00000029 Ry

     iteration # 16     ecut=    30.00 Ry     beta=0.70
     Davidson diagonalization with overlap
     ethr =  4.89E-10,  avg # of iterations =  1.0

     total cpu time spent up to now is       13.4 secs

     total energy              =    -263.17545632 Ry
     Harris-Foulkes estimate   =    -263.17545633 Ry
     estimated scf accuracy    <       0.00000002 Ry

     iteration # 17     ecut=    30.00 Ry     beta=0.70
     Davidson diagonalization with overlap
     ethr =  3.88E-11,  avg # of iterations =  1.0

     total cpu time spent up to now is       13.5 secs

     total energy              =    -263.17545632 Ry
     Harris-Foulkes estimate   =    -263.17545633 Ry
     estimated scf accuracy    <       0.00000043 Ry

     iteration # 18     ecut=    30.00 Ry     beta=0.70
     Davidson diagonalization with overlap
     ethr =  3.88E-11,  avg # of iterations =  1.0

     total cpu time spent up to now is       13.5 secs

     End of self-consistent calculation

          k = 0.0000 0.0000 0.0000 ( 22119 PWs)   bands (ev):

    -5.0603  -5.0469  -5.0251  -4.9795  -4.9706  -4.9204  -4.8906  -4.8871
    -4.8833  -4.8823  -4.8788  -4.8743  -4.8719  -4.8714  -4.8697  -4.8685
    -4.8566  -4.8512  -4.8141  -4.7870  -4.6675  -4.4244  -4.2823  -3.8645
    -0.1370  -0.1267

     the Fermi energy is    -4.5120 ev

!    total energy              =    -263.17545633 Ry
     Harris-Foulkes estimate   =    -263.17545633 Ry
     estimated scf accuracy    <          1.5E-09 Ry

     convergence has been achieved in  18 iterations

     Forces acting on atoms (Ry/au):

     atom    1 type  1   force =    -0.00174318   -0.00093991   -0.00116851
     atom    2 type  1   force =    -0.02154303    0.00024278    0.00052214
     atom    3 type  1   force =     0.00266796   -0.00025155   -0.02182088
     atom    4 type  1   force =     0.02061825    0.00094868    0.02246725

     Total force =     0.043403     Total SCF correction =     0.000066

     Entering Dynamics:    iteration =     7
                           time      =   0.0339 pico-seconds


     Andersen thermostat:    4 collisions

ATOMIC_POSITIONS (bohr)
Au       0.094362581  -0.131364538  -0.152936956
Au      -0.070373317  12.107034969  12.026723563
Au      11.805967300  12.113992937  -0.112860489
Au      12.170043436  11.910336632  12.239073882


     kinetic energy (Ekin) =     0.01310353 Ry
     temperature           =   459.75152390 K 
     Ekin + Etot (const)   =  -263.16235279 Ry
     Message from routine dynamics:
     Total linear momentum <> 0

     Linear momentum :    0.8748669023    0.1561092446   -0.6141993846

     Writing output data file pwscf.save

     second order wave-functions extrapolation
     Check: negative starting charge=   -0.003398
     second order charge density extrapolation
     Check: negative starting charge=   -0.003387

     negative rho (up, down):  2.745E-04 0.000E+00

     total cpu time spent up to now is       13.8 secs

     per-process dynamical memory:    23.1 Mb

     Self-consistent Calculation

     iteration #  1     ecut=    30.00 Ry     beta=0.70
     Davidson diagonalization with overlap
     ethr =  1.00E-06,  avg # of iterations =  5.0

     negative rho (up, down):  7.537E-06 0.000E+00

     total cpu time spent up to now is       14.0 secs

     total energy              =    -263.17718657 Ry
     Harris-Foulkes estimate   =    -263.17692049 Ry
     estimated scf accuracy    <       0.00053463 Ry

     iteration #  2     ecut=    30.00 Ry     beta=0.70
     Davidson diagonalization with overlap
     ethr =  1.22E-06,  avg # of iterations =  6.0

     negative rho (up, down):  7.073E-06 0.000E+00

     total cpu time spent up to now is       14.1 secs

     total energy              =    -263.17338595 Ry
     Harris-Foulkes estimate   =    -263.18383170 Ry
     estimated scf accuracy    <       0.33285763 Ry

     iteration #  3     ecut=    30.00 Ry     beta=0.70
     Davidson diagonalization with overlap
     ethr =  1.22E-06,  avg # of iterations =  3.0

     negative rho (up, down):  6.596E-06 0.000E+00

     total cpu time spent up to now is       14.2 secs

     total energy              =    -263.17603095 Ry
     Harris-Foulkes estimate   =    -263.17850278 Ry
     estimated scf accuracy    <       0.07736921 Ry

     iteration #  4     ecut=    30.00 Ry     beta=0.70
     Davidson diagonalization with overlap
     ethr =  1.22E-06,  avg # of iterations =  2.0

     negative rho (up, down):  4.594E-06 0.000E+00

     total cpu time spent up to now is       14.2 secs

     total energy              =    -263.17692243 Ry
     Harris-Foulkes estimate   =    -263.17772429 Ry
     estimated scf accuracy    <       0.01327833 Ry

     iteration #  5     ecut=    30.00 Ry     beta=0.70
     Davidson diagonalization with overlap
     ethr =  1.22E-06,  avg # of iterations =  2.0

     negative rho (up, down):  1.788E-06 0.000E+00

     total cpu time spent up to now is       14.3 secs

     total energy              =    -263.17644475 Ry
     Harris-Foulkes estimate   =    -263.17835667 Ry
     estimated scf accuracy    <       0.05884862 Ry

     iteration #  6     ecut=    30.00 Ry     beta=0.70
     Davidson diagonalization with overlap
     ethr =  1.22E-06,  avg # of iterations =  2.0

     total cpu time spent up to now is       14.4 secs

     total energy              =    -263.17742856 Ry
     Harris-Foulkes estimate   =    -263.17748073 Ry
     estimated scf accuracy    <       0.00045656 Ry

     iteration #  7     ecut=    30.00 Ry     beta=0.70
     Davidson diagonalization with overlap
     ethr =  1.04E-06,  avg # of iterations =  1.0

     total cpu time spent up to now is       14.4 secs

     total energy              =    -263.17745668 Ry
     Harris-Foulkes estimate   =    -263.17748246 Ry
     estimated scf accuracy    <       0.00017622 Ry

     iteration #  8     ecut=    30.00 Ry     beta=0.70
     Davidson diagonalization with overlap
     ethr =  4.00E-07,  avg # of iterations =  1.0

     total cpu time spent up to now is       14.5 secs

     total energy              =    -263.17746997 Ry
     Harris-Foulkes estimate   =    -263.17747035 Ry
     estimated scf accuracy    <       0.00000312 Ry

     iteration #  9     ecut=    30.00 Ry     beta=0.70
     Davidson diagonalization with overlap
     ethr =  7.10E-09,  avg # of iterations =  4.0

     total cpu time spent up to now is       14.6 secs

     total energy              =    -263.17747074 Ry
     Harris-Foulkes estimate   =    -263.17747088 Ry
     estimated scf accuracy    <       0.00000167 Ry

     iteration # 10     ecut=    30.00 Ry     beta=0.70
     Davidson diagonalization with overlap
     ethr =  3.79E-09,  avg # of iterations =  1.0

     total cpu time spent up to now is       14.7 secs

     total energy              =    -263.17747125 Ry
     Harris-Foulkes estimate   =    -263.17747094 Ry
     estimated scf accuracy    <       0.00000159 Ry

     iteration # 11     ecut=    30.00 Ry     beta=0.70
     Davidson diagonalization with overlap
     ethr =  3.62E-09,  avg # of iterations =  1.0

     total cpu time spent up to now is       14.7 secs

     total energy              =    -263.17747138 Ry
     Harris-Foulkes estimate   =    -263.17747134 Ry
     estimated scf accuracy    <       0.00000049 Ry

     iteration # 12     ecut=    30.00 Ry     beta=0.70
     Davidson diagonalization with overlap
     ethr =  1.12E-09,  avg # of iterations =  2.0

     total cpu time spent up to now is       14.8 secs

     total energy              =    -263.17747027 Ry
     Harris-Foulkes estimate   =    -263.17747247 Ry
     estimated scf accuracy    <       0.00008267 Ry

     iteration # 13     ecut=    30.00 Ry     beta=0.70
     Davidson diagonalization with overlap
     ethr =  1.12E-09,  avg # of iterations =  2.0

     total cpu time spent up to now is       14.9 secs

     total energy              =    -263.17747139 Ry
     Harris-Foulkes estimate   =    -263.17747138 Ry
     estimated scf accuracy    <       0.00000085 Ry

     iteration # 14     ecut=    30.00 Ry     beta=0.70
     Davidson diagonalization with overlap
     ethr =  1.12E-09,  avg # of iterations =  1.0

     total cpu time spent up to now is       15.0 secs

     total energy              =    -263.17747124 Ry
     Harris-Foulkes estimate   =    -263.17747153 Ry
     estimated scf accuracy    <       0.00000955 Ry

     iteration # 15     ecut=    30.00 Ry     beta=0.70
     Davidson diagonalization with overlap
     ethr =  1.12E-09,  avg # of iterations =  1.0

     total cpu time spent up to now is       15.1 secs

     total energy              =    -263.17747130 Ry
     Harris-Foulkes estimate   =    -263.17747144 Ry
     estimated scf accuracy    <       0.00000222 Ry

     iteration # 16     ecut=    30.00 Ry     beta=0.70
     Davidson diagonalization with overlap
     ethr =  1.12E-09,  avg # of iterations =  1.0

     total cpu time spent up to now is       15.1 secs

     total energy              =    -263.17747137 Ry
     Harris-Foulkes estimate   =    -263.17747136 Ry
     estimated scf accuracy    <       0.00000027 Ry

     iteration # 17     ecut=    30.00 Ry     beta=0.70
     Davidson diagonalization with overlap
     ethr =  6.24E-10,  avg # of iterations =  1.0

     total cpu time spent up to now is       15.2 secs

     total energy              =    -263.17747140 Ry
     Harris-Foulkes estimate   =    -263.17747137 Ry
     estimated scf accuracy    <       0.00000002 Ry

     iteration # 18     ecut=    30.00 Ry     beta=0.70
     Davidson diagonalization with overlap
     ethr =  4.88E-11,  avg # of iterations =  2.0

     total cpu time spent up to now is       15.3 secs

     End of self-consistent calculation

          k = 0.0000 0.0000 0.0000 ( 22119 PWs)   bands (ev):

    -5.0804  -5.0552  -5.0336  -4.9896  -4.9744  -4.9251  -4.8927  -4.8904
    -4.8851  -4.8844  -4.8816  -4.8763  -4.8730  -4.8722  -4.8709  -4.8703
    -4.8587  -4.8524  -4.8151  -4.7877  -4.6710  -4.4264  -4.2816  -3.8536
    -0.1376  -0.1242

     the Fermi energy is    -4.5135 ev

!    total energy              =    -263.17747140 Ry
     Harris-Foulkes estimate   =    -263.17747140 Ry
     estimated scf accuracy    <          2.7E-09 Ry

     convergence has been achieved in  18 iterations

     Forces acting on atoms (Ry/au):

     atom    1 type  1   force =    -0.00129730   -0.00092912   -0.00046963
     atom    2 type  1   force =    -0.02152513   -0.00001103    0.00074388
     atom    3 type  1   force =     0.00199877   -0.00024240   -0.02378110
     atom    4 type  1   force =     0.02082366    0.00118255    0.02350685

     Total force =     0.044987     Total SCF correction =     0.000040

     Entering Dynamics:    iteration =     8
[...]
     Harris-Foulkes estimate   =    -263.38964458 Ry
     estimated scf accuracy    <       0.00007700 Ry

     iteration # 53     ecut=    30.00 Ry     beta=0.70
     Davidson diagonalization with overlap
     ethr =  1.05E-08,  avg # of iterations =  1.0

     total cpu time spent up to now is      261.9 secs

     total energy              =    -263.38987573 Ry
     Harris-Foulkes estimate   =    -263.38964646 Ry
     estimated scf accuracy    <       0.00010317 Ry

     iteration # 54     ecut=    30.00 Ry     beta=0.70
     Davidson diagonalization with overlap
     ethr =  1.05E-08,  avg # of iterations =  5.0

     total cpu time spent up to now is      262.0 secs

     total energy              =    -263.38956809 Ry
     Harris-Foulkes estimate   =    -263.38957233 Ry
     estimated scf accuracy    <       0.00039352 Ry

     iteration # 55     ecut=    30.00 Ry     beta=0.70
     Davidson diagonalization with overlap
     ethr =  1.05E-08,  avg # of iterations =  1.0

     total cpu time spent up to now is      262.1 secs

     total energy              =    -263.38957142 Ry
     Harris-Foulkes estimate   =    -263.38956955 Ry
     estimated scf accuracy    <       0.00014825 Ry

     iteration # 56     ecut=    30.00 Ry     beta=0.70
     Davidson diagonalization with overlap
     ethr =  1.05E-08,  avg # of iterations =  2.0

     total cpu time spent up to now is      262.1 secs

     total energy              =    -263.38956923 Ry
     Harris-Foulkes estimate   =    -263.38957131 Ry
     estimated scf accuracy    <       0.00018053 Ry

     iteration # 57     ecut=    30.00 Ry     beta=0.70
     Davidson diagonalization with overlap
     ethr =  1.05E-08,  avg # of iterations =  3.0

     total cpu time spent up to now is      262.2 secs

     total energy              =    -263.38956793 Ry
     Harris-Foulkes estimate   =    -263.38956859 Ry
     estimated scf accuracy    <       0.00022076 Ry

     iteration # 58     ecut=    30.00 Ry     beta=0.70
     Davidson diagonalization with overlap
     ethr =  1.05E-08,  avg # of iterations =  2.0

     total cpu time spent up to now is      262.3 secs

     total energy              =    -263.38957133 Ry
     Harris-Foulkes estimate   =    -263.38956770 Ry
     estimated scf accuracy    <       0.00025166 Ry

     iteration # 59     ecut=    30.00 Ry     beta=0.70
     Davidson diagonalization with overlap
     ethr =  1.05E-08,  avg # of iterations =  3.0

     total cpu time spent up to now is      262.4 secs

     total energy              =    -263.38961384 Ry
     Harris-Foulkes estimate   =    -263.38957046 Ry
     estimated scf accuracy    <       0.00019775 Ry

     iteration # 60     ecut=    30.00 Ry     beta=0.70
     Davidson diagonalization with overlap
     ethr =  1.05E-08,  avg # of iterations =  4.0

     total cpu time spent up to now is      262.5 secs

     total energy              =    -263.39335383 Ry
     Harris-Foulkes estimate   =    -263.38960899 Ry
     estimated scf accuracy    <       0.00066210 Ry

     iteration # 61     ecut=    30.00 Ry     beta=0.70
     Davidson diagonalization with overlap
     ethr =  1.05E-08,  avg # of iterations =  8.0

     total cpu time spent up to now is      262.7 secs

     total energy              =    -263.36084525 Ry
     Harris-Foulkes estimate   =    -263.40748149 Ry
     estimated scf accuracy    <       0.84891025 Ry

     iteration # 62     ecut=    30.00 Ry     beta=0.70
     Davidson diagonalization with overlap
     ethr =  1.05E-08,  avg # of iterations =  6.0

     total cpu time spent up to now is      262.8 secs

     total energy              =    -263.38964664 Ry
     Harris-Foulkes estimate   =    -263.38963913 Ry
     estimated scf accuracy    <       0.00002899 Ry

     iteration # 63     ecut=    30.00 Ry     beta=0.70
     Davidson diagonalization with overlap
     ethr =  1.05E-08,  avg # of iterations =  4.0

     total cpu time spent up to now is      262.9 secs

     total energy              =    -263.38962131 Ry
     Harris-Foulkes estimate   =    -263.38962206 Ry
     estimated scf accuracy    <       0.00001663 Ry

     iteration # 64     ecut=    30.00 Ry     beta=0.70
     Davidson diagonalization with overlap
     ethr =  1.05E-08,  avg # of iterations =  1.0

     total cpu time spent up to now is      263.0 secs

     total energy              =    -263.38961981 Ry
     Harris-Foulkes estimate   =    -263.38962159 Ry
     estimated scf accuracy    <       0.00000906 Ry

     iteration # 65     ecut=    30.00 Ry     beta=0.70
     Davidson diagonalization with overlap
     ethr =  1.05E-08,  avg # of iterations =  2.0

     total cpu time spent up to now is      263.1 secs

     total energy              =    -263.38961690 Ry
     Harris-Foulkes estimate   =    -263.38961876 Ry
     estimated scf accuracy    <       0.00001132 Ry

     iteration # 66     ecut=    30.00 Ry     beta=0.70
     Davidson diagonalization with overlap
     ethr =  1.05E-08,  avg # of iterations =  2.0

     total cpu time spent up to now is      263.2 secs

     total energy              =    -263.38961539 Ry
     Harris-Foulkes estimate   =    -263.38961624 Ry
     estimated scf accuracy    <       0.00001731 Ry

     iteration # 67     ecut=    30.00 Ry     beta=0.70
     Davidson diagonalization with overlap
     ethr =  1.05E-08,  avg # of iterations =  1.0

     total cpu time spent up to now is      263.3 secs

     total energy              =    -263.38961588 Ry
     Harris-Foulkes estimate   =    -263.38961533 Ry
     estimated scf accuracy    <       0.00001824 Ry

     iteration # 68     ecut=    30.00 Ry     beta=0.70
     Davidson diagonalization with overlap
     ethr =  1.05E-08,  avg # of iterations =  1.0

     total cpu time spent up to now is      263.3 secs

     total energy              =    -263.38961624 Ry
     Harris-Foulkes estimate   =    -263.38961586 Ry
     estimated scf accuracy    <       0.00001723 Ry

     iteration # 69     ecut=    30.00 Ry     beta=0.70
     Davidson diagonalization with overlap
     ethr =  1.05E-08,  avg # of iterations =  1.0

     total cpu time spent up to now is      263.4 secs

     total energy              =    -263.38961388 Ry
     Harris-Foulkes estimate   =    -263.38961624 Ry
     estimated scf accuracy    <       0.00001641 Ry

     iteration # 70     ecut=    30.00 Ry     beta=0.70
     Davidson diagonalization with overlap
     ethr =  1.05E-08,  avg # of iterations =  2.0

     total cpu time spent up to now is      263.5 secs

     total energy              =    -263.38962085 Ry
     Harris-Foulkes estimate   =    -263.38961336 Ry
     estimated scf accuracy    <       0.00001358 Ry

     iteration # 71     ecut=    30.00 Ry     beta=0.70
     Davidson diagonalization with overlap
     ethr =  1.05E-08,  avg # of iterations =  3.0

     total cpu time spent up to now is      263.6 secs

     total energy              =    -263.38965054 Ry
     Harris-Foulkes estimate   =    -263.38961914 Ry
     estimated scf accuracy    <       0.00003308 Ry

     iteration # 72     ecut=    30.00 Ry     beta=0.70
     Davidson diagonalization with overlap
     ethr =  1.05E-08,  avg # of iterations =  4.0

     total cpu time spent up to now is      263.7 secs

     total energy              =    -263.38963657 Ry
     Harris-Foulkes estimate   =    -263.38962950 Ry
     estimated scf accuracy    <       0.00000768 Ry

     iteration # 73     ecut=    30.00 Ry     beta=0.70
     Davidson diagonalization with overlap
     ethr =  1.05E-08,  avg # of iterations =  3.0

     total cpu time spent up to now is      263.8 secs

     total energy              =    -263.38963818 Ry
     Harris-Foulkes estimate   =    -263.38963407 Ry
     estimated scf accuracy    <       0.00002052 Ry

     iteration # 74     ecut=    30.00 Ry     beta=0.70
     Davidson diagonalization with overlap
     ethr =  1.05E-08,  avg # of iterations =  3.0

     total cpu time spent up to now is      263.9 secs

     total energy              =    -263.38963247 Ry
     Harris-Foulkes estimate   =    -263.38963779 Ry
     estimated scf accuracy    <       0.00002478 Ry

     iteration # 75     ecut=    30.00 Ry     beta=0.70
     Davidson diagonalization with overlap
     ethr =  1.05E-08,  avg # of iterations =  3.0

     total cpu time spent up to now is      264.0 secs

     total energy              =    -263.38964150 Ry
     Harris-Foulkes estimate   =    -263.38963121 Ry
     estimated scf accuracy    <       0.00001779 Ry

     iteration # 76     ecut=    30.00 Ry     beta=0.70
     Davidson diagonalization with overlap
     ethr =  1.05E-08,  avg # of iterations =  3.0

     total cpu time spent up to now is      264.1 secs

     total energy              =    -263.38963343 Ry
     Harris-Foulkes estimate   =    -263.38963878 Ry
     estimated scf accuracy    <       0.00003589 Ry

     iteration # 77     ecut=    30.00 Ry     beta=0.70
     Davidson diagonalization with overlap
     ethr =  1.05E-08,  avg # of iterations =  3.0

     total cpu time spent up to now is      264.2 secs

     total energy              =    -263.38963028 Ry
     Harris-Foulkes estimate   =    -263.38963425 Ry
     estimated scf accuracy    <       0.00003871 Ry

     iteration # 78     ecut=    30.00 Ry     beta=0.70
     Davidson diagonalization with overlap
     ethr =  1.05E-08,  avg # of iterations =  3.0

     total cpu time spent up to now is      264.3 secs

     total energy              =    -263.38962754 Ry
     Harris-Foulkes estimate   =    -263.38962855 Ry
     estimated scf accuracy    <       0.00000674 Ry

     iteration # 79     ecut=    30.00 Ry     beta=0.70
     Davidson diagonalization with overlap
     ethr =  1.05E-08,  avg # of iterations =  2.0

     total cpu time spent up to now is      264.3 secs

     total energy              =    -263.38962604 Ry
     Harris-Foulkes estimate   =    -263.38962734 Ry
     estimated scf accuracy    <       0.00000795 Ry

     iteration # 80     ecut=    30.00 Ry     beta=0.70
     Davidson diagonalization with overlap
     ethr =  1.05E-08,  avg # of iterations =  2.0

     total cpu time spent up to now is      264.4 secs

     total energy              =    -263.38962311 Ry
     Harris-Foulkes estimate   =    -263.38962411 Ry
     estimated scf accuracy    <       0.00002248 Ry

     iteration # 81     ecut=    30.00 Ry     beta=0.70
     Davidson diagonalization with overlap
     ethr =  1.05E-08,  avg # of iterations =  2.0

     total cpu time spent up to now is      264.5 secs

     total energy              =    -263.38963284 Ry
     Harris-Foulkes estimate   =    -263.38962303 Ry
     estimated scf accuracy    <       0.00001231 Ry

     iteration # 82     ecut=    30.00 Ry     beta=0.70
     Davidson diagonalization with overlap
     ethr =  1.05E-08,  avg # of iterations =  3.0

     total cpu time spent up to now is      264.6 secs

     total energy              =    -263.38963543 Ry
     Harris-Foulkes estimate   =    -263.38962803 Ry
     estimated scf accuracy    <       0.00000510 Ry

     iteration # 83     ecut=    30.00 Ry     beta=0.70
     Davidson diagonalization with overlap
     ethr =  1.05E-08,  avg # of iterations =  3.0

     total cpu time spent up to now is      264.7 secs

     total energy              =    -263.38969620 Ry
     Harris-Foulkes estimate   =    -263.38963236 Ry
     estimated scf accuracy    <       0.00001821 Ry

     iteration # 84     ecut=    30.00 Ry     beta=0.70
     Davidson diagonalization with overlap
     ethr =  1.05E-08,  avg # of iterations =  4.0

     total cpu time spent up to now is      264.8 secs

     total energy              =    -263.38958445 Ry
     Harris-Foulkes estimate   =    -263.38969554 Ry
     estimated scf accuracy    <       0.00054071 Ry

     iteration # 85     ecut=    30.00 Ry     beta=0.70
     Davidson diagonalization with overlap
     ethr =  1.05E-08,  avg # of iterations =  4.0

     total cpu time spent up to now is      264.9 secs

     total energy              =    -263.38962893 Ry
     Harris-Foulkes estimate   =    -263.38962938 Ry
     estimated scf accuracy    <       0.00000515 Ry

     iteration # 86     ecut=    30.00 Ry     beta=0.70
     Davidson diagonalization with overlap
     ethr =  1.05E-08,  avg # of iterations =  1.0

     total cpu time spent up to now is      265.0 secs

     total energy              =    -263.38962790 Ry
     Harris-Foulkes estimate   =    -263.38962892 Ry
     estimated scf accuracy    <       0.00000688 Ry

     iteration # 87     ecut=    30.00 Ry     beta=0.70
     Davidson diagonalization with overlap
     ethr =  1.05E-08,  avg # of iterations =  2.0

     total cpu time spent up to now is      265.1 secs

     total energy              =    -263.38962559 Ry
     Harris-Foulkes estimate   =    -263.38962656 Ry
     estimated scf accuracy    <       0.00000712 Ry

     iteration # 88     ecut=    30.00 Ry     beta=0.70
     Davidson diagonalization with overlap
     ethr =  1.05E-08,  avg # of iterations =  2.0

     total cpu time spent up to now is      265.2 secs

     total energy              =    -263.38962445 Ry
     Harris-Foulkes estimate   =    -263.38962528 Ry
     estimated scf accuracy    <       0.00000760 Ry

     iteration # 89     ecut=    30.00 Ry     beta=0.70
     Davidson diagonalization with overlap
     ethr =  1.05E-08,  avg # of iterations =  2.0

     total cpu time spent up to now is      265.2 secs

     total energy              =    -263.38962351 Ry
     Harris-Foulkes estimate   =    -263.38962432 Ry
     estimated scf accuracy    <       0.00000870 Ry

     iteration # 90     ecut=    30.00 Ry     beta=0.70
     Davidson diagonalization with overlap
     ethr =  1.05E-08,  avg # of iterations =  1.0

     total cpu time spent up to now is      265.3 secs

     total energy              =    -263.38962254 Ry
     Harris-Foulkes estimate   =    -263.38962339 Ry
     estimated scf accuracy    <       0.00000981 Ry

     iteration # 91     ecut=    30.00 Ry     beta=0.70
     Davidson diagonalization with overlap
     ethr =  1.05E-08,  avg # of iterations =  2.0

     total cpu time spent up to now is      265.4 secs

     total energy              =    -263.38962078 Ry
     Harris-Foulkes estimate   =    -263.38962240 Ry
     estimated scf accuracy    <       0.00001145 Ry

     iteration # 92     ecut=    30.00 Ry     beta=0.70
     Davidson diagonalization with overlap
     ethr =  1.05E-08,  avg # of iterations =  3.0

     total cpu time spent up to now is      265.5 secs

     total energy              =    -263.38962046 Ry
     Harris-Foulkes estimate   =    -263.38962016 Ry
     estimated scf accuracy    <       0.00001450 Ry

     iteration # 93     ecut=    30.00 Ry     beta=0.70
     Davidson diagonalization with overlap
     ethr =  1.05E-08,  avg # of iterations =  1.0

     total cpu time spent up to now is      265.6 secs

     total energy              =    -263.38976918 Ry
     Harris-Foulkes estimate   =    -263.38962045 Ry
     estimated scf accuracy    <       0.00001397 Ry

     iteration # 94     ecut=    30.00 Ry     beta=0.70
     Davidson diagonalization with overlap
     ethr =  1.05E-08,  avg # of iterations =  5.0

     total cpu time spent up to now is      265.7 secs

     total energy              =    -263.38963813 Ry
     Harris-Foulkes estimate   =    -263.38967654 Ry
     estimated scf accuracy    <       0.00033742 Ry

     iteration # 95     ecut=    30.00 Ry     beta=0.70
     Davidson diagonalization with overlap
     ethr =  1.05E-08,  avg # of iterations =  5.0

     total cpu time spent up to now is      265.8 secs

     total energy              =    -263.38962429 Ry
     Harris-Foulkes estimate   =    -263.38960831 Ry
     estimated scf accuracy    <       0.00004440 Ry

     iteration # 96     ecut=    30.00 Ry     beta=0.70
     Davidson diagonalization with overlap
     ethr =  1.05E-08,  avg # of iterations =  3.0

     total cpu time spent up to now is      265.9 secs

     total energy              =    -263.38961757 Ry
     Harris-Foulkes estimate   =    -263.38961784 Ry
     estimated scf accuracy    <       0.00001858 Ry

     iteration # 97     ecut=    30.00 Ry     beta=0.70
     Davidson diagonalization with overlap
     ethr =  1.05E-08,  avg # of iterations =  1.0

     total cpu time spent up to now is      266.0 secs

     total energy              =    -263.38961534 Ry
     Harris-Foulkes estimate   =    -263.38961757 Ry
     estimated scf accuracy    <       0.00001960 Ry

     iteration # 98     ecut=    30.00 Ry     beta=0.70
     Davidson diagonalization with overlap
     ethr =  1.05E-08,  avg # of iterations =  2.0

     total cpu time spent up to now is      266.1 secs

     total energy              =    -263.38961447 Ry
     Harris-Foulkes estimate   =    -263.38961462 Ry
     estimated scf accuracy    <       0.00002526 Ry

     iteration # 99     ecut=    30.00 Ry     beta=0.70
     Davidson diagonalization with overlap
     ethr =  1.05E-08,  avg # of iterations =  1.0

     total cpu time spent up to now is      266.1 secs

     total energy              =    -263.38961144 Ry
     Harris-Foulkes estimate   =    -263.38961447 Ry
     estimated scf accuracy    <       0.00002655 Ry

     iteration #100     ecut=    30.00 Ry     beta=0.70
     Davidson diagonalization with overlap
     ethr =  1.05E-08,  avg # of iterations =  2.0

     total cpu time spent up to now is      266.2 secs

     total energy              =    -263.38961273 Ry
     Harris-Foulkes estimate   =    -263.38961024 Ry
     estimated scf accuracy    <       0.00003679 Ry

     End of self-consistent calculation

     convergence NOT achieved after 100 iterations: stopping

     Writing output data file pwscf.save
 
     init_run     :      0.08s CPU      0.20s WALL (       1 calls)
     electrons    :    201.32s CPU    230.15s WALL (     137 calls)
     update_pot   :     17.38s CPU     24.54s WALL (     136 calls)
     forces       :      3.33s CPU      3.46s WALL (     136 calls)

     Called by init_run:
     wfcinit      :      0.03s CPU      0.06s WALL (       1 calls)
     potinit      :      0.01s CPU      0.03s WALL (       1 calls)

     Called by electrons:
     c_bands      :    137.60s CPU    142.20s WALL (    2662 calls)
     sum_band     :     22.25s CPU     23.87s WALL (    2662 calls)
     v_of_rho     :     21.29s CPU     22.28s WALL (    2798 calls)
     mix_rho      :     16.96s CPU     31.25s WALL (    2662 calls)

     Called by c_bands:
     init_us_2    :      2.53s CPU      3.03s WALL (    5325 calls)
     cegterg      :    122.35s CPU    125.33s WALL (    2662 calls)

     Called by sum_band:

     Called by *egterg:
     h_psi        :     93.58s CPU     96.30s WALL (    8430 calls)
     g_psi        :      0.69s CPU      0.72s WALL (    5767 calls)
     cdiaghg      :     11.64s CPU     11.66s WALL (    8292 calls)

     Called by h_psi:
     h_psi:pot    :     92.84s CPU     95.39s WALL (    8430 calls)
     h_psi:calbec :      5.20s CPU      5.31s WALL (    8430 calls)
     vloc_psi     :     84.06s CPU     86.44s WALL (    8430 calls)
     add_vuspsi   :      3.57s CPU      3.60s WALL (    8430 calls)

     General routines
     calbec       :      8.02s CPU      8.75s WALL (    9109 calls)
     fft          :     13.35s CPU     14.19s WALL (   31052 calls)
     fftw         :     97.43s CPU     95.78s WALL (  398928 calls)
     davcio       :      2.79s CPU     12.03s WALL (   41040 calls)
 
     Parallel routines
     fft_scatter  :     44.85s CPU     44.56s WALL (  429980 calls)
 
     PWSCF        :  3m45.60s CPU     4m26.31s WALL

 
   This run was terminated on:   7:56:45  18Jun2017            

=------------------------------------------------------------------------------=
   JOB DONE.
=------------------------------------------------------------------------------=
