
     Program PWSCF v.6.0 (svn rev. 13079) starts on 28Apr2017 at  6:12:55 

     This program is part of the open-source Quantum ESPRESSO suite
     for quantum simulation of materials; please cite
         "P. Giannozzi et al., J. Phys.:Condens. Matter 21 395502 (2009);
          URL http://www.quantum-espresso.org", 
     in publications or presentations arising from this work. More details at
     http://www.quantum-espresso.org/quote

     Parallel version (MPI), running on    28 processors
     R & G space division:  proc/nbgrp/npool/nimage =      28
     Waiting for input...
     Reading input from standard input

     Current dimensions of program PWSCF are:
     Max number of different atomic species (ntypx) = 10
     Max number of k-points (npk) =  40000
     Max angular momentum in pseudopotentials (lmaxx) =  3

     Subspace diagonalization in iterative solution of the eigenvalue problem:
     a serial algorithm will be used

 
     Parallelization info
     --------------------
     sticks:   dense  smooth     PW     G-vecs:    dense   smooth      PW
     Min         136     136     33                 6338     6338     787
     Max         137     137     34                 6341     6341     792
     Sum        3809    3809    949               177509   177509   22119
 


     bravais-lattice index     =            1
     lattice parameter (alat)  =      20.0000  a.u.
     unit-cell volume          =    8000.0000 (a.u.)^3
     number of atoms/cell      =            2
     number of atomic types    =            1
     number of electrons       =        22.00
     number of Kohn-Sham states=           11
     kinetic-energy cutoff     =      30.0000  Ry
     charge density cutoff     =     120.0000  Ry
     convergence threshold     =      1.0E-08
     mixing beta               =       0.7000
     number of iterations used =            8  plain     mixing
     Exchange-correlation      = BLYP ( 1  3  1  3 0 0)
     nstep                     =          100


     celldm(1)=  20.000000  celldm(2)=   0.000000  celldm(3)=   0.000000
     celldm(4)=   0.000000  celldm(5)=   0.000000  celldm(6)=   0.000000

     crystal axes: (cart. coord. in units of alat)
               a(1) = (   1.000000   0.000000   0.000000 )  
               a(2) = (   0.000000   1.000000   0.000000 )  
               a(3) = (   0.000000   0.000000   1.000000 )  

     reciprocal axes: (cart. coord. in units 2 pi/alat)
               b(1) = (  1.000000  0.000000  0.000000 )  
               b(2) = (  0.000000  1.000000  0.000000 )  
               b(3) = (  0.000000  0.000000  1.000000 )  


     PseudoPot. # 1 for Au read from file:
     ./Au.blyp-d-hgh.UPF
     MD5 check sum: c10d8bae01f806c36a1643a1c69a8479
     Pseudo is Norm-conserving, Zval = 11.0
     Generated in analytical, separable form
     Using radial grid of 1279 points,  6 beta functions with: 
                l(1) =   0
                l(2) =   0
                l(3) =   1
                l(4) =   1
                l(5) =   2
                l(6) =   2

     atomic species   valence    mass     pseudopotential
        Au            11.00    28.08600     Au( 1.00)

     No symmetry found



   Cartesian axes

     site n.     atom                  positions (alat units)
         1           Au  tau(   1) = (   0.0000000   0.0000000   0.0000000  )
         2           Au  tau(   2) = (   0.1500000   0.1500000   0.1500000  )

     number of k points=     1
                       cart. coord. in units 2pi/alat
        k(    1) = (   0.0000000   0.0000000   0.0000000), wk =   2.0000000

     Dense  grid:   177509 G-vectors     FFT dimensions: (  72,  72,  72)

     Estimated max dynamical RAM per process >       6.09Mb

     Estimated total allocated dynamical RAM >     170.64Mb

     Initial potential from superposition of free atoms
     Check: negative starting charge=   -0.006375

     starting charge   21.99976, renormalised to   22.00000

     negative rho (up, down):  6.375E-03 0.000E+00
     Starting wfc are   18 randomized atomic wfcs

     total cpu time spent up to now is        0.5 secs

     per-process dynamical memory:    18.0 Mb

     Self-consistent Calculation

     iteration #  1     ecut=    30.00 Ry     beta=0.70
     Davidson diagonalization with overlap
     ethr =  1.00E-02,  avg # of iterations =  2.0

     Threshold (ethr) on eigenvalues was too large:
     Diagonalizing with lowered threshold

     Davidson diagonalization with overlap
     ethr =  4.85E-04,  avg # of iterations =  2.0

     negative rho (up, down):  1.173E-03 0.000E+00

     total cpu time spent up to now is        0.6 secs

     total energy              =    -131.68029077 Ry
     Harris-Foulkes estimate   =    -131.75163328 Ry
     estimated scf accuracy    <       0.12679214 Ry

     iteration #  2     ecut=    30.00 Ry     beta=0.70
     Davidson diagonalization with overlap
     ethr =  5.76E-04,  avg # of iterations =  5.0

     negative rho (up, down):  5.900E-04 0.000E+00

     total cpu time spent up to now is        0.7 secs

     total energy              =    -131.70515070 Ry
     Harris-Foulkes estimate   =    -131.76325021 Ry
     estimated scf accuracy    <       0.12491010 Ry

     iteration #  3     ecut=    30.00 Ry     beta=0.70
     Davidson diagonalization with overlap
     ethr =  5.68E-04,  avg # of iterations =  2.0

     negative rho (up, down):  2.782E-04 0.000E+00

     total cpu time spent up to now is        0.7 secs

     total energy              =    -131.72507655 Ry
     Harris-Foulkes estimate   =    -131.72772731 Ry
     estimated scf accuracy    <       0.00700589 Ry

     iteration #  4     ecut=    30.00 Ry     beta=0.70
     Davidson diagonalization with overlap
     ethr =  3.18E-05,  avg # of iterations =  5.0

     negative rho (up, down):  2.772E-08 0.000E+00

     total cpu time spent up to now is        0.7 secs

     total energy              =    -131.73050634 Ry
     Harris-Foulkes estimate   =    -131.73078197 Ry
     estimated scf accuracy    <       0.00125419 Ry

     iteration #  5     ecut=    30.00 Ry     beta=0.70
     Davidson diagonalization with overlap
     ethr =  5.70E-06,  avg # of iterations =  4.0

     total cpu time spent up to now is        0.8 secs

     total energy              =    -131.73052553 Ry
     Harris-Foulkes estimate   =    -131.73059288 Ry
     estimated scf accuracy    <       0.00021600 Ry

     iteration #  6     ecut=    30.00 Ry     beta=0.70
     Davidson diagonalization with overlap
     ethr =  9.82E-07,  avg # of iterations =  4.0

     total cpu time spent up to now is        0.8 secs

     total energy              =    -131.73053825 Ry
     Harris-Foulkes estimate   =    -131.73055701 Ry
     estimated scf accuracy    <       0.00005284 Ry

     iteration #  7     ecut=    30.00 Ry     beta=0.70
     Davidson diagonalization with overlap
     ethr =  2.40E-07,  avg # of iterations =  4.0

     total cpu time spent up to now is        0.9 secs

     total energy              =    -131.73054280 Ry
     Harris-Foulkes estimate   =    -131.73054593 Ry
     estimated scf accuracy    <       0.00000605 Ry

     iteration #  8     ecut=    30.00 Ry     beta=0.70
     Davidson diagonalization with overlap
     ethr =  2.75E-08,  avg # of iterations =  1.0

     total cpu time spent up to now is        0.9 secs

     total energy              =    -131.73054092 Ry
     Harris-Foulkes estimate   =    -131.73054310 Ry
     estimated scf accuracy    <       0.00000229 Ry

     iteration #  9     ecut=    30.00 Ry     beta=0.70
     Davidson diagonalization with overlap
     ethr =  1.04E-08,  avg # of iterations =  5.0

     total cpu time spent up to now is        0.9 secs

     total energy              =    -131.73054210 Ry
     Harris-Foulkes estimate   =    -131.73054219 Ry
     estimated scf accuracy    <       0.00000099 Ry

     iteration # 10     ecut=    30.00 Ry     beta=0.70
     Davidson diagonalization with overlap
     ethr =  4.48E-09,  avg # of iterations =  1.0

     total cpu time spent up to now is        1.0 secs

     total energy              =    -131.73054187 Ry
     Harris-Foulkes estimate   =    -131.73054212 Ry
     estimated scf accuracy    <       0.00000054 Ry

     iteration # 11     ecut=    30.00 Ry     beta=0.70
     Davidson diagonalization with overlap
     ethr =  2.45E-09,  avg # of iterations =  5.0

     total cpu time spent up to now is        1.0 secs

     total energy              =    -131.73054198 Ry
     Harris-Foulkes estimate   =    -131.73054199 Ry
     estimated scf accuracy    <       0.00000003 Ry

     iteration # 12     ecut=    30.00 Ry     beta=0.70
     Davidson diagonalization with overlap
     ethr =  1.58E-10,  avg # of iterations =  2.0

     total cpu time spent up to now is        1.1 secs

     total energy              =    -131.73054198 Ry
     Harris-Foulkes estimate   =    -131.73054198 Ry
     estimated scf accuracy    <       0.00000002 Ry

     iteration # 13     ecut=    30.00 Ry     beta=0.70
     Davidson diagonalization with overlap
     ethr =  7.73E-11,  avg # of iterations =  4.0

     total cpu time spent up to now is        1.1 secs

     End of self-consistent calculation

          k = 0.0000 0.0000 0.0000 ( 22119 PWs)   bands (ev):

    -7.8002  -6.8343  -6.8343  -6.1245  -6.1245  -5.9301  -5.9301  -5.8573
    -5.8573  -5.7533  -5.7522

     highest occupied level (ev):    -5.7522

!    total energy              =    -131.73054189 Ry
     Harris-Foulkes estimate   =    -131.73054198 Ry
     estimated scf accuracy    <          1.7E-09 Ry

     convergence has been achieved in  13 iterations

     Forces acting on atoms (Ry/au):

     atom    1 type  1   force =     0.02554128    0.02554178    0.02553921
     atom    2 type  1   force =    -0.02554128   -0.02554178   -0.02553921

     Total force =     0.062562     Total SCF correction =     0.000130

     Molecular Dynamics Calculation

     Starting temperature  =   400.00 K

     temperature is controlled by Andersen thermostat
     Collision frequency = 1.0000/timestep
     mass Au               =    28.09
     Time step             =   100.00 a.u.,  4.8378 femto-seconds

     Entering Dynamics:    iteration =     1
                           time      =   0.0048 pico-seconds


     Andersen thermostat:    2 collisions

ATOMIC_POSITIONS (bohr)
Au       0.040383176   0.011523972  -0.004733369
Au       2.959616824   2.988476028   3.004733369


     kinetic energy (Ekin) =     0.00355820 Ry
     temperature           =   374.52939888 K 
     Ekin + Etot (const)   =  -131.72698369 Ry

     Linear momentum :   -0.0000000000    0.0000000000    0.0000000000

     Writing output data file pwscf.save
     Check: negative starting charge=   -0.006375
     NEW-OLD atomic charge density approx. for the potential
     Check: negative starting charge=   -0.006314

     negative rho (up, down):  9.970E-04 0.000E+00

     total cpu time spent up to now is        1.9 secs

     per-process dynamical memory:    20.1 Mb

     Self-consistent Calculation

     iteration #  1     ecut=    30.00 Ry     beta=0.70
     Davidson diagonalization with overlap
     ethr =  1.00E-06,  avg # of iterations =  7.0

     negative rho (up, down):  1.113E-04 0.000E+00

     total cpu time spent up to now is        2.0 secs

     total energy              =    -131.73273215 Ry
     Harris-Foulkes estimate   =    -131.73258423 Ry
     estimated scf accuracy    <       0.00025032 Ry

     iteration #  2     ecut=    30.00 Ry     beta=0.70
     Davidson diagonalization with overlap
     ethr =  1.14E-06,  avg # of iterations =  5.0

     negative rho (up, down):  3.535E-05 0.000E+00

     total cpu time spent up to now is        2.0 secs

     total energy              =    -131.73277813 Ry
     Harris-Foulkes estimate   =    -131.73286485 Ry
     estimated scf accuracy    <       0.00018548 Ry

     iteration #  3     ecut=    30.00 Ry     beta=0.70
     Davidson diagonalization with overlap
     ethr =  8.43E-07,  avg # of iterations =  2.0

     negative rho (up, down):  4.420E-07 0.000E+00

     total cpu time spent up to now is        2.1 secs

     total energy              =    -131.73281546 Ry
     Harris-Foulkes estimate   =    -131.73281806 Ry
     estimated scf accuracy    <       0.00000638 Ry

     iteration #  4     ecut=    30.00 Ry     beta=0.70
     Davidson diagonalization with overlap
     ethr =  2.90E-08,  avg # of iterations =  6.0

     total cpu time spent up to now is        2.1 secs

     total energy              =    -131.73281759 Ry
     Harris-Foulkes estimate   =    -131.73282143 Ry
     estimated scf accuracy    <       0.00000565 Ry

     iteration #  5     ecut=    30.00 Ry     beta=0.70
     Davidson diagonalization with overlap
     ethr =  2.57E-08,  avg # of iterations =  4.0

     total cpu time spent up to now is        2.1 secs

     total energy              =    -131.73281782 Ry
     Harris-Foulkes estimate   =    -131.73281819 Ry
     estimated scf accuracy    <       0.00000068 Ry

     iteration #  6     ecut=    30.00 Ry     beta=0.70
     Davidson diagonalization with overlap
     ethr =  3.08E-09,  avg # of iterations =  5.0

     total cpu time spent up to now is        2.2 secs

     total energy              =    -131.73281764 Ry
     Harris-Foulkes estimate   =    -131.73281795 Ry
     estimated scf accuracy    <       0.00000009 Ry

     iteration #  7     ecut=    30.00 Ry     beta=0.70
     Davidson diagonalization with overlap
     ethr =  4.16E-10,  avg # of iterations =  3.0

     total cpu time spent up to now is        2.2 secs

     total energy              =    -131.73281753 Ry
     Harris-Foulkes estimate   =    -131.73281766 Ry
     estimated scf accuracy    <       0.00000003 Ry

     iteration #  8     ecut=    30.00 Ry     beta=0.70
     Davidson diagonalization with overlap
     ethr =  1.35E-10,  avg # of iterations =  5.0

     total cpu time spent up to now is        2.3 secs

     End of self-consistent calculation

          k = 0.0000 0.0000 0.0000 ( 22119 PWs)   bands (ev):

    -7.8718  -6.8752  -6.8748  -6.1320  -6.1311  -5.9242  -5.9239  -5.8400
    -5.8399  -5.7630  -5.7349

     highest occupied level (ev):    -5.7349

!    total energy              =    -131.73281741 Ry
     Harris-Foulkes estimate   =    -131.73281754 Ry
     estimated scf accuracy    <          1.1E-09 Ry

     convergence has been achieved in   8 iterations

     Forces acting on atoms (Ry/au):

     atom    1 type  1   force =     0.02283432    0.02293737    0.02316255
     atom    2 type  1   force =    -0.02283432   -0.02293737   -0.02316255

     Total force =     0.056286     Total SCF correction =     0.000146

     Entering Dynamics:    iteration =     2
                           time      =   0.0097 pico-seconds


     Andersen thermostat:    2 collisions

ATOMIC_POSITIONS (bohr)
Au       0.086889971   0.015943769  -0.013642469
Au       2.913110029   2.984056231   3.013642469


     kinetic energy (Ekin) =     0.00533442 Ry
     temperature           =   561.49196319 K 
     Ekin + Etot (const)   =  -131.72748299 Ry
     Message from routine dynamics:
     Total linear momentum <> 0

     Linear momentum :    0.0005078727   -0.2977824948    0.0099175925

     Writing output data file pwscf.save

     first order wave-functions extrapolation
     Check: negative starting charge=   -0.006314
     first order charge density extrapolation
     Check: negative starting charge=   -0.006268

     negative rho (up, down):  2.836E-04 0.000E+00

     total cpu time spent up to now is        2.8 secs

     per-process dynamical memory:    20.1 Mb

     Self-consistent Calculation

     iteration #  1     ecut=    30.00 Ry     beta=0.70
     Davidson diagonalization with overlap
     ethr =  1.00E-06,  avg # of iterations =  4.0

     negative rho (up, down):  1.859E-05 0.000E+00

     total cpu time spent up to now is        2.9 secs

     total energy              =    -131.73459747 Ry
     Harris-Foulkes estimate   =    -131.73461222 Ry
     estimated scf accuracy    <       0.00002215 Ry

     iteration #  2     ecut=    30.00 Ry     beta=0.70
     Davidson diagonalization with overlap
     ethr =  1.01E-07,  avg # of iterations =  3.0

     negative rho (up, down):  3.380E-06 0.000E+00

     total cpu time spent up to now is        2.9 secs

     total energy              =    -131.73460278 Ry
     Harris-Foulkes estimate   =    -131.73460851 Ry
     estimated scf accuracy    <       0.00001282 Ry

     iteration #  3     ecut=    30.00 Ry     beta=0.70
     Davidson diagonalization with overlap
     ethr =  5.83E-08,  avg # of iterations =  2.0

     total cpu time spent up to now is        2.9 secs

     total energy              =    -131.73460769 Ry
     Harris-Foulkes estimate   =    -131.73460582 Ry
     estimated scf accuracy    <       0.00000045 Ry

     iteration #  4     ecut=    30.00 Ry     beta=0.70
     Davidson diagonalization with overlap
     ethr =  2.06E-09,  avg # of iterations =  4.0

     total cpu time spent up to now is        3.0 secs

     total energy              =    -131.73460814 Ry
     Harris-Foulkes estimate   =    -131.73460791 Ry
     estimated scf accuracy    <       0.00000016 Ry

     iteration #  5     ecut=    30.00 Ry     beta=0.70
     Davidson diagonalization with overlap
     ethr =  7.18E-10,  avg # of iterations =  4.0

     total cpu time spent up to now is        3.0 secs

     End of self-consistent calculation

          k = 0.0000 0.0000 0.0000 ( 22119 PWs)   bands (ev):

    -7.9355  -6.9124  -6.9116  -6.1394  -6.1377  -5.9189  -5.9184  -5.8243
    -5.8240  -5.7720  -5.7207

     highest occupied level (ev):    -5.7207

!    total energy              =    -131.73460850 Ry
     Harris-Foulkes estimate   =    -131.73460817 Ry
     estimated scf accuracy    <          8.4E-09 Ry

     convergence has been achieved in   5 iterations

     Forces acting on atoms (Ry/au):

     atom    1 type  1   force =     0.01993089    0.02021211    0.02104106
     atom    2 type  1   force =    -0.01993089   -0.02021211   -0.02104106

     Total force =     0.049970     Total SCF correction =     0.000231

     Entering Dynamics:    iteration =     3
                           time      =   0.0145 pico-seconds


     Andersen thermostat:    2 collisions

ATOMIC_POSITIONS (bohr)
Au       0.108105533   0.008556091   0.019867095
Au       2.891894467   2.991443909   2.980132905


     kinetic energy (Ekin) =     0.00488883 Ry
     temperature           =   514.58930339 K 
     Ekin + Etot (const)   =  -131.72971967 Ry
     Message from routine dynamics:
     Total linear momentum <> 0

     Linear momentum :    0.4951489077    0.3987381006    0.0083992218

     Writing output data file pwscf.save

     second order wave-functions extrapolation
     Check: negative starting charge=   -0.006268
     second order charge density extrapolation
     Check: negative starting charge=   -0.006241

     negative rho (up, down):  8.992E-04 0.000E+00

     total cpu time spent up to now is        3.3 secs

     per-process dynamical memory:    20.1 Mb

     Self-consistent Calculation

     iteration #  1     ecut=    30.00 Ry     beta=0.70
     Davidson diagonalization with overlap
     ethr =  1.00E-06,  avg # of iterations =  6.0

     negative rho (up, down):  9.681E-05 0.000E+00

     total cpu time spent up to now is        3.4 secs

     total energy              =    -131.73630374 Ry
     Harris-Foulkes estimate   =    -131.73621622 Ry
     estimated scf accuracy    <       0.00021218 Ry

     iteration #  2     ecut=    30.00 Ry     beta=0.70
     Davidson diagonalization with overlap
     ethr =  9.64E-07,  avg # of iterations =  5.0

     negative rho (up, down):  2.934E-05 0.000E+00

     total cpu time spent up to now is        3.4 secs

     total energy              =    -131.73634168 Ry
     Harris-Foulkes estimate   =    -131.73641400 Ry
     estimated scf accuracy    <       0.00015142 Ry

     iteration #  3     ecut=    30.00 Ry     beta=0.70
     Davidson diagonalization with overlap
     ethr =  6.88E-07,  avg # of iterations =  2.0

     negative rho (up, down):  2.066E-07 0.000E+00

     total cpu time spent up to now is        3.5 secs

     total energy              =    -131.73637322 Ry
     Harris-Foulkes estimate   =    -131.73637496 Ry
     estimated scf accuracy    <       0.00000493 Ry

     iteration #  4     ecut=    30.00 Ry     beta=0.70
     Davidson diagonalization with overlap
     ethr =  2.24E-08,  avg # of iterations =  5.0

     total cpu time spent up to now is        3.5 secs

     total energy              =    -131.73637500 Ry
     Harris-Foulkes estimate   =    -131.73637751 Ry
     estimated scf accuracy    <       0.00000415 Ry

     iteration #  5     ecut=    30.00 Ry     beta=0.70
     Davidson diagonalization with overlap
     ethr =  1.88E-08,  avg # of iterations =  5.0

     total cpu time spent up to now is        3.6 secs

     total energy              =    -131.73637484 Ry
     Harris-Foulkes estimate   =    -131.73637549 Ry
     estimated scf accuracy    <       0.00000035 Ry

     iteration #  6     ecut=    30.00 Ry     beta=0.70
     Davidson diagonalization with overlap
     ethr =  1.59E-09,  avg # of iterations =  2.0

     total cpu time spent up to now is        3.6 secs

     total energy              =    -131.73637458 Ry
     Harris-Foulkes estimate   =    -131.73637487 Ry
     estimated scf accuracy    <       0.00000011 Ry

     iteration #  7     ecut=    30.00 Ry     beta=0.70
     Davidson diagonalization with overlap
     ethr =  5.20E-10,  avg # of iterations =  5.0

     total cpu time spent up to now is        3.7 secs

     total energy              =    -131.73637462 Ry
     Harris-Foulkes estimate   =    -131.73637464 Ry
     estimated scf accuracy    <       0.00000003 Ry

     iteration #  8     ecut=    30.00 Ry     beta=0.70
     Davidson diagonalization with overlap
     ethr =  1.29E-10,  avg # of iterations =  2.0

     total cpu time spent up to now is        3.7 secs

     End of self-consistent calculation

          k = 0.0000 0.0000 0.0000 ( 22119 PWs)   bands (ev):

    -8.0111  -6.9577  -6.9570  -6.1478  -6.1468  -5.9128  -5.9122  -5.8052
    -5.8046  -5.7825  -5.7047

     highest occupied level (ev):    -5.7047

!    total energy              =    -131.73637453 Ry
     Harris-Foulkes estimate   =    -131.73637462 Ry
     estimated scf accuracy    <          8.9E-09 Ry

     convergence has been achieved in   8 iterations

     Forces acting on atoms (Ry/au):

     atom    1 type  1   force =     0.01665146    0.01706648    0.01672920
     atom    2 type  1   force =    -0.01665146   -0.01706648   -0.01672920

     Total force =     0.041192     Total SCF correction =     0.000144

     Entering Dynamics:    iteration =     4
                           time      =   0.0194 pico-seconds


     Andersen thermostat:    2 collisions

ATOMIC_POSITIONS (bohr)
Au       0.099324133   0.002097465   0.053089481
Au       2.900675867   2.997902535   2.946910519


     kinetic energy (Ekin) =     0.00328900 Ry
     temperature           =   346.19479013 K 
     Ekin + Etot (const)   =  -131.73308552 Ry
     Message from routine dynamics:
     Total linear momentum <> 0

     Linear momentum :   -0.1413962460   -0.2006858262    0.1896201924

     Writing output data file pwscf.save

     second order wave-functions extrapolation
     Check: negative starting charge=   -0.006241
     second order charge density extrapolation
     Check: negative starting charge=   -0.006236

     negative rho (up, down):  6.799E-05 0.000E+00

     total cpu time spent up to now is        4.0 secs

     per-process dynamical memory:    20.1 Mb

     Self-consistent Calculation

     iteration #  1     ecut=    30.00 Ry     beta=0.70
     Davidson diagonalization with overlap
     ethr =  1.00E-06,  avg # of iterations =  4.0

     Threshold (ethr) on eigenvalues was too large:
     Diagonalizing with lowered threshold

     Davidson diagonalization with overlap
     ethr =  9.16E-09,  avg # of iterations =  2.0

     negative rho (up, down):  1.516E-06 0.000E+00

     total cpu time spent up to now is        4.1 secs

     total energy              =    -131.73692633 Ry
     Harris-Foulkes estimate   =    -131.73692429 Ry
     estimated scf accuracy    <       0.00000205 Ry

     iteration #  2     ecut=    30.00 Ry     beta=0.70
     Davidson diagonalization with overlap
     ethr =  9.30E-09,  avg # of iterations =  3.0

     negative rho (up, down):  7.947E-08 0.000E+00

     total cpu time spent up to now is        4.2 secs

     total energy              =    -131.73692687 Ry
     Harris-Foulkes estimate   =    -131.73692714 Ry
     estimated scf accuracy    <       0.00000073 Ry

     iteration #  3     ecut=    30.00 Ry     beta=0.70
     Davidson diagonalization with overlap
     ethr =  3.33E-09,  avg # of iterations =  2.0

     total cpu time spent up to now is        4.2 secs

     total energy              =    -131.73692738 Ry
     Harris-Foulkes estimate   =    -131.73692713 Ry
     estimated scf accuracy    <       0.00000013 Ry

     iteration #  4     ecut=    30.00 Ry     beta=0.70
     Davidson diagonalization with overlap
     ethr =  5.71E-10,  avg # of iterations =  2.0

     total cpu time spent up to now is        4.2 secs

     End of self-consistent calculation

          k = 0.0000 0.0000 0.0000 ( 22119 PWs)   bands (ev):

    -8.0406  -6.9764  -6.9749  -6.1518  -6.1496  -5.9101  -5.9095  -5.7973
    -5.7967  -5.7864  -5.6980

     highest occupied level (ev):    -5.6980

!    total energy              =    -131.73692734 Ry
     Harris-Foulkes estimate   =    -131.73692743 Ry
     estimated scf accuracy    <          8.0E-09 Ry

     convergence has been achieved in   4 iterations

     Forces acting on atoms (Ry/au):

     atom    1 type  1   force =     0.01504087    0.01579531    0.01480828
     atom    2 type  1   force =    -0.01504087   -0.01579531   -0.01480828

     Total force =     0.037283     Total SCF correction =     0.000443

     Entering Dynamics:    iteration =     5
                           time      =   0.0242 pico-seconds


     Andersen thermostat:    2 collisions

ATOMIC_POSITIONS (bohr)
Au       0.135566050   0.013236494   0.031641134
Au       2.864433950   2.986763506   2.968358866


     kinetic energy (Ekin) =     0.00531823 Ry
     temperature           =   559.78778314 K 
     Ekin + Etot (const)   =  -131.73160910 Ry
     Message from routine dynamics:
     Total linear momentum <> 0

     Linear momentum :    0.1085531378   -0.3721732950    0.2313479786

     Writing output data file pwscf.save

     second order wave-functions extrapolation
     Check: negative starting charge=   -0.006236
     second order charge density extrapolation
     Check: negative starting charge=   -0.006246

     negative rho (up, down):  1.780E-04 0.000E+00

     total cpu time spent up to now is        4.6 secs

     per-process dynamical memory:    20.1 Mb

     Self-consistent Calculation

     iteration #  1     ecut=    30.00 Ry     beta=0.70
     Davidson diagonalization with overlap
     ethr =  1.00E-06,  avg # of iterations =  4.0

     Threshold (ethr) on eigenvalues was too large:
     Diagonalizing with lowered threshold

     Davidson diagonalization with overlap
     ethr =  2.30E-08,  avg # of iterations =  4.0

     negative rho (up, down):  9.264E-06 0.000E+00

     total cpu time spent up to now is        4.7 secs

     total energy              =    -131.73768333 Ry
     Harris-Foulkes estimate   =    -131.73768581 Ry
     estimated scf accuracy    <       0.00000716 Ry

     iteration #  2     ecut=    30.00 Ry     beta=0.70
     Davidson diagonalization with overlap
     ethr =  3.25E-08,  avg # of iterations =  4.0

     negative rho (up, down):  1.186E-06 0.000E+00

     total cpu time spent up to now is        4.8 secs

     total energy              =    -131.73768523 Ry
     Harris-Foulkes estimate   =    -131.73768611 Ry
     estimated scf accuracy    <       0.00000351 Ry

     iteration #  3     ecut=    30.00 Ry     beta=0.70
     Davidson diagonalization with overlap
     ethr =  1.59E-08,  avg # of iterations =  4.0

     total cpu time spent up to now is        4.8 secs

     total energy              =    -131.73768783 Ry
     Harris-Foulkes estimate   =    -131.73768622 Ry
     estimated scf accuracy    <       0.00000039 Ry

     iteration #  4     ecut=    30.00 Ry     beta=0.70
     Davidson diagonalization with overlap
     ethr =  1.78E-09,  avg # of iterations =  4.0

     total cpu time spent up to now is        4.9 secs

     total energy              =    -131.73768845 Ry
     Harris-Foulkes estimate   =    -131.73768798 Ry
     estimated scf accuracy    <       0.00000015 Ry

     iteration #  5     ecut=    30.00 Ry     beta=0.70
     Davidson diagonalization with overlap
     ethr =  6.90E-10,  avg # of iterations =  4.0

     total cpu time spent up to now is        4.9 secs

     End of self-consistent calculation

          k = 0.0000 0.0000 0.0000 ( 22119 PWs)   bands (ev):

    -8.0816  -7.0010  -7.0001  -6.1565  -6.1557  -5.9069  -5.9062  -5.7924
    -5.7867  -5.7856  -5.6901

     highest occupied level (ev):    -5.6901

!    total energy              =    -131.73768842 Ry
     Harris-Foulkes estimate   =    -131.73768848 Ry
     estimated scf accuracy    <          6.0E-09 Ry

     convergence has been achieved in   5 iterations

     Forces acting on atoms (Ry/au):

     atom    1 type  1   force =     0.01341573    0.01322926    0.01280596
     atom    2 type  1   force =    -0.01341573   -0.01322926   -0.01280596

     Total force =     0.032218     Total SCF correction =     0.000193

     Entering Dynamics:    iteration =     6
                           time      =   0.0290 pico-seconds


     Andersen thermostat:    2 collisions

ATOMIC_POSITIONS (bohr)
Au       0.165540557   0.010860837   0.034826338
Au       2.834459443   2.989139163   2.965173662


     kinetic energy (Ekin) =     0.00293512 Ry
     temperature           =   308.94567844 K 
     Ekin + Etot (const)   =  -131.73475330 Ry
     Message from routine dynamics:
     Total linear momentum <> 0

     Linear momentum :    0.1049783713    0.4496689766   -0.1771486169

     Writing output data file pwscf.save

     second order wave-functions extrapolation
     Check: negative starting charge=   -0.006246
     second order charge density extrapolation
     Check: negative starting charge=   -0.006266

     negative rho (up, down):  1.043E-04 0.000E+00

     total cpu time spent up to now is        5.3 secs

     per-process dynamical memory:    20.1 Mb

     Self-consistent Calculation

     iteration #  1     ecut=    30.00 Ry     beta=0.70
     Davidson diagonalization with overlap
     ethr =  1.00E-06,  avg # of iterations =  4.0

     Threshold (ethr) on eigenvalues was too large:
     Diagonalizing with lowered threshold

     Davidson diagonalization with overlap
     ethr =  5.64E-08,  avg # of iterations =  1.0

     negative rho (up, down):  3.695E-06 0.000E+00

     total cpu time spent up to now is        5.4 secs

     total energy              =    -131.73842649 Ry
     Harris-Foulkes estimate   =    -131.73842875 Ry
     estimated scf accuracy    <       0.00001266 Ry

     iteration #  2     ecut=    30.00 Ry     beta=0.70
     Davidson diagonalization with overlap
     ethr =  5.76E-08,  avg # of iterations =  3.0

     negative rho (up, down):  4.507E-07 0.000E+00

     total cpu time spent up to now is        5.5 secs

     total energy              =    -131.73843028 Ry
     Harris-Foulkes estimate   =    -131.73843236 Ry
     estimated scf accuracy    <       0.00000737 Ry

     iteration #  3     ecut=    30.00 Ry     beta=0.70
     Davidson diagonalization with overlap
     ethr =  3.35E-08,  avg # of iterations =  2.0

     total cpu time spent up to now is        5.5 secs

     total energy              =    -131.73843375 Ry
     Harris-Foulkes estimate   =    -131.73843215 Ry
     estimated scf accuracy    <       0.00000030 Ry

     iteration #  4     ecut=    30.00 Ry     beta=0.70
     Davidson diagonalization with overlap
     ethr =  1.36E-09,  avg # of iterations =  5.0

     total cpu time spent up to now is        5.5 secs

     total energy              =    -131.73843421 Ry
     Harris-Foulkes estimate   =    -131.73843389 Ry
     estimated scf accuracy    <       0.00000013 Ry

     iteration #  5     ecut=    30.00 Ry     beta=0.70
     Davidson diagonalization with overlap
     ethr =  5.98E-10,  avg # of iterations =  4.0

     total cpu time spent up to now is        5.6 secs

     total energy              =    -131.73843443 Ry
     Harris-Foulkes estimate   =    -131.73843424 Ry
     estimated scf accuracy    <       0.00000001 Ry

     iteration #  6     ecut=    30.00 Ry     beta=0.70
     Davidson diagonalization with overlap
     ethr =  5.30E-11,  avg # of iterations =  4.0

     total cpu time spent up to now is        5.6 secs

     End of self-consistent calculation

          k = 0.0000 0.0000 0.0000 ( 22119 PWs)   bands (ev):

    -8.1307  -7.0313  -7.0306  -6.1631  -6.1623  -5.9028  -5.9021  -5.7995
    -5.7741  -5.7725  -5.6803

     highest occupied level (ev):    -5.6803

!    total energy              =    -131.73843462 Ry
     Harris-Foulkes estimate   =    -131.73843444 Ry
     estimated scf accuracy    <          4.0E-09 Ry

     convergence has been achieved in   6 iterations

     Forces acting on atoms (Ry/au):

     atom    1 type  1   force =     0.01093285    0.01042438    0.00996550
     atom    2 type  1   force =    -0.01093285   -0.01042438   -0.00996550

     Total force =     0.025593     Total SCF correction =     0.000180

     Entering Dynamics:    iteration =     7
                           time      =   0.0339 pico-seconds


     Andersen thermostat:    2 collisions

ATOMIC_POSITIONS (bohr)
Au       0.129139582  -0.006202287  -0.006663565
Au       2.870860418   3.006202287   3.006663565


     kinetic energy (Ekin) =     0.01026101 Ry
     temperature           =  1080.05610193 K 
     Ekin + Etot (const)   =  -131.72817361 Ry
     Message from routine dynamics:
     Total linear momentum <> 0

     Linear momentum :    0.3851424167   -0.1665709824    0.0453431443

     Writing output data file pwscf.save

     second order wave-functions extrapolation
     Check: negative starting charge=   -0.006266
     second order charge density extrapolation
     Check: negative starting charge=   -0.006256

     negative rho (up, down):  8.962E-04 0.000E+00

     total cpu time spent up to now is        6.1 secs

     per-process dynamical memory:    20.1 Mb

     Self-consistent Calculation

     iteration #  1     ecut=    30.00 Ry     beta=0.70
     Davidson diagonalization with overlap
     ethr =  1.00E-06,  avg # of iterations =  7.0

     negative rho (up, down):  9.971E-05 0.000E+00

     total cpu time spent up to now is        6.2 secs

     total energy              =    -131.73554501 Ry
     Harris-Foulkes estimate   =    -131.73548929 Ry
     estimated scf accuracy    <       0.00018752 Ry

     iteration #  2     ecut=    30.00 Ry     beta=0.70
     Davidson diagonalization with overlap
     ethr =  8.52E-07,  avg # of iterations =  5.0

     negative rho (up, down):  3.173E-05 0.000E+00

     total cpu time spent up to now is        6.2 secs

     total energy              =    -131.73558082 Ry
     Harris-Foulkes estimate   =    -131.73564413 Ry
     estimated scf accuracy    <       0.00014431 Ry

     iteration #  3     ecut=    30.00 Ry     beta=0.70
     Davidson diagonalization with overlap
     ethr =  6.56E-07,  avg # of iterations =  2.0

     negative rho (up, down):  1.654E-06 0.000E+00

     total cpu time spent up to now is        6.3 secs

     total energy              =    -131.73561721 Ry
     Harris-Foulkes estimate   =    -131.73561178 Ry
     estimated scf accuracy    <       0.00000709 Ry

     iteration #  4     ecut=    30.00 Ry     beta=0.70
     Davidson diagonalization with overlap
     ethr =  3.22E-08,  avg # of iterations =  5.0

     total cpu time spent up to now is        6.3 secs

     total energy              =    -131.73562686 Ry
     Harris-Foulkes estimate   =    -131.73562418 Ry
     estimated scf accuracy    <       0.00000539 Ry

     iteration #  5     ecut=    30.00 Ry     beta=0.70
     Davidson diagonalization with overlap
     ethr =  2.45E-08,  avg # of iterations =  4.0

     total cpu time spent up to now is        6.4 secs

     total energy              =    -131.73562821 Ry
     Harris-Foulkes estimate   =    -131.73562765 Ry
     estimated scf accuracy    <       0.00000083 Ry

     iteration #  6     ecut=    30.00 Ry     beta=0.70
     Davidson diagonalization with overlap
     ethr =  3.79E-09,  avg # of iterations =  4.0

     total cpu time spent up to now is        6.4 secs

     total energy              =    -131.73562852 Ry
     Harris-Foulkes estimate   =    -131.73562837 Ry
     estimated scf accuracy    <       0.00000029 Ry

     iteration #  7     ecut=    30.00 Ry     beta=0.70
     Davidson diagonalization with overlap
     ethr =  1.34E-09,  avg # of iterations =  1.0

     total cpu time spent up to now is        6.5 secs

     total energy              =    -131.73562901 Ry
     Harris-Foulkes estimate   =    -131.73562853 Ry
     estimated scf accuracy    <       0.00000015 Ry

     iteration #  8     ecut=    30.00 Ry     beta=0.70
     Davidson diagonalization with overlap
     ethr =  6.60E-10,  avg # of iterations =  5.0

     total cpu time spent up to now is        6.5 secs

     total energy              =    -131.73562906 Ry
     Harris-Foulkes estimate   =    -131.73562911 Ry
     estimated scf accuracy    <       0.00000016 Ry

     iteration #  9     ecut=    30.00 Ry     beta=0.70
     Davidson diagonalization with overlap
     ethr =  6.60E-10,  avg # of iterations =  1.0

     total cpu time spent up to now is        6.5 secs

     total energy              =    -131.73562906 Ry
     Harris-Foulkes estimate   =    -131.73562907 Ry
     estimated scf accuracy    <       0.00000007 Ry

     iteration # 10     ecut=    30.00 Ry     beta=0.70
     Davidson diagonalization with overlap
     ethr =  3.36E-10,  avg # of iterations =  4.0

     total cpu time spent up to now is        6.6 secs

     total energy              =    -131.73562910 Ry
     Harris-Foulkes estimate   =    -131.73562907 Ry
     estimated scf accuracy    <       0.00000003 Ry

     iteration # 11     ecut=    30.00 Ry     beta=0.70
     Davidson diagonalization with overlap
     ethr =  1.17E-10,  avg # of iterations =  4.0

     total cpu time spent up to now is        6.6 secs

     End of self-consistent calculation

          k = 0.0000 0.0000 0.0000 ( 22119 PWs)   bands (ev):

    -7.9750  -6.9353  -6.9347  -6.1438  -6.1427  -5.9157  -5.9149  -5.8143
    -5.8136  -5.7776  -5.7125

     highest occupied level (ev):    -5.7125

!    total energy              =    -131.73562912 Ry
     Harris-Foulkes estimate   =    -131.73562910 Ry
     estimated scf accuracy    <          1.5E-09 Ry

     convergence has been achieved in  11 iterations

     Forces acting on atoms (Ry/au):

     atom    1 type  1   force =     0.01827766    0.01917962    0.01918825
     atom    2 type  1   force =    -0.01827766   -0.01917962   -0.01918825

     Total force =     0.046263     Total SCF correction =     0.000094

     Entering Dynamics:    iteration =     8
                           time      =   0.0387 pico-seconds


     Andersen thermostat:    2 collisions

ATOMIC_POSITIONS (bohr)
Au       0.111898235  -0.028333232   0.006927628
Au       2.888101765   3.028333232   2.993072372


     kinetic energy (Ekin) =     0.00379796 Ry
     temperature           =   399.76649664 K 
     Ekin + Etot (const)   =  -131.73183116 Ry
     Message from routine dynamics:
     Total linear momentum <> 0

     Linear momentum :   -0.4041784306   -0.1153937075   -0.0971591927

     Writing output data file pwscf.save

     second order wave-functions extrapolation
     Check: negative starting charge=   -0.006256
     second order charge density extrapolation
     Check: negative starting charge=   -0.006269

     negative rho (up, down):  5.383E-04 0.000E+00

     total cpu time spent up to now is        7.0 secs

     per-process dynamical memory:    20.1 Mb

     Self-consistent Calculation

     iteration #  1     ecut=    30.00 Ry     beta=0.70
     Davidson diagonalization with overlap
     ethr =  1.00E-06,  avg # of iterations =  5.0

     negative rho (up, down):  4.606E-05 0.000E+00

     total cpu time spent up to now is        7.1 secs

     total energy              =    -131.73456698 Ry
     Harris-Foulkes estimate   =    -131.73457210 Ry
     estimated scf accuracy    <       0.00011273 Ry

     iteration #  2     ecut=    30.00 Ry     beta=0.70
     Davidson diagonalization with overlap
     ethr =  5.12E-07,  avg # of iterations =  3.0

     negative rho (up, down):  1.012E-05 0.000E+00

     total cpu time spent up to now is        7.1 secs

     total energy              =    -131.73458917 Ry
     Harris-Foulkes estimate   =    -131.73461988 Ry
     estimated scf accuracy    <       0.00006328 Ry

     iteration #  3     ecut=    30.00 Ry     beta=0.70
     Davidson diagonalization with overlap
     ethr =  2.88E-07,  avg # of iterations =  2.0

     total cpu time spent up to now is        7.2 secs

     total energy              =    -131.73460784 Ry
     Harris-Foulkes estimate   =    -131.73460453 Ry
     estimated scf accuracy    <       0.00000202 Ry

     iteration #  4     ecut=    30.00 Ry     beta=0.70
     Davidson diagonalization with overlap
     ethr =  9.17E-09,  avg # of iterations =  4.0

     total cpu time spent up to now is        7.2 secs

     total energy              =    -131.73460846 Ry
     Harris-Foulkes estimate   =    -131.73460859 Ry
     estimated scf accuracy    <       0.00000036 Ry

     iteration #  5     ecut=    30.00 Ry     beta=0.70
     Davidson diagonalization with overlap
     ethr =  1.62E-09,  avg # of iterations =  4.0

     total cpu time spent up to now is        7.2 secs

     total energy              =    -131.73460873 Ry
     Harris-Foulkes estimate   =    -131.73460855 Ry
     estimated scf accuracy    <       0.00000007 Ry

     iteration #  6     ecut=    30.00 Ry     beta=0.70
     Davidson diagonalization with overlap
     ethr =  3.13E-10,  avg # of iterations =  4.0

     total cpu time spent up to now is        7.3 secs

     total energy              =    -131.73460866 Ry
     Harris-Foulkes estimate   =    -131.73460876 Ry
     estimated scf accuracy    <       0.00000003 Ry

     iteration #  7     ecut=    30.00 Ry     beta=0.70
     Davidson diagonalization with overlap
     ethr =  1.22E-10,  avg # of iterations =  4.0

     total cpu time spent up to now is        7.3 secs

     End of self-consistent calculation

          k = 0.0000 0.0000 0.0000 ( 22119 PWs)   bands (ev):

    -7.9349  -6.9116  -6.9109  -6.1395  -6.1377  -5.9189  -5.9182  -5.8244
    -5.8240  -5.7720  -5.7210

     highest occupied level (ev):    -5.7210

!    total energy              =    -131.73460859 Ry
     Harris-Foulkes estimate   =    -131.73460867 Ry
     estimated scf accuracy    <          5.2E-09 Ry

     convergence has been achieved in   7 iterations

     Forces acting on atoms (Ry/au):

     atom    1 type  1   force =     0.01981254    0.02166678    0.02040877
     atom    2 type  1   force =    -0.01981254   -0.02166678   -0.02040877

     Total force =     0.050567     Total SCF correction =     0.000232

     Entering Dynamics:    iteration =     9
                           time      =   0.0435 pico-seconds


     Andersen thermostat:    2 collisions

ATOMIC_POSITIONS (bohr)
Au       0.111295378  -0.044744881   0.043679984
Au       2.888704622   3.044744881   2.956320016


     kinetic energy (Ekin) =     0.00445869 Ry
     temperature           =   469.31381700 K 
     Ekin + Etot (const)   =  -131.73014990 Ry
     Message from routine dynamics:
     Total linear momentum <> 0

     Linear momentum :   -0.1297342353    0.0522794898    0.3548185046

     Writing output data file pwscf.save

     second order wave-functions extrapolation
     Check: negative starting charge=   -0.006269
     second order charge density extrapolation
     Check: negative starting charge=   -0.006259

     negative rho (up, down):  1.043E-04 0.000E+00

     total cpu time spent up to now is        7.7 secs

     per-process dynamical memory:    20.1 Mb

     Self-consistent Calculation

     iteration #  1     ecut=    30.00 Ry     beta=0.70
     Davidson diagonalization with overlap
     ethr =  1.00E-06,  avg # of iterations =  4.0

     Threshold (ethr) on eigenvalues was too large:
     Diagonalizing with lowered threshold

     Davidson diagonalization with overlap
     ethr =  8.02E-09,  avg # of iterations =  5.0

     negative rho (up, down):  3.353E-06 0.000E+00

     total cpu time spent up to now is        7.8 secs

     total energy              =    -131.73529864 Ry
     Harris-Foulkes estimate   =    -131.73529283 Ry
     estimated scf accuracy    <       0.00000269 Ry

     iteration #  2     ecut=    30.00 Ry     beta=0.70
     Davidson diagonalization with overlap
     ethr =  1.22E-08,  avg # of iterations =  5.0

     negative rho (up, down):  4.125E-07 0.000E+00

     total cpu time spent up to now is        7.9 secs

     total energy              =    -131.73529983 Ry
     Harris-Foulkes estimate   =    -131.73530004 Ry
     estimated scf accuracy    <       0.00000175 Ry

     iteration #  3     ecut=    30.00 Ry     beta=0.70
     Davidson diagonalization with overlap
     ethr =  7.95E-09,  avg # of iterations =  4.0

     total cpu time spent up to now is        7.9 secs

     total energy              =    -131.73530172 Ry
     Harris-Foulkes estimate   =    -131.73530031 Ry
     estimated scf accuracy    <       0.00000017 Ry

     iteration #  4     ecut=    30.00 Ry     beta=0.70
     Davidson diagonalization with overlap
     ethr =  7.91E-10,  avg # of iterations =  4.0

     total cpu time spent up to now is        8.0 secs

     total energy              =    -131.73530182 Ry
     Harris-Foulkes estimate   =    -131.73530181 Ry
     estimated scf accuracy    <       0.00000008 Ry

     iteration #  5     ecut=    30.00 Ry     beta=0.70
     Davidson diagonalization with overlap
     ethr =  3.79E-10,  avg # of iterations =  4.0

     total cpu time spent up to now is        8.0 secs

     End of self-consistent calculation

          k = 0.0000 0.0000 0.0000 ( 22119 PWs)   bands (ev):

    -7.9653  -6.9304  -6.9288  -6.1439  -6.1406  -5.9161  -5.9159  -5.8169
    -5.8167  -5.7762  -5.7142

     highest occupied level (ev):    -5.7142

!    total energy              =    -131.73530189 Ry
     Harris-Foulkes estimate   =    -131.73530184 Ry
     estimated scf accuracy    <          6.8E-09 Ry

     convergence has been achieved in   5 iterations

     Forces acting on atoms (Ry/au):

     atom    1 type  1   force =     0.01854906    0.02092879    0.01830450
     atom    2 type  1   force =    -0.01854906   -0.02092879   -0.01830450

     Total force =     0.047268     Total SCF correction =     0.000183

     Entering Dynamics:    iteration =    10
                           time      =   0.0484 pico-seconds


     Andersen thermostat:    2 collisions

ATOMIC_POSITIONS (bohr)
Au       0.102320986  -0.004614142   0.023576333
Au       2.897679014   3.004614142   2.976423667


     kinetic energy (Ekin) =     0.00585069 Ry
     temperature           =   615.83310334 K 
     Ekin + Etot (const)   =  -131.72945121 Ry
     Message from routine dynamics:
     Total linear momentum <> 0

     Linear momentum :   -0.2839186990   -0.1412914127    0.2728140161

     Writing output data file pwscf.save

     second order wave-functions extrapolation
     Check: negative starting charge=   -0.006259
     second order charge density extrapolation
     Check: negative starting charge=   -0.006247

     negative rho (up, down):  5.294E-04 0.000E+00

     total cpu time spent up to now is        8.4 secs

     per-process dynamical memory:    20.1 Mb

     Self-consistent Calculation

     iteration #  1     ecut=    30.00 Ry     beta=0.70
     Davidson diagonalization with overlap
     ethr =  1.00E-06,  avg # of iterations =  5.0

     negative rho (up, down):  4.229E-05 0.000E+00

     total cpu time spent up to now is        8.4 secs

     total energy              =    -131.73579667 Ry
     Harris-Foulkes estimate   =    -131.73580852 Ry
     estimated scf accuracy    <       0.00011655 Ry

     iteration #  2     ecut=    30.00 Ry     beta=0.70
     Davidson diagonalization with overlap
     ethr =  5.30E-07,  avg # of iterations =  3.0

     negative rho (up, down):  9.452E-06 0.000E+00

     total cpu time spent up to now is        8.5 secs

     total energy              =    -131.73582050 Ry
     Harris-Foulkes estimate   =    -131.73585784 Ry
     estimated scf accuracy    <       0.00007510 Ry

     iteration #  3     ecut=    30.00 Ry     beta=0.70
     Davidson diagonalization with overlap
     ethr =  3.41E-07,  avg # of iterations =  2.0

     total cpu time spent up to now is        8.5 secs

     total energy              =    -131.73583619 Ry
     Harris-Foulkes estimate   =    -131.73583742 Ry
     estimated scf accuracy    <       0.00000188 Ry

     iteration #  4     ecut=    30.00 Ry     beta=0.70
     Davidson diagonalization with overlap
     ethr =  8.52E-09,  avg # of iterations =  3.0

     total cpu time spent up to now is        8.6 secs

     total energy              =    -131.73583659 Ry
     Harris-Foulkes estimate   =    -131.73583689 Ry
     estimated scf accuracy    <       0.00000035 Ry

     iteration #  5     ecut=    30.00 Ry     beta=0.70
     Davidson diagonalization with overlap
     ethr =  1.59E-09,  avg # of iterations =  2.0

     total cpu time spent up to now is        8.6 secs

     total energy              =    -131.73583653 Ry
     Harris-Foulkes estimate   =    -131.73583668 Ry
     estimated scf accuracy    <       0.00000005 Ry

     iteration #  6     ecut=    30.00 Ry     beta=0.70
     Davidson diagonalization with overlap
     ethr =  2.07E-10,  avg # of iterations =  4.0

     total cpu time spent up to now is        8.6 secs

     End of self-consistent calculation

          k = 0.0000 0.0000 0.0000 ( 22119 PWs)   bands (ev):

    -7.9863  -6.9429  -6.9419  -6.1452  -6.1437  -5.9149  -5.9143  -5.8116
    -5.8111  -5.7791  -5.7100

     highest occupied level (ev):    -5.7100

!    total energy              =    -131.73583644 Ry
     Harris-Foulkes estimate   =    -131.73583655 Ry
     estimated scf accuracy    <          9.9E-09 Ry

     convergence has been achieved in   6 iterations

     Forces acting on atoms (Ry/au):

     atom    1 type  1   force =     0.01773896    0.01860477    0.01780126
     atom    2 type  1   force =    -0.01773896   -0.01860477   -0.01780126

     Total force =     0.044220     Total SCF correction =     0.000399

     Entering Dynamics:    iteration =    11
                           time      =   0.0532 pico-seconds


     Andersen thermostat:    2 collisions

ATOMIC_POSITIONS (bohr)
Au       0.083215601  -0.008378899   0.038909497
Au       2.916784399   3.008378899   2.961090503


     kinetic energy (Ekin) =     0.00464512 Ry
     temperature           =   488.93664164 K 
     Ekin + Etot (const)   =  -131.73119132 Ry
     Message from routine dynamics:
     Total linear momentum <> 0

     Linear momentum :    0.4784715743   -0.3054467798   -0.6364413499

     Writing output data file pwscf.save

     second order wave-functions extrapolation
     Check: negative starting charge=   -0.006247
     second order charge density extrapolation
     Check: negative starting charge=   -0.006248

     negative rho (up, down):  2.323E-04 0.000E+00

     total cpu time spent up to now is        9.0 secs

     per-process dynamical memory:    20.1 Mb

     Self-consistent Calculation

     iteration #  1     ecut=    30.00 Ry     beta=0.70
     Davidson diagonalization with overlap
     ethr =  1.00E-06,  avg # of iterations =  4.0

     negative rho (up, down):  1.232E-05 0.000E+00

     total cpu time spent up to now is        9.1 secs

     total energy              =    -131.73554214 Ry
     Harris-Foulkes estimate   =    -131.73553982 Ry
     estimated scf accuracy    <       0.00002819 Ry

     iteration #  2     ecut=    30.00 Ry     beta=0.70
     Davidson diagonalization with overlap
     ethr =  1.28E-07,  avg # of iterations =  3.0

     negative rho (up, down):  1.777E-06 0.000E+00

     total cpu time spent up to now is        9.1 secs

     total energy              =    -131.73554992 Ry
     Harris-Foulkes estimate   =    -131.73555415 Ry
     estimated scf accuracy    <       0.00001452 Ry

     iteration #  3     ecut=    30.00 Ry     beta=0.70
     Davidson diagonalization with overlap
     ethr =  6.60E-08,  avg # of iterations =  2.0

     total cpu time spent up to now is        9.2 secs

     total energy              =    -131.73555810 Ry
     Harris-Foulkes estimate   =    -131.73555390 Ry
     estimated scf accuracy    <       0.00000112 Ry

     iteration #  4     ecut=    30.00 Ry     beta=0.70
     Davidson diagonalization with overlap
     ethr =  5.08E-09,  avg # of iterations =  2.0

     total cpu time spent up to now is        9.2 secs

     total energy              =    -131.73555836 Ry
     Harris-Foulkes estimate   =    -131.73555846 Ry
     estimated scf accuracy    <       0.00000021 Ry

     iteration #  5     ecut=    30.00 Ry     beta=0.70
     Davidson diagonalization with overlap
     ethr =  9.69E-10,  avg # of iterations =  2.0

     total cpu time spent up to now is        9.2 secs

     End of self-consistent calculation

          k = 0.0000 0.0000 0.0000 ( 22119 PWs)   bands (ev):

    -7.9751  -6.9364  -6.9352  -6.1440  -6.1419  -5.9155  -5.9152  -5.8144
    -5.8139  -5.7773  -5.7120

     highest occupied level (ev):    -5.7120

!    total energy              =    -131.73555875 Ry
     Harris-Foulkes estimate   =    -131.73555841 Ry
     estimated scf accuracy    <          3.9E-09 Ry

     convergence has been achieved in   5 iterations

     Forces acting on atoms (Ry/au):

     atom    1 type  1   force =     0.01824209    0.01924051    0.01814870
     atom    2 type  1   force =    -0.01824209   -0.01924051   -0.01814870

     Total force =     0.045439     Total SCF correction =     0.000185

     Entering Dynamics:    iteration =    12
                           time      =   0.0581 pico-seconds


     Andersen thermostat:    2 collisions

ATOMIC_POSITIONS (bohr)
Au       0.084860736   0.020970186   0.054215178
Au       2.915139264   2.979029814   2.945784822


     kinetic energy (Ekin) =     0.00274586 Ry
     temperature           =   289.02411781 K 
     Ekin + Etot (const)   =  -131.73281289 Ry
     Message from routine dynamics:
     Total linear momentum <> 0

     Linear momentum :    0.0735960169   -0.3020909861    0.2898735468

     Writing output data file pwscf.save

     second order wave-functions extrapolation
     Check: negative starting charge=   -0.006248
     second order charge density extrapolation
     Check: negative starting charge=   -0.006230

     negative rho (up, down):  5.252E-04 0.000E+00

     total cpu time spent up to now is        9.6 secs

     per-process dynamical memory:    20.1 Mb

     Self-consistent Calculation

     iteration #  1     ecut=    30.00 Ry     beta=0.70
     Davidson diagonalization with overlap
     ethr =  1.00E-06,  avg # of iterations =  5.0

     negative rho (up, down):  4.495E-05 0.000E+00

     total cpu time spent up to now is        9.7 secs

     total energy              =    -131.73709310 Ry
     Harris-Foulkes estimate   =    -131.73706616 Ry
     estimated scf accuracy    <       0.00006173 Ry

     iteration #  2     ecut=    30.00 Ry     beta=0.70
     Davidson diagonalization with overlap
     ethr =  2.81E-07,  avg # of iterations =  5.0

     negative rho (up, down):  1.040E-05 0.000E+00

     total cpu time spent up to now is        9.8 secs

     total energy              =    -131.73710187 Ry
     Harris-Foulkes estimate   =    -131.73711892 Ry
     estimated scf accuracy    <       0.00003823 Ry

     iteration #  3     ecut=    30.00 Ry     beta=0.70
     Davidson diagonalization with overlap
     ethr =  1.74E-07,  avg # of iterations =  2.0

     negative rho (up, down):  2.223E-07 0.000E+00

     total cpu time spent up to now is        9.8 secs

     total energy              =    -131.73711095 Ry
     Harris-Foulkes estimate   =    -131.73711197 Ry
     estimated scf accuracy    <       0.00000356 Ry

     iteration #  4     ecut=    30.00 Ry     beta=0.70
     Davidson diagonalization with overlap
     ethr =  1.62E-08,  avg # of iterations =  6.0

     total cpu time spent up to now is        9.8 secs

     total energy              =    -131.73711144 Ry
     Harris-Foulkes estimate   =    -131.73711337 Ry
     estimated scf accuracy    <       0.00000214 Ry

     iteration #  5     ecut=    30.00 Ry     beta=0.70
     Davidson diagonalization with overlap
     ethr =  9.72E-09,  avg # of iterations =  4.0

     total cpu time spent up to now is        9.9 secs

     total energy              =    -131.73711150 Ry
     Harris-Foulkes estimate   =    -131.73711168 Ry
     estimated scf accuracy    <       0.00000020 Ry

     iteration #  6     ecut=    30.00 Ry     beta=0.70
     Davidson diagonalization with overlap
     ethr =  8.88E-10,  avg # of iterations =  5.0

     total cpu time spent up to now is        9.9 secs

     total energy              =    -131.73711142 Ry
     Harris-Foulkes estimate   =    -131.73711155 Ry
     estimated scf accuracy    <       0.00000002 Ry

     iteration #  7     ecut=    30.00 Ry     beta=0.70
     Davidson diagonalization with overlap
     ethr =  1.03E-10,  avg # of iterations =  2.0

     total cpu time spent up to now is       10.0 secs

     total energy              =    -131.73711130 Ry
     Harris-Foulkes estimate   =    -131.73711142 Ry
     estimated scf accuracy    <       0.00000001 Ry

     iteration #  8     ecut=    30.00 Ry     beta=0.70
     Davidson diagonalization with overlap
     ethr =  4.67E-11,  avg # of iterations =  4.0

     total cpu time spent up to now is       10.0 secs

     End of self-consistent calculation

          k = 0.0000 0.0000 0.0000 ( 22119 PWs)   bands (ev):

    -8.0510  -6.9830  -6.9819  -6.1526  -6.1512  -5.9092  -5.9088  -5.7945
    -5.7942  -5.7878  -5.6955

     highest occupied level (ev):    -5.6955

!    total energy              =    -131.73711124 Ry
     Harris-Foulkes estimate   =    -131.73711130 Ry
     estimated scf accuracy    <          1.7E-09 Ry

     convergence has been achieved in   8 iterations

     Forces acting on atoms (Ry/au):

     atom    1 type  1   force =     0.01449056    0.01487316    0.01440268
     atom    2 type  1   force =    -0.01449056   -0.01487316   -0.01440268

     Total force =     0.035739     Total SCF correction =     0.000063

     Entering Dynamics:    iteration =    13
                           time      =   0.0629 pico-seconds


     Andersen thermostat:    2 collisions

ATOMIC_POSITIONS (bohr)
Au       0.103808565  -0.025927643   0.061716264
Au       2.896191435   3.025927643   2.938283736


     kinetic energy (Ekin) =     0.00807662 Ry
     temperature           =   850.13075239 K 
     Ekin + Etot (const)   =  -131.72903462 Ry
     Message from routine dynamics:
     Total linear momentum <> 0

     Linear momentum :    0.0330610163    0.4789123267   -0.1645640937

     Writing output data file pwscf.save

     second order wave-functions extrapolation
     Check: negative starting charge=   -0.006230
     second order charge density extrapolation
     Check: negative starting charge=   -0.006248

     negative rho (up, down):  7.888E-04 0.000E+00

     total cpu time spent up to now is       10.3 secs

     per-process dynamical memory:    20.1 Mb

     Self-consistent Calculation

     iteration #  1     ecut=    30.00 Ry     beta=0.70
     Davidson diagonalization with overlap
     ethr =  1.00E-06,  avg # of iterations =  7.0

     negative rho (up, down):  7.837E-05 0.000E+00

     total cpu time spent up to now is       10.4 secs

     total energy              =    -131.73632648 Ry
     Harris-Foulkes estimate   =    -131.73628941 Ry
     estimated scf accuracy    <       0.00018713 Ry

     iteration #  2     ecut=    30.00 Ry     beta=0.70
     Davidson diagonalization with overlap
     ethr =  8.51E-07,  avg # of iterations =  4.0

     negative rho (up, down):  2.207E-05 0.000E+00

     total cpu time spent up to now is       10.5 secs

     total energy              =    -131.73636043 Ry
     Harris-Foulkes estimate   =    -131.73642413 Ry
     estimated scf accuracy    <       0.00013045 Ry

     iteration #  3     ecut=    30.00 Ry     beta=0.70
     Davidson diagonalization with overlap
     ethr =  5.93E-07,  avg # of iterations =  2.0

     negative rho (up, down):  5.234E-08 0.000E+00

     total cpu time spent up to now is       10.5 secs

     total energy              =    -131.73638834 Ry
     Harris-Foulkes estimate   =    -131.73638942 Ry
     estimated scf accuracy    <       0.00000337 Ry

     iteration #  4     ecut=    30.00 Ry     beta=0.70
     Davidson diagonalization with overlap
     ethr =  1.53E-08,  avg # of iterations =  5.0

     total cpu time spent up to now is       10.6 secs

     total energy              =    -131.73638913 Ry
     Harris-Foulkes estimate   =    -131.73639091 Ry
     estimated scf accuracy    <       0.00000255 Ry

     iteration #  5     ecut=    30.00 Ry     beta=0.70
     Davidson diagonalization with overlap
     ethr =  1.16E-08,  avg # of iterations =  4.0

     total cpu time spent up to now is       10.6 secs

     total energy              =    -131.73638889 Ry
     Harris-Foulkes estimate   =    -131.73638942 Ry
     estimated scf accuracy    <       0.00000024 Ry

     iteration #  6     ecut=    30.00 Ry     beta=0.70
     Davidson diagonalization with overlap
     ethr =  1.10E-09,  avg # of iterations =  5.0

     total cpu time spent up to now is       10.7 secs

     total energy              =    -131.73638868 Ry
     Harris-Foulkes estimate   =    -131.73638895 Ry
     estimated scf accuracy    <       0.00000002 Ry

     iteration #  7     ecut=    30.00 Ry     beta=0.70
     Davidson diagonalization with overlap
     ethr =  7.27E-11,  avg # of iterations =  4.0

     total cpu time spent up to now is       10.7 secs

     End of self-consistent calculation

          k = 0.0000 0.0000 0.0000 ( 22119 PWs)   bands (ev):

    -8.0144  -6.9605  -6.9583  -6.1496  -6.1462  -5.9124  -5.9117  -5.8044
    -5.8038  -5.7830  -5.7038

     highest occupied level (ev):    -5.7038

!    total energy              =    -131.73638851 Ry
     Harris-Foulkes estimate   =    -131.73638869 Ry
     estimated scf accuracy    <          9.5E-09 Ry

     convergence has been achieved in   7 iterations

     Forces acting on atoms (Ry/au):

     atom    1 type  1   force =     0.01630462    0.01799129    0.01598230
     atom    2 type  1   force =    -0.01630462   -0.01799129   -0.01598230

     Total force =     0.041109     Total SCF correction =     0.000292

     Entering Dynamics:    iteration =    14
                           time      =   0.0677 pico-seconds


     Andersen thermostat:    2 collisions

ATOMIC_POSITIONS (bohr)
Au       0.052613613  -0.009090056   0.085575648
Au       2.947386387   3.009090056   2.914424352


     kinetic energy (Ekin) =     0.01029075 Ry
     temperature           =  1083.18569685 K 
     Ekin + Etot (const)   =  -131.72609776 Ry
     Message from routine dynamics:
     Total linear momentum <> 0

     Linear momentum :    0.3804556923   -0.0106256689    0.3917888877

     Writing output data file pwscf.save

     second order wave-functions extrapolation
     Check: negative starting charge=   -0.006248
     second order charge density extrapolation
     Check: negative starting charge=   -0.006241

     negative rho (up, down):  1.298E-03 0.000E+00

     total cpu time spent up to now is       11.2 secs

     per-process dynamical memory:    20.1 Mb

     Self-consistent Calculation

     iteration #  1     ecut=    30.00 Ry     beta=0.70
     Davidson diagonalization with overlap
     ethr =  1.00E-06,  avg # of iterations =  7.0

     negative rho (up, down):  1.571E-04 0.000E+00

     total cpu time spent up to now is       11.3 secs

     total energy              =    -131.73594948 Ry
     Harris-Foulkes estimate   =    -131.73569088 Ry
     estimated scf accuracy    <       0.00040437 Ry

     iteration #  2     ecut=    30.00 Ry     beta=0.70
     Davidson diagonalization with overlap
     ethr =  1.84E-06,  avg # of iterations =  3.0

     negative rho (up, down):  4.999E-05 0.000E+00

     total cpu time spent up to now is       11.3 secs

     total energy              =    -131.73602694 Ry
     Harris-Foulkes estimate   =    -131.73615205 Ry
     estimated scf accuracy    <       0.00026143 Ry

     iteration #  3     ecut=    30.00 Ry     beta=0.70
     Davidson diagonalization with overlap
     ethr =  1.19E-06,  avg # of iterations =  2.0

     negative rho (up, down):  1.751E-08 0.000E+00

     total cpu time spent up to now is       11.4 secs

     total energy              =    -131.73609016 Ry
     Harris-Foulkes estimate   =    -131.73608854 Ry
     estimated scf accuracy    <       0.00000605 Ry

     iteration #  4     ecut=    30.00 Ry     beta=0.70
     Davidson diagonalization with overlap
     ethr =  2.75E-08,  avg # of iterations =  4.0

     total cpu time spent up to now is       11.4 secs

     total energy              =    -131.73609280 Ry
     Harris-Foulkes estimate   =    -131.73609358 Ry
     estimated scf accuracy    <       0.00000127 Ry

     iteration #  5     ecut=    30.00 Ry     beta=0.70
     Davidson diagonalization with overlap
     ethr =  5.76E-09,  avg # of iterations =  2.0

     total cpu time spent up to now is       11.4 secs

     total energy              =    -131.73609336 Ry
     Harris-Foulkes estimate   =    -131.73609299 Ry
     estimated scf accuracy    <       0.00000026 Ry

     iteration #  6     ecut=    30.00 Ry     beta=0.70
     Davidson diagonalization with overlap
     ethr =  1.20E-09,  avg # of iterations =  5.0

     total cpu time spent up to now is       11.5 secs

     total energy              =    -131.73609355 Ry
     Harris-Foulkes estimate   =    -131.73609355 Ry
     estimated scf accuracy    <       0.00000021 Ry

     iteration #  7     ecut=    30.00 Ry     beta=0.70
     Davidson diagonalization with overlap
     ethr =  9.60E-10,  avg # of iterations =  4.0

     total cpu time spent up to now is       11.5 secs

     End of self-consistent calculation

          k = 0.0000 0.0000 0.0000 ( 22119 PWs)   bands (ev):

    -7.9994  -6.9513  -6.9496  -6.1469  -6.1444  -5.9134  -5.9129  -5.8080
    -5.8074  -5.7807  -5.7066

     highest occupied level (ev):    -5.7066

!    total energy              =    -131.73609381 Ry
     Harris-Foulkes estimate   =    -131.73609358 Ry
     estimated scf accuracy    <          4.3E-09 Ry

     convergence has been achieved in   7 iterations

     Forces acting on atoms (Ry/au):

     atom    1 type  1   force =     0.01689234    0.01819071    0.01700967
     atom    2 type  1   force =    -0.01689234   -0.01819071   -0.01700967

     Total force =     0.042558     Total SCF correction =     0.000131

     Entering Dynamics:    iteration =    15
                           time      =   0.0726 pico-seconds


     Andersen thermostat:    2 collisions

ATOMIC_POSITIONS (bohr)
Au       0.078387991  -0.001250402   0.074458315
Au       2.921612009   3.001250402   2.925541685


     kinetic energy (Ekin) =     0.00233136 Ry
     temperature           =   245.39506275 K 
     Ekin + Etot (const)   =  -131.73376244 Ry
     Message from routine dynamics:
     Total linear momentum <> 0

     Linear momentum :   -0.0949399623   -0.3275539289   -0.0285497452

     Writing output data file pwscf.save

     second order wave-functions extrapolation
     Check: negative starting charge=   -0.006241
     second order charge density extrapolation
     Check: negative starting charge=   -0.006237

     negative rho (up, down):  2.560E-05 0.000E+00

     total cpu time spent up to now is       11.8 secs

     per-process dynamical memory:    20.1 Mb

     Self-consistent Calculation

     iteration #  1     ecut=    30.00 Ry     beta=0.70
     Davidson diagonalization with overlap
     ethr =  1.00E-06,  avg # of iterations =  4.0

     Threshold (ethr) on eigenvalues was too large:
     Diagonalizing with lowered threshold

     Davidson diagonalization with overlap
     ethr =  1.77E-08,  avg # of iterations =  4.0

     negative rho (up, down):  3.478E-07 0.000E+00

     total cpu time spent up to now is       11.9 secs

     total energy              =    -131.73682930 Ry
     Harris-Foulkes estimate   =    -131.73683368 Ry
     estimated scf accuracy    <       0.00000546 Ry

     iteration #  2     ecut=    30.00 Ry     beta=0.70
     Davidson diagonalization with overlap
     ethr =  2.48E-08,  avg # of iterations =  5.0

     negative rho (up, down):  4.372E-08 0.000E+00

     total cpu time spent up to now is       12.0 secs

     total energy              =    -131.73682959 Ry
     Harris-Foulkes estimate   =    -131.73683220 Ry
     estimated scf accuracy    <       0.00000432 Ry

     iteration #  3     ecut=    30.00 Ry     beta=0.70
     Davidson diagonalization with overlap
     ethr =  1.97E-08,  avg # of iterations =  2.0

     total cpu time spent up to now is       12.0 secs

     total energy              =    -131.73682933 Ry
     Harris-Foulkes estimate   =    -131.73683047 Ry
     estimated scf accuracy    <       0.00000025 Ry

     iteration #  4     ecut=    30.00 Ry     beta=0.70
     Davidson diagonalization with overlap
     ethr =  1.13E-09,  avg # of iterations =  5.0

     total cpu time spent up to now is       12.1 secs

     total energy              =    -131.73682831 Ry
     Harris-Foulkes estimate   =    -131.73682959 Ry
     estimated scf accuracy    <       0.00000018 Ry

     iteration #  5     ecut=    30.00 Ry     beta=0.70
     Davidson diagonalization with overlap
     ethr =  8.06E-10,  avg # of iterations =  2.0

     total cpu time spent up to now is       12.1 secs

     total energy              =    -131.73682812 Ry
     Harris-Foulkes estimate   =    -131.73682832 Ry
     estimated scf accuracy    <       0.00000005 Ry

     iteration #  6     ecut=    30.00 Ry     beta=0.70
     Davidson diagonalization with overlap
     ethr =  2.17E-10,  avg # of iterations =  5.0

     total cpu time spent up to now is       12.1 secs

     End of self-consistent calculation

          k = 0.0000 0.0000 0.0000 ( 22119 PWs)   bands (ev):

    -8.0363  -6.9742  -6.9723  -6.1517  -6.1490  -5.9107  -5.9100  -5.7986
    -5.7980  -5.7859  -5.6989

     highest occupied level (ev):    -5.6989

!    total energy              =    -131.73682795 Ry
     Harris-Foulkes estimate   =    -131.73682813 Ry
     estimated scf accuracy    <          3.4E-09 Ry

     convergence has been achieved in   6 iterations

     Forces acting on atoms (Ry/au):

     atom    1 type  1   force =     0.01510649    0.01617704    0.01506620
     atom    2 type  1   force =    -0.01510649   -0.01617704   -0.01506620

     Total force =     0.037865     Total SCF correction =     0.000129

     Entering Dynamics:    iteration =    16
                           time      =   0.0774 pico-seconds


     Andersen thermostat:    2 collisions

ATOMIC_POSITIONS (bohr)
Au       0.081832042  -0.009523291   0.040059952
Au       2.918167958   3.009523291   2.959940048


     kinetic energy (Ekin) =     0.00507595 Ry
     temperature           =   534.28587213 K 
     Ekin + Etot (const)   =  -131.73175199 Ry
     Message from routine dynamics:
     Total linear momentum <> 0

     Linear momentum :   -0.2579180907    0.3014391277   -0.3774439409

     Writing output data file pwscf.save

     second order wave-functions extrapolation
     Check: negative starting charge=   -0.006237
     second order charge density extrapolation
     Check: negative starting charge=   -0.006249

     negative rho (up, down):  5.895E-04 0.000E+00

     total cpu time spent up to now is       12.5 secs

     per-process dynamical memory:    20.1 Mb

     Self-consistent Calculation

     iteration #  1     ecut=    30.00 Ry     beta=0.70
     Davidson diagonalization with overlap
     ethr =  1.00E-06,  avg # of iterations =  6.0

     negative rho (up, down):  5.264E-05 0.000E+00

     total cpu time spent up to now is       12.6 secs

     total energy              =    -131.73545726 Ry
     Harris-Foulkes estimate   =    -131.73545622 Ry
     estimated scf accuracy    <       0.00011574 Ry

     iteration #  2     ecut=    30.00 Ry     beta=0.70
     Davidson diagonalization with overlap
     ethr =  5.26E-07,  avg # of iterations =  5.0

     negative rho (up, down):  1.308E-05 0.000E+00

     total cpu time spent up to now is       12.6 secs

     total energy              =    -131.73548088 Ry
     Harris-Foulkes estimate   =    -131.73551340 Ry
     estimated scf accuracy    <       0.00007463 Ry

     iteration #  3     ecut=    30.00 Ry     beta=0.70
     Davidson diagonalization with overlap
     ethr =  3.39E-07,  avg # of iterations =  2.0

     negative rho (up, down):  1.223E-07 0.000E+00

     total cpu time spent up to now is       12.7 secs

     total energy              =    -131.73550201 Ry
     Harris-Foulkes estimate   =    -131.73549823 Ry
     estimated scf accuracy    <       0.00000340 Ry

     iteration #  4     ecut=    30.00 Ry     beta=0.70
     Davidson diagonalization with overlap
     ethr =  1.54E-08,  avg # of iterations =  5.0

     total cpu time spent up to now is       12.7 secs

     total energy              =    -131.73550516 Ry
     Harris-Foulkes estimate   =    -131.73550468 Ry
     estimated scf accuracy    <       0.00000238 Ry

     iteration #  5     ecut=    30.00 Ry     beta=0.70
     Davidson diagonalization with overlap
     ethr =  1.08E-08,  avg # of iterations =  4.0

     total cpu time spent up to now is       12.8 secs

     total energy              =    -131.73550587 Ry
     Harris-Foulkes estimate   =    -131.73550549 Ry
     estimated scf accuracy    <       0.00000022 Ry

     iteration #  6     ecut=    30.00 Ry     beta=0.70
     Davidson diagonalization with overlap
     ethr =  1.02E-09,  avg # of iterations =  4.0

     total cpu time spent up to now is       12.8 secs

     total energy              =    -131.73550602 Ry
     Harris-Foulkes estimate   =    -131.73550591 Ry
     estimated scf accuracy    <       0.00000006 Ry

     iteration #  7     ecut=    30.00 Ry     beta=0.70
     Davidson diagonalization with overlap
     ethr =  2.91E-10,  avg # of iterations =  4.0

     total cpu time spent up to now is       12.9 secs

     total energy              =    -131.73550615 Ry
     Harris-Foulkes estimate   =    -131.73550603 Ry
     estimated scf accuracy    <       0.00000002 Ry

     iteration #  8     ecut=    30.00 Ry     beta=0.70
     Davidson diagonalization with overlap
     ethr =  7.12E-11,  avg # of iterations =  4.0

     total cpu time spent up to now is       12.9 secs

     End of self-consistent calculation

          k = 0.0000 0.0000 0.0000 ( 22119 PWs)   bands (ev):

    -7.9729  -6.9351  -6.9338  -6.1438  -6.1417  -5.9158  -5.9154  -5.8149
    -5.8145  -5.7771  -5.7124

     highest occupied level (ev):    -5.7124

!    total energy              =    -131.73550621 Ry
     Harris-Foulkes estimate   =    -131.73550615 Ry
     estimated scf accuracy    <          1.7E-09 Ry

     convergence has been achieved in   8 iterations

     Forces acting on atoms (Ry/au):

     atom    1 type  1   force =     0.01830913    0.01937894    0.01827097
     atom    2 type  1   force =    -0.01830913   -0.01937894   -0.01827097

     Total force =     0.045708     Total SCF correction =     0.000114

     Entering Dynamics:    iteration =    17
                           time      =   0.0822 pico-seconds


     Andersen thermostat:    2 collisions

ATOMIC_POSITIONS (bohr)
Au       0.077149132   0.002939443   0.023239310
Au       2.922850868   2.997060557   2.976760690


     kinetic energy (Ekin) =     0.00241219 Ry
     temperature           =   253.90313718 K 
     Ekin + Etot (const)   =  -131.73309401 Ry
     Message from routine dynamics:
     Total linear momentum <> 0

     Linear momentum :   -0.4796409944    0.0777151347   -0.1221829813

     Writing output data file pwscf.save

     second order wave-functions extrapolation
     Check: negative starting charge=   -0.006249
     second order charge density extrapolation
     Check: negative starting charge=   -0.006255

     negative rho (up, down):  2.296E-04 0.000E+00

     total cpu time spent up to now is       13.2 secs

     per-process dynamical memory:    20.1 Mb

     Self-consistent Calculation

     iteration #  1     ecut=    30.00 Ry     beta=0.70
     Davidson diagonalization with overlap
     ethr =  1.00E-06,  avg # of iterations =  4.0

     negative rho (up, down):  1.219E-05 0.000E+00

     total cpu time spent up to now is       13.3 secs

     total energy              =    -131.73517130 Ry
     Harris-Foulkes estimate   =    -131.73518327 Ry
     estimated scf accuracy    <       0.00004206 Ry

     iteration #  2     ecut=    30.00 Ry     beta=0.70
     Davidson diagonalization with overlap
     ethr =  1.91E-07,  avg # of iterations =  3.0

     negative rho (up, down):  2.026E-06 0.000E+00

     total cpu time spent up to now is       13.4 secs

     total energy              =    -131.73518075 Ry
     Harris-Foulkes estimate   =    -131.73519217 Ry
     estimated scf accuracy    <       0.00002429 Ry

     iteration #  3     ecut=    30.00 Ry     beta=0.70
     Davidson diagonalization with overlap
     ethr =  1.10E-07,  avg # of iterations =  2.0

     total cpu time spent up to now is       13.4 secs

     total energy              =    -131.73518744 Ry
     Harris-Foulkes estimate   =    -131.73518635 Ry
     estimated scf accuracy    <       0.00000069 Ry

     iteration #  4     ecut=    30.00 Ry     beta=0.70
     Davidson diagonalization with overlap
     ethr =  3.15E-09,  avg # of iterations =  4.0

     total cpu time spent up to now is       13.5 secs

     total energy              =    -131.73518784 Ry
     Harris-Foulkes estimate   =    -131.73518769 Ry
     estimated scf accuracy    <       0.00000007 Ry

     iteration #  5     ecut=    30.00 Ry     beta=0.70
     Davidson diagonalization with overlap
     ethr =  3.01E-10,  avg # of iterations =  2.0

     total cpu time spent up to now is       13.5 secs

     total energy              =    -131.73518795 Ry
     Harris-Foulkes estimate   =    -131.73518785 Ry
     estimated scf accuracy    <       0.00000001 Ry

     iteration #  6     ecut=    30.00 Ry     beta=0.70
     Davidson diagonalization with overlap
     ethr =  5.00E-11,  avg # of iterations =  5.0

[...]
     Harris-Foulkes estimate   =    -131.73905768 Ry
     estimated scf accuracy    <       0.00000012 Ry

     iteration #  6     ecut=    30.00 Ry     beta=0.70
     Davidson diagonalization with overlap
     ethr =  5.65E-10,  avg # of iterations =  5.0

     total cpu time spent up to now is       66.8 secs

     End of self-consistent calculation

          k = 0.0000 0.0000 0.0000 ( 22119 PWs)   bands (ev):

    -8.3860  -7.1962  -7.1953  -6.2016  -6.1996  -5.8832  -5.8816  -5.8389
    -5.7097  -5.7080  -5.6253

     highest occupied level (ev):    -5.6253

!    total energy              =    -131.73905808 Ry
     Harris-Foulkes estimate   =    -131.73905799 Ry
     estimated scf accuracy    <          6.9E-09 Ry

     convergence has been achieved in   6 iterations

     Forces acting on atoms (Ry/au):

     atom    1 type  1   force =    -0.00881655   -0.00796586   -0.00715470
     atom    2 type  1   force =     0.00881655    0.00796586    0.00715470

     Total force =     0.019615     Total SCF correction =     0.000178

     Entering Dynamics:    iteration =    96
                           time      =   0.4644 pico-seconds


     Andersen thermostat:    2 collisions

ATOMIC_POSITIONS (bohr)
Au       0.025742903   0.026246422   0.279557116
Au       2.974257097   2.973753578   2.720442884


     kinetic energy (Ekin) =     0.00584432 Ry
     temperature           =   615.16272539 K 
     Ekin + Etot (const)   =  -131.73321376 Ry
     Message from routine dynamics:
     Total linear momentum <> 0

     Linear momentum :   -0.2945458577   -0.3360290775   -0.2203125716

     Writing output data file pwscf.save

     second order wave-functions extrapolation
     Check: negative starting charge=   -0.006407
     second order charge density extrapolation
     Check: negative starting charge=   -0.006376

     negative rho (up, down):  1.079E-03 0.000E+00

     total cpu time spent up to now is       67.1 secs

     per-process dynamical memory:    20.1 Mb

     Self-consistent Calculation

     iteration #  1     ecut=    30.00 Ry     beta=0.70
     Davidson diagonalization with overlap
     ethr =  1.00E-06,  avg # of iterations =  6.0

     negative rho (up, down):  1.169E-04 0.000E+00

     total cpu time spent up to now is       67.2 secs

     total energy              =    -131.73931466 Ry
     Harris-Foulkes estimate   =    -131.73917690 Ry
     estimated scf accuracy    <       0.00019971 Ry

     iteration #  2     ecut=    30.00 Ry     beta=0.70
     Davidson diagonalization with overlap
     ethr =  9.08E-07,  avg # of iterations =  3.0

     negative rho (up, down):  3.364E-05 0.000E+00

     total cpu time spent up to now is       67.2 secs

     total energy              =    -131.73934990 Ry
     Harris-Foulkes estimate   =    -131.73941951 Ry
     estimated scf accuracy    <       0.00013430 Ry

     iteration #  3     ecut=    30.00 Ry     beta=0.70
     Davidson diagonalization with overlap
     ethr =  6.10E-07,  avg # of iterations =  2.0

     negative rho (up, down):  2.096E-08 0.000E+00

     total cpu time spent up to now is       67.3 secs

     total energy              =    -131.73937774 Ry
     Harris-Foulkes estimate   =    -131.73938048 Ry
     estimated scf accuracy    <       0.00000290 Ry

     iteration #  4     ecut=    30.00 Ry     beta=0.70
     Davidson diagonalization with overlap
     ethr =  1.32E-08,  avg # of iterations =  3.0

     total cpu time spent up to now is       67.3 secs

     total energy              =    -131.73937804 Ry
     Harris-Foulkes estimate   =    -131.73937882 Ry
     estimated scf accuracy    <       0.00000046 Ry

     iteration #  5     ecut=    30.00 Ry     beta=0.70
     Davidson diagonalization with overlap
     ethr =  2.07E-09,  avg # of iterations =  2.0

     total cpu time spent up to now is       67.4 secs

     total energy              =    -131.73937791 Ry
     Harris-Foulkes estimate   =    -131.73937816 Ry
     estimated scf accuracy    <       0.00000007 Ry

     iteration #  6     ecut=    30.00 Ry     beta=0.70
     Davidson diagonalization with overlap
     ethr =  3.25E-10,  avg # of iterations =  5.0

     total cpu time spent up to now is       67.4 secs

     total energy              =    -131.73937793 Ry
     Harris-Foulkes estimate   =    -131.73937793 Ry
     estimated scf accuracy    <       0.00000002 Ry

     iteration #  7     ecut=    30.00 Ry     beta=0.70
     Davidson diagonalization with overlap
     ethr =  7.58E-11,  avg # of iterations =  2.0

     total cpu time spent up to now is       67.4 secs

     End of self-consistent calculation

          k = 0.0000 0.0000 0.0000 ( 22119 PWs)   bands (ev):

    -8.3285  -7.1577  -7.1577  -6.1928  -6.1908  -5.8876  -5.8858  -5.8296
    -5.7243  -5.7228  -5.6384

     highest occupied level (ev):    -5.6384

!    total energy              =    -131.73937785 Ry
     Harris-Foulkes estimate   =    -131.73937793 Ry
     estimated scf accuracy    <          1.1E-09 Ry

     convergence has been achieved in   7 iterations

     Forces acting on atoms (Ry/au):

     atom    1 type  1   force =    -0.00354214   -0.00353950   -0.00295994
     atom    2 type  1   force =     0.00354214    0.00353950    0.00295994

     Total force =     0.008226     Total SCF correction =     0.000090

     Entering Dynamics:    iteration =    97
                           time      =   0.4693 pico-seconds


     Andersen thermostat:    2 collisions

ATOMIC_POSITIONS (bohr)
Au      -0.025708703  -0.006052226   0.288212706
Au       3.025708703   3.006052226   2.711787294


     kinetic energy (Ekin) =     0.01032730 Ry
     temperature           =  1087.03337136 K 
     Ekin + Etot (const)   =  -131.72905055 Ry
     Message from routine dynamics:
     Total linear momentum <> 0

     Linear momentum :    0.3608686706    0.1594409030   -0.2984549876

     Writing output data file pwscf.save

     second order wave-functions extrapolation
     Check: negative starting charge=   -0.006376
     second order charge density extrapolation
     Check: negative starting charge=   -0.006324

     negative rho (up, down):  6.739E-04 0.000E+00

     total cpu time spent up to now is       67.8 secs

     per-process dynamical memory:    20.1 Mb

     Self-consistent Calculation

     iteration #  1     ecut=    30.00 Ry     beta=0.70
     Davidson diagonalization with overlap
     ethr =  1.00E-06,  avg # of iterations =  5.0

     negative rho (up, down):  7.020E-05 0.000E+00

     total cpu time spent up to now is       67.9 secs

     total energy              =    -131.73900368 Ry
     Harris-Foulkes estimate   =    -131.73900428 Ry
     estimated scf accuracy    <       0.00006218 Ry

     iteration #  2     ecut=    30.00 Ry     beta=0.70
     Davidson diagonalization with overlap
     ethr =  2.83E-07,  avg # of iterations =  2.0

     negative rho (up, down):  1.738E-05 0.000E+00

     total cpu time spent up to now is       67.9 secs

     total energy              =    -131.73901869 Ry
     Harris-Foulkes estimate   =    -131.73903075 Ry
     estimated scf accuracy    <       0.00003360 Ry

     iteration #  3     ecut=    30.00 Ry     beta=0.70
     Davidson diagonalization with overlap
     ethr =  1.53E-07,  avg # of iterations =  2.0

     negative rho (up, down):  2.589E-08 0.000E+00

     total cpu time spent up to now is       68.0 secs

     total energy              =    -131.73903383 Ry
     Harris-Foulkes estimate   =    -131.73902806 Ry
     estimated scf accuracy    <       0.00000222 Ry

     iteration #  4     ecut=    30.00 Ry     beta=0.70
     Davidson diagonalization with overlap
     ethr =  1.01E-08,  avg # of iterations =  3.0

     total cpu time spent up to now is       68.0 secs

     total energy              =    -131.73903525 Ry
     Harris-Foulkes estimate   =    -131.73903460 Ry
     estimated scf accuracy    <       0.00000050 Ry

     iteration #  5     ecut=    30.00 Ry     beta=0.70
     Davidson diagonalization with overlap
     ethr =  2.29E-09,  avg # of iterations =  2.0

     total cpu time spent up to now is       68.1 secs

     total energy              =    -131.73903583 Ry
     Harris-Foulkes estimate   =    -131.73903539 Ry
     estimated scf accuracy    <       0.00000003 Ry

     iteration #  6     ecut=    30.00 Ry     beta=0.70
     Davidson diagonalization with overlap
     ethr =  1.31E-10,  avg # of iterations =  3.0

     total cpu time spent up to now is       68.1 secs

     End of self-consistent calculation

          k = 0.0000 0.0000 0.0000 ( 22119 PWs)   bands (ev):

    -8.1803  -7.0607  -7.0605  -6.1712  -6.1693  -5.8990  -5.8969  -5.8069
    -5.7622  -5.7615  -5.6702

     highest occupied level (ev):    -5.6702

!    total energy              =    -131.73903604 Ry
     Harris-Foulkes estimate   =    -131.73903584 Ry
     estimated scf accuracy    <          2.7E-09 Ry

     convergence has been achieved in   6 iterations

     Forces acting on atoms (Ry/au):

     atom    1 type  1   force =     0.00777578    0.00777957    0.00660479
     atom    2 type  1   force =    -0.00777578   -0.00777957   -0.00660479

     Total force =     0.018144     Total SCF correction =     0.000163

     Entering Dynamics:    iteration =    98
                           time      =   0.4741 pico-seconds


     Andersen thermostat:    2 collisions

ATOMIC_POSITIONS (bohr)
Au      -0.024469194   0.006492405   0.303129333
Au       3.024469194   2.993507595   2.696870667


     kinetic energy (Ekin) =     0.00205664 Ry
     temperature           =   216.47782452 K 
     Ekin + Etot (const)   =  -131.73697940 Ry
     Message from routine dynamics:
     Total linear momentum <> 0

     Linear momentum :    0.0313303826   -0.1389277933    0.5520950317

     Writing output data file pwscf.save

     second order wave-functions extrapolation
     Check: negative starting charge=   -0.006324
     second order charge density extrapolation
     Check: negative starting charge=   -0.006351

     negative rho (up, down):  2.143E-04 0.000E+00

     total cpu time spent up to now is       68.4 secs

     per-process dynamical memory:    20.1 Mb

     Self-consistent Calculation

     iteration #  1     ecut=    30.00 Ry     beta=0.70
     Davidson diagonalization with overlap
     ethr =  1.00E-06,  avg # of iterations =  4.0

     negative rho (up, down):  1.053E-05 0.000E+00

     total cpu time spent up to now is       68.5 secs

     total energy              =    -131.73934328 Ry
     Harris-Foulkes estimate   =    -131.73935149 Ry
     estimated scf accuracy    <       0.00003634 Ry

     iteration #  2     ecut=    30.00 Ry     beta=0.70
     Davidson diagonalization with overlap
     ethr =  1.65E-07,  avg # of iterations =  2.0

     negative rho (up, down):  1.504E-06 0.000E+00

     total cpu time spent up to now is       68.5 secs

     total energy              =    -131.73934918 Ry
     Harris-Foulkes estimate   =    -131.73935994 Ry
     estimated scf accuracy    <       0.00001906 Ry

     iteration #  3     ecut=    30.00 Ry     beta=0.70
     Davidson diagonalization with overlap
     ethr =  8.66E-08,  avg # of iterations =  2.0

     total cpu time spent up to now is       68.6 secs

     total energy              =    -131.73935156 Ry
     Harris-Foulkes estimate   =    -131.73935386 Ry
     estimated scf accuracy    <       0.00000071 Ry

     iteration #  4     ecut=    30.00 Ry     beta=0.70
     Davidson diagonalization with overlap
     ethr =  3.21E-09,  avg # of iterations =  4.0

     total cpu time spent up to now is       68.6 secs

     total energy              =    -131.73935152 Ry
     Harris-Foulkes estimate   =    -131.73935182 Ry
     estimated scf accuracy    <       0.00000013 Ry

     iteration #  5     ecut=    30.00 Ry     beta=0.70
     Davidson diagonalization with overlap
     ethr =  6.07E-10,  avg # of iterations =  2.0

     total cpu time spent up to now is       68.8 secs

     total energy              =    -131.73935154 Ry
     Harris-Foulkes estimate   =    -131.73935156 Ry
     estimated scf accuracy    <       0.00000002 Ry

     iteration #  6     ecut=    30.00 Ry     beta=0.70
     Davidson diagonalization with overlap
     ethr =  7.03E-11,  avg # of iterations =  3.0

     total cpu time spent up to now is       68.8 secs

     End of self-consistent calculation

          k = 0.0000 0.0000 0.0000 ( 22119 PWs)   bands (ev):

    -8.2288  -7.0921  -7.0917  -6.1784  -6.1763  -5.8957  -5.8930  -5.8143
    -5.7500  -5.7495  -5.6603

     highest occupied level (ev):    -5.6603

!    total energy              =    -131.73935142 Ry
     Harris-Foulkes estimate   =    -131.73935154 Ry
     estimated scf accuracy    <          3.7E-09 Ry

     convergence has been achieved in   6 iterations

     Forces acting on atoms (Ry/au):

     atom    1 type  1   force =     0.00419113    0.00414398    0.00362033
     atom    2 type  1   force =    -0.00419113   -0.00414398   -0.00362033

     Total force =     0.009782     Total SCF correction =     0.000302

     Entering Dynamics:    iteration =    99
                           time      =   0.4789 pico-seconds


     Andersen thermostat:    2 collisions

ATOMIC_POSITIONS (bohr)
Au      -0.016861268   0.009904407   0.340030713
Au       3.016861268   2.990095593   2.659969287


     kinetic energy (Ekin) =     0.00352971 Ry
     temperature           =   371.53073972 K 
     Ekin + Etot (const)   =  -131.73582171 Ry
     Message from routine dynamics:
     Total linear momentum <> 0

     Linear momentum :    0.0993683717   -0.0141582021    0.0196538363

     Writing output data file pwscf.save

     second order wave-functions extrapolation
     Check: negative starting charge=   -0.006351
     second order charge density extrapolation
     Check: negative starting charge=   -0.006406

     negative rho (up, down):  3.858E-04 0.000E+00

     total cpu time spent up to now is       69.2 secs

     per-process dynamical memory:    20.1 Mb

     Self-consistent Calculation

     iteration #  1     ecut=    30.00 Ry     beta=0.70
     Davidson diagonalization with overlap
     ethr =  1.00E-06,  avg # of iterations =  5.0

     negative rho (up, down):  2.837E-05 0.000E+00

     total cpu time spent up to now is       69.3 secs

     total energy              =    -131.73944814 Ry
     Harris-Foulkes estimate   =    -131.73946367 Ry
     estimated scf accuracy    <       0.00007725 Ry

     iteration #  2     ecut=    30.00 Ry     beta=0.70
     Davidson diagonalization with overlap
     ethr =  3.51E-07,  avg # of iterations =  3.0

     negative rho (up, down):  5.732E-06 0.000E+00

     total cpu time spent up to now is       69.3 secs

     total energy              =    -131.73946322 Ry
     Harris-Foulkes estimate   =    -131.73948531 Ry
     estimated scf accuracy    <       0.00004399 Ry

     iteration #  3     ecut=    30.00 Ry     beta=0.70
     Davidson diagonalization with overlap
     ethr =  2.00E-07,  avg # of iterations =  2.0

     total cpu time spent up to now is       69.4 secs

     total energy              =    -131.73947502 Ry
     Harris-Foulkes estimate   =    -131.73947378 Ry
     estimated scf accuracy    <       0.00000119 Ry

     iteration #  4     ecut=    30.00 Ry     beta=0.70
     Davidson diagonalization with overlap
     ethr =  5.41E-09,  avg # of iterations =  3.0

     total cpu time spent up to now is       69.4 secs

     total energy              =    -131.73947548 Ry
     Harris-Foulkes estimate   =    -131.73947543 Ry
     estimated scf accuracy    <       0.00000010 Ry

     iteration #  5     ecut=    30.00 Ry     beta=0.70
     Davidson diagonalization with overlap
     ethr =  4.62E-10,  avg # of iterations =  4.0

     total cpu time spent up to now is       69.5 secs

     total energy              =    -131.73947561 Ry
     Harris-Foulkes estimate   =    -131.73947553 Ry
     estimated scf accuracy    <       0.00000003 Ry

     iteration #  6     ecut=    30.00 Ry     beta=0.70
     Davidson diagonalization with overlap
     ethr =  1.51E-10,  avg # of iterations =  2.0

     total cpu time spent up to now is       69.5 secs

     End of self-consistent calculation

          k = 0.0000 0.0000 0.0000 ( 22119 PWs)   bands (ev):

    -8.3073  -7.1430  -7.1423  -6.1904  -6.1878  -5.8901  -5.8863  -5.8265
    -5.7301  -5.7299  -5.6433

     highest occupied level (ev):    -5.6433

!    total energy              =    -131.73947558 Ry
     Harris-Foulkes estimate   =    -131.73947563 Ry
     estimated scf accuracy    <          3.6E-09 Ry

     convergence has been achieved in   6 iterations

     Forces acting on atoms (Ry/au):

     atom    1 type  1   force =    -0.00195674   -0.00209051   -0.00098640
     atom    2 type  1   force =     0.00195674    0.00209051    0.00098640

     Total force =     0.004283     Total SCF correction =     0.000307

     Entering Dynamics:    iteration =   100
                           time      =   0.4838 pico-seconds


     Andersen thermostat:    2 collisions

ATOMIC_POSITIONS (bohr)
Au       0.003326539  -0.008043194   0.285083070
Au       2.996673461   3.008043194   2.714916930


     kinetic energy (Ekin) =     0.01030137 Ry
     temperature           =  1084.30422418 K 
     Ekin + Etot (const)   =  -131.72917421 Ry
     Message from routine dynamics:
     Total linear momentum <> 0

     Linear momentum :    0.0229483708    0.0053399630   -0.4392663823

     The maximum number of steps has been reached.

     End of molecular dynamics calculation

     diffusion coefficients :
     atom     1   D =       0.00000078 cm^2/s
     atom     2   D =       0.00000078 cm^2/s

     < D > =       0.00000078 cm^2/s

     Writing output data file pwscf.save
 
     init_run     :      0.16s CPU      0.28s WALL (       1 calls)
     electrons    :     29.80s CPU     39.66s WALL (     100 calls)
     update_pot   :     11.77s CPU     19.75s WALL (      99 calls)
     forces       :      2.12s CPU      2.20s WALL (     100 calls)

     Called by init_run:
     wfcinit      :      0.08s CPU      0.16s WALL (       1 calls)
     potinit      :      0.02s CPU      0.06s WALL (       1 calls)

     Called by electrons:
     c_bands      :     16.93s CPU     17.94s WALL (     671 calls)
     sum_band     :      2.49s CPU      2.71s WALL (     671 calls)
     v_of_rho     :      4.97s CPU      5.19s WALL (     732 calls)
     mix_rho      :      1.73s CPU      3.50s WALL (     671 calls)

     Called by c_bands:
     init_us_2    :      0.38s CPU      0.43s WALL (    1343 calls)
     cegterg      :     15.00s CPU     15.58s WALL (     671 calls)

     Called by sum_band:

     Called by *egterg:
     h_psi        :     12.59s CPU     13.13s WALL (    3110 calls)
     g_psi        :      0.08s CPU      0.12s WALL (    2438 calls)
     cdiaghg      :      0.95s CPU      0.97s WALL (    2971 calls)

     Called by h_psi:
     h_psi:pot    :     12.56s CPU     13.05s WALL (    3110 calls)
     h_psi:calbec :      0.58s CPU      0.66s WALL (    3110 calls)
     vloc_psi     :     11.69s CPU     12.07s WALL (    3110 calls)
     add_vuspsi   :      0.28s CPU      0.32s WALL (    3110 calls)

     General routines
     calbec       :      1.71s CPU      2.16s WALL (    3608 calls)
     fft          :      3.88s CPU      4.03s WALL (    8329 calls)
     fftw         :     12.70s CPU     12.75s WALL (   55629 calls)
     davcio       :      0.42s CPU      1.69s WALL (    4901 calls)
 
     Parallel routines
     fft_scatter  :      6.70s CPU      7.29s WALL (   63958 calls)
 
     PWSCF        :  0m46.21s CPU     1m 9.81s WALL

 
   This run was terminated on:   6:14: 5  28Apr2017            

=------------------------------------------------------------------------------=
   JOB DONE.
=------------------------------------------------------------------------------=
