
     Program PWSCF v.6.0 (svn rev. 13079) starts on  2Feb2018 at 21:13:43 

     This program is part of the open-source Quantum ESPRESSO suite
     for quantum simulation of materials; please cite
         "P. Giannozzi et al., J. Phys.:Condens. Matter 21 395502 (2009);
          URL http://www.quantum-espresso.org", 
     in publications or presentations arising from this work. More details at
     http://www.quantum-espresso.org/quote

     Parallel version (MPI), running on    28 processors
     R & G space division:  proc/nbgrp/npool/nimage =      28
     Reading input from input/scf-bigwater-1/1001.in
Warning: card &IONS ignored
Warning: card     POT_EXTRAPOLATION='SECOND-ORDER' ignored
Warning: card     WFC_EXTRAPOLATION='SECOND-ORDER' ignored
Warning: card     ION_TEMPERATURE = 'ANDERSEN' ignored
Warning: card     TEMPW = 1000 ignored
Warning: card / ignored

     Current dimensions of program PWSCF are:
     Max number of different atomic species (ntypx) = 10
     Max number of k-points (npk) =  40000
     Max angular momentum in pseudopotentials (lmaxx) =  3

     Subspace diagonalization in iterative solution of the eigenvalue problem:
     a serial algorithm will be used

 
     Parallelization info
     --------------------
     sticks:   dense  smooth     PW     G-vecs:    dense   smooth      PW
     Min         136     136     33                 6338     6338     787
     Max         137     137     34                 6341     6341     792
     Sum        3809    3809    949               177509   177509   22119
 


     bravais-lattice index     =            1
     lattice parameter (alat)  =      20.0000  a.u.
     unit-cell volume          =    8000.0000 (a.u.)^3
     number of atoms/cell      =          192
     number of atomic types    =            2
     number of electrons       =       512.00
     number of Kohn-Sham states=          307
     kinetic-energy cutoff     =      30.0000  Ry
     charge density cutoff     =     120.0000  Ry
     convergence threshold     =      1.0E-08
     mixing beta               =       0.7000
     number of iterations used =            8  plain     mixing
     Exchange-correlation      = BLYP ( 1  3  1  3 0 0)

     celldm(1)=  20.000000  celldm(2)=   0.000000  celldm(3)=   0.000000
     celldm(4)=   0.000000  celldm(5)=   0.000000  celldm(6)=   0.000000

     crystal axes: (cart. coord. in units of alat)
               a(1) = (   1.000000   0.000000   0.000000 )  
               a(2) = (   0.000000   1.000000   0.000000 )  
               a(3) = (   0.000000   0.000000   1.000000 )  

     reciprocal axes: (cart. coord. in units 2 pi/alat)
               b(1) = (  1.000000  0.000000  0.000000 )  
               b(2) = (  0.000000  1.000000  0.000000 )  
               b(3) = (  0.000000  0.000000  1.000000 )  


     PseudoPot. # 1 for  H read from file:
     ./H.blyp-hgh.UPF
     MD5 check sum: c576e69559cde411e611be972c763230
     Pseudo is Norm-conserving, Zval =  1.0
     Generated in analytical, separable form
     Using radial grid of  929 points,  0 beta functions with: 

     PseudoPot. # 2 for  O read from file:
     ./O.blyp-hgh.UPF
     MD5 check sum: d0b7156309aa9befef28faac7bc56342
     Pseudo is Norm-conserving, Zval =  6.0
     Generated in analytical, separable form
     Using radial grid of 1095 points,  1 beta functions with: 
                l(1) =   0

     atomic species   valence    mass     pseudopotential
        H              1.00     1.01000      H( 1.00)
        O              6.00    16.00000      O( 1.00)

     No symmetry found



   Cartesian axes

     site n.     atom                  positions (alat units)
         1           O   tau(   1) = (  -0.2702196  -0.0769361  -0.0375929  )
         2           O   tau(   2) = (   0.1402855  -0.1321200   0.3066565  )
         3           O   tau(   3) = (  -0.2806103   0.3274723  -0.2718666  )
         4           O   tau(   4) = (   0.0688050   0.1450549  -0.0517988  )
         5           O   tau(   5) = (  -0.2506059   0.0560925   0.1923944  )
         6           O   tau(   6) = (   0.0042543   0.3028763   0.2942364  )
         7           O   tau(   7) = (  -0.0676248  -0.2835033  -0.1274524  )
         8           O   tau(   8) = (   0.1570102   0.0634227   0.2335795  )
         9           O   tau(   9) = (  -0.1468827  -0.3306686   0.2777267  )
        10           O   tau(  10) = (   0.1018040  -0.1251777   0.1869954  )
        11           O   tau(  11) = (   0.1298089  -0.3312759   0.1190270  )
        12           O   tau(  12) = (  -0.1678703  -0.1807544   0.2252298  )
        13           O   tau(  13) = (  -0.2343461  -0.3540009   0.0143227  )
        14           O   tau(  14) = (  -0.1918556  -0.2237289  -0.1885939  )
        15           O   tau(  15) = (   0.1218284  -0.1923106  -0.0932296  )
        16           O   tau(  16) = (  -0.0905846   0.1569589  -0.0583538  )
        17           O   tau(  17) = (  -0.0660320  -0.1460366   0.0884382  )
        18           O   tau(  18) = (   0.0202522  -0.2423432   0.1761680  )
        19           O   tau(  19) = (   0.2214459  -0.2184430  -0.2367691  )
        20           O   tau(  20) = (   0.2417207   0.2334000   0.1107636  )
        21           O   tau(  21) = (   0.2643443  -0.1968702   0.1873778  )
        22           O   tau(  22) = (  -0.1202095  -0.1079309  -0.1562131  )
        23           O   tau(  23) = (  -0.0585596   0.1643553  -0.2241143  )
        24           O   tau(  24) = (   0.2192263   0.0853716   0.0868735  )
        25           O   tau(  25) = (   0.1443574   0.0683030  -0.1737590  )
        26           O   tau(  26) = (  -0.2274186   0.1647164  -0.2708181  )
        27           O   tau(  27) = (   0.2478954  -0.2844172   0.0001213  )
        28           O   tau(  28) = (   0.0402250  -0.0263478  -0.2955442  )
        29           O   tau(  29) = (  -0.1179156   0.0287471  -0.2586801  )
        30           O   tau(  30) = (   0.0377469  -0.0395809   0.0842680  )
        31           O   tau(  31) = (   0.2872763  -0.1091636  -0.1972438  )
        32           O   tau(  32) = (   0.2179963  -0.0101445  -0.0668721  )
        33           O   tau(  33) = (   0.0226253   0.2235985   0.1974463  )
        34           O   tau(  34) = (  -0.2238596   0.0218033  -0.1684875  )
        35           O   tau(  35) = (  -0.0001620  -0.1932201  -0.0398344  )
        36           O   tau(  36) = (   0.2620186   0.2112383  -0.3539548  )
        37           O   tau(  37) = (   0.1871732   0.3300917   0.2851383  )
        38           O   tau(  38) = (  -0.2775452   0.2799370  -0.1176449  )
        39           O   tau(  39) = (  -0.0004129   0.0536292  -0.1349622  )
        40           O   tau(  40) = (  -0.2083391  -0.2009339  -0.0511346  )
        41           O   tau(  41) = (  -0.1462722   0.2831788   0.1401099  )
        42           O   tau(  42) = (  -0.1379415   0.1620945   0.1982833  )
        43           O   tau(  43) = (  -0.0916709  -0.0853361  -0.0245043  )
        44           O   tau(  44) = (  -0.0756215  -0.0766773   0.2633182  )
        45           O   tau(  45) = (   0.0150157   0.1103327   0.2891891  )
        46           O   tau(  46) = (  -0.2290282   0.1547919   0.0740510  )
        47           O   tau(  47) = (   0.1841887   0.2467860  -0.0938419  )
        48           O   tau(  48) = (   0.0733338  -0.2862673  -0.1874942  )
        49           O   tau(  49) = (  -0.1413194   0.2268065  -0.1620433  )
        50           O   tau(  50) = (   0.2669802   0.0533857   0.3319216  )
        51           O   tau(  51) = (  -0.0740641   0.0414585   0.0985750  )
        52           O   tau(  52) = (   0.0027611  -0.0885148  -0.1838164  )
        53           O   tau(  53) = (   0.0129463  -0.1801461  -0.2846696  )
        54           O   tau(  54) = (   0.3548743  -0.3149382   0.1983595  )
        55           O   tau(  55) = (   0.1890033  -0.1422970   0.0597895  )
        56           O   tau(  56) = (   0.3010491  -0.0640023   0.1497484  )
        57           O   tau(  57) = (   0.0758339   0.1877245  -0.2092818  )
        58           O   tau(  58) = (  -0.0839548  -0.3688168   0.0338067  )
        59           O   tau(  59) = (  -0.2409893  -0.0740086  -0.3370925  )
        60           O   tau(  60) = (  -0.2181201   0.0763547  -0.0336267  )
        61           O   tau(  61) = (   0.2640573   0.1858686  -0.2083556  )
        62           O   tau(  62) = (   0.0753633  -0.0481683  -0.0709702  )
        63           O   tau(  63) = (  -0.2427334  -0.1879010   0.1159975  )
        64           O   tau(  64) = (   0.0855936   0.1528356   0.1025138  )
        65           H   tau(  65) = (  -0.2567770  -0.1246172  -0.0408734  )
        66           H   tau(  66) = (  -0.2376143  -0.0604529  -0.0698408  )
        67           H   tau(  67) = (   0.1197743  -0.1030673   0.3402810  )
        68           H   tau(  68) = (   0.1229931  -0.1115082   0.2649518  )
        69           H   tau(  69) = (  -0.2762347   0.2868083  -0.2452066  )
        70           H   tau(  70) = (  -0.2473417   0.3580554  -0.2499123  )
        71           H   tau(  71) = (   0.1146891   0.1388591  -0.0677993  )
        72           H   tau(  72) = (   0.0624537   0.1935315  -0.0514952  )
        73           H   tau(  73) = (  -0.2817141   0.0225897   0.2086447  )
        74           H   tau(  74) = (  -0.2142921   0.0452557   0.2232330  )
        75           H   tau(  75) = (   0.0145489   0.3482297   0.2793202  )
        76           H   tau(  76) = (   0.0006718   0.2985653   0.3427513  )
        77           H   tau(  77) = (  -0.0376221  -0.3053525  -0.0951233  )
        78           H   tau(  78) = (  -0.0408319  -0.2799725  -0.1684068  )
        79           H   tau(  79) = (   0.1805210   0.0931076   0.2037159  )
        80           H   tau(  80) = (   0.1272694   0.0371999   0.2045415  )
        81           H   tau(  81) = (  -0.1402128  -0.3710736   0.3035214  )
        82           H   tau(  82) = (  -0.1033402  -0.3187197   0.2578361  )
        83           H   tau(  83) = (   0.0819356  -0.0944719   0.1539068  )
        84           H   tau(  84) = (   0.1325787  -0.1461332   0.1550515  )
        85           H   tau(  85) = (   0.0856147  -0.3225189   0.1375206  )
        86           H   tau(  86) = (   0.1508252  -0.2888100   0.1067676  )
        87           H   tau(  87) = (  -0.1764179  -0.2288718   0.2329526  )
        88           H   tau(  88) = (  -0.1640744  -0.1883534   0.1773532  )
        89           H   tau(  89) = (  -0.2341835  -0.3876928   0.0494306  )
        90           H   tau(  90) = (  -0.2610403  -0.3689988  -0.0237222  )
        91           H   tau(  91) = (  -0.1563975  -0.1923883  -0.2007614  )
        92           H   tau(  92) = (  -0.1718758  -0.2596734  -0.1615171  )
        93           H   tau(  93) = (   0.1546714  -0.1732818  -0.1240848  )
        94           H   tau(  94) = (   0.0851115  -0.1622074  -0.0818899  )
        95           H   tau(  95) = (  -0.1290780   0.1794866  -0.0795640  )
        96           H   tau(  96) = (  -0.0850573   0.1619163  -0.0098938  )
        97           H   tau(  97) = (  -0.0874950  -0.1275351   0.0483922  )
        98           H   tau(  98) = (  -0.0348338  -0.1081041   0.0958204  )
        99           H   tau(  99) = (   0.0255833  -0.1934302   0.1800232  )
       100           H   tau( 100) = (  -0.0161537  -0.2476583   0.1433464  )
       101           H   tau( 101) = (   0.2655527  -0.2340962  -0.2551455  )
       102           H   tau( 102) = (   0.2017770  -0.1817982  -0.2643625  )
       103           H   tau( 103) = (   0.1944130   0.2486379   0.1144658  )
       104           H   tau( 104) = (   0.2613037   0.2532376   0.1500198  )
       105           H   tau( 105) = (   0.3020325  -0.1668512   0.1800081  )
       106           H   tau( 106) = (   0.2354206  -0.1722753   0.2177665  )
       107           H   tau( 107) = (  -0.0756057  -0.0907646  -0.1745752  )
       108           H   tau( 108) = (  -0.1551958  -0.0742031  -0.1622154  )
       109           H   tau( 109) = (  -0.0197358   0.1424645  -0.2042262  )
       110           H   tau( 110) = (  -0.0766093   0.1265330  -0.2485709  )
       111           H   tau( 111) = (   0.2487144   0.1243547   0.0854389  )
       112           H   tau( 112) = (   0.1744479   0.1052455   0.0937392  )
       113           H   tau( 113) = (   0.1124635   0.0394657  -0.1974536  )
       114           H   tau( 114) = (   0.1256459   0.1141430  -0.1769908  )
       115           H   tau( 115) = (  -0.2698860   0.1718965  -0.2946265  )
       116           H   tau( 116) = (  -0.2420398   0.1273189  -0.2427821  )
       117           H   tau( 117) = (   0.2584269  -0.3215886   0.0310221  )
       118           H   tau( 118) = (   0.2892082  -0.2774000  -0.0253026  )
       119           H   tau( 119) = (  -0.0077133  -0.0321430  -0.3066916  )
       120           H   tau( 120) = (   0.0490908   0.0150402  -0.3214600  )
       121           H   tau( 121) = (  -0.1417175   0.0019926  -0.2914206  )
       122           H   tau( 122) = (  -0.1531421   0.0341142  -0.2233472  )
       123           H   tau( 123) = (   0.0020828  -0.0051230   0.0880310  )
       124           H   tau( 124) = (   0.0398842  -0.0510305   0.0366489  )
       125           H   tau( 125) = (   0.2899563  -0.1561819  -0.2106274  )
       126           H   tau( 126) = (   0.3102836  -0.1080279  -0.1539063  )
       127           H   tau( 127) = (   0.2026473   0.0286643  -0.0407393  )
       128           H   tau( 128) = (   0.2585145  -0.0275915  -0.0426971  )
       129           H   tau( 129) = (   0.0229130   0.2477657   0.2422123  )
       130           H   tau( 130) = (  -0.0096473   0.1891781   0.2016677  )
       131           H   tau( 131) = (  -0.2384034   0.0420343  -0.1238539  )
       132           H   tau( 132) = (  -0.2633723  -0.0043005  -0.1814817  )
       133           H   tau( 133) = (  -0.0291326  -0.2217583  -0.0676877  )
       134           H   tau( 134) = (  -0.0202516  -0.1955620   0.0048025  )
       135           H   tau( 135) = (   0.2710436   0.2584704  -0.3627800  )
       136           H   tau( 136) = (   0.2770043   0.1825856  -0.3901708  )
       137           H   tau( 137) = (   0.1572395   0.3156338   0.2491078  )
       138           H   tau( 138) = (   0.1634301   0.3621654   0.3133973  )
       139           H   tau( 139) = (  -0.3211848   0.2555990  -0.1256155  )
       140           H   tau( 140) = (  -0.2496509   0.2574250  -0.1529395  )
       141           H   tau( 141) = (  -0.0467097   0.0616773  -0.1452078  )
       142           H   tau( 142) = (   0.0161250   0.0911817  -0.1069613  )
       143           H   tau( 143) = (  -0.1791406  -0.1860353  -0.0866231  )
       144           H   tau( 144) = (  -0.1884711  -0.2319345  -0.0182852  )
       145           H   tau( 145) = (  -0.1838995   0.2747694   0.1097256  )
       146           H   tau( 146) = (  -0.1675291   0.2826125   0.1852562  )
       147           H   tau( 147) = (  -0.1205971   0.2017803   0.1759451  )
       148           H   tau( 148) = (  -0.1860896   0.1692823   0.1952713  )
       149           H   tau( 149) = (  -0.1075972  -0.0917558  -0.0710689  )
       150           H   tau( 150) = (  -0.0892941  -0.0367842  -0.0233585  )
       151           H   tau( 151) = (  -0.0966492  -0.1062067   0.2300368  )
       152           H   tau( 152) = (  -0.0786002  -0.1050013   0.3032014  )
       153           H   tau( 153) = (   0.0295256   0.1424254   0.2548783  )
       154           H   tau( 154) = (  -0.0345758   0.1154039   0.2902272  )
       155           H   tau( 155) = (  -0.2537569   0.1352324   0.1118721  )
       156           H   tau( 156) = (  -0.1975419   0.1203163   0.0589074  )
       157           H   tau( 157) = (   0.2095782   0.2864354  -0.0779080  )
       158           H   tau( 158) = (   0.1894194   0.2432431  -0.1426161  )
       159           H   tau( 159) = (   0.0576199  -0.2612198  -0.2265901  )
       160           H   tau( 160) = (   0.0916756  -0.2539199  -0.1529084  )
       161           H   tau( 161) = (  -0.1659812   0.1908975  -0.1858558  )
       162           H   tau( 162) = (  -0.0962609   0.2180544  -0.1817993  )
       163           H   tau( 163) = (   0.2475001   0.0265746   0.3677405  )
       164           H   tau( 164) = (   0.2371126   0.0420070   0.2947578  )
       165           H   tau( 165) = (  -0.0813508   0.0169889   0.1412332  )
       166           H   tau( 166) = (  -0.0610628   0.0880842   0.1098393  )
       167           H   tau( 167) = (   0.0183672  -0.0684079  -0.1411093  )
       168           H   tau( 168) = (   0.0201807  -0.0604913  -0.2208795  )
       169           H   tau( 169) = (   0.0401334  -0.1488011  -0.2580743  )
       170           H   tau( 170) = (   0.0383710  -0.1843172  -0.3262803  )
       171           H   tau( 171) = (   0.3573805  -0.2921886   0.2418965  )
       172           H   tau( 172) = (   0.3532364  -0.2787957   0.1650138  )
       173           H   tau( 173) = (   0.2205226  -0.1788430   0.0520569  )
       174           H   tau( 174) = (   0.1716177  -0.1283589   0.0166350  )
       175           H   tau( 175) = (   0.2882493  -0.0298798   0.1162876  )
       176           H   tau( 176) = (   0.2598904  -0.0675888   0.1759666  )
       177           H   tau( 177) = (   0.0891260   0.1913756  -0.2560584  )
       178           H   tau( 178) = (   0.0750082   0.2363097  -0.1978316  )
       179           H   tau( 179) = (  -0.0924814  -0.3319022   0.0655448  )
       180           H   tau( 180) = (  -0.1176251  -0.3614291  -0.0009444  )
       181           H   tau( 181) = (  -0.2833080  -0.0915198  -0.3199196  )
       182           H   tau( 182) = (  -0.2259519  -0.1051941  -0.3712861  )
       183           H   tau( 183) = (  -0.1783432   0.1020717  -0.0497668  )
       184           H   tau( 184) = (  -0.2453698   0.1033695  -0.0026238  )
       185           H   tau( 185) = (   0.2840101   0.2097596  -0.2459162  )
       186           H   tau( 186) = (   0.2485550   0.1458001  -0.2338800  )
       187           H   tau( 187) = (   0.1214573  -0.0346010  -0.0848821  )
       188           H   tau( 188) = (   0.0522053  -0.0044838  -0.0727263  )
       189           H   tau( 189) = (  -0.2549800  -0.2081972   0.0721846  )
       190           H   tau( 190) = (  -0.2644363  -0.1436662   0.1124837  )
       191           H   tau( 191) = (   0.0639074   0.1678429   0.1438047  )
       192           H   tau( 192) = (   0.0523380   0.1428838   0.0689667  )

     number of k points=     1  Marzari-Vanderbilt smearing, width (Ry)=  0.0250
                       cart. coord. in units 2pi/alat
        k(    1) = (   0.0000000   0.0000000   0.0000000), wk =   2.0000000

     Dense  grid:   177509 G-vectors     FFT dimensions: (  72,  72,  72)

     Estimated max dynamical RAM per process >      67.80Mb

     Estimated total allocated dynamical RAM >    1898.40Mb

     Initial potential from superposition of free atoms
     Check: negative starting charge=   -0.723410

     starting charge  511.99856, renormalised to  512.00000

     negative rho (up, down):  7.234E-01 0.000E+00
     Starting wfc are  384 randomized atomic wfcs

     total cpu time spent up to now is        0.8 secs

     per-process dynamical memory:    45.9 Mb

     Self-consistent Calculation

     iteration #  1     ecut=    30.00 Ry     beta=0.70
     Davidson diagonalization with overlap
     ethr =  1.00E-02,  avg # of iterations =  8.0

     negative rho (up, down):  1.704E-01 0.000E+00

     total cpu time spent up to now is        9.2 secs

     total energy              =   -1798.84345495 Ry
     Harris-Foulkes estimate   =   -1825.99775650 Ry
     estimated scf accuracy    <      42.15576371 Ry

     iteration #  2     ecut=    30.00 Ry     beta=0.70
     Davidson diagonalization with overlap
     ethr =  8.23E-03,  avg # of iterations =  4.0

     negative rho (up, down):  2.179E-03 0.000E+00

     total cpu time spent up to now is       12.3 secs

     total energy              =   -1779.62069502 Ry
     Harris-Foulkes estimate   =   -1812.57627498 Ry
     estimated scf accuracy    <      73.03334315 Ry

     iteration #  3     ecut=    30.00 Ry     beta=0.70
     Davidson diagonalization with overlap
     ethr =  8.23E-03,  avg # of iterations =  4.0

     negative rho (up, down):  1.901E-05 0.000E+00

     total cpu time spent up to now is       15.5 secs

     total energy              =   -1800.89453336 Ry
     Harris-Foulkes estimate   =   -1813.98711442 Ry
     estimated scf accuracy    <      40.79373452 Ry

     iteration #  4     ecut=    30.00 Ry     beta=0.70
     Davidson diagonalization with overlap
     ethr =  7.97E-03,  avg # of iterations =  3.0

     total cpu time spent up to now is       17.3 secs

     total energy              =   -1806.58990473 Ry
     Harris-Foulkes estimate   =   -1808.69235679 Ry
     estimated scf accuracy    <       6.62582572 Ry

     iteration #  5     ecut=    30.00 Ry     beta=0.70
     Davidson diagonalization with overlap
     ethr =  1.29E-03,  avg # of iterations =  5.0

     total cpu time spent up to now is       19.8 secs

     total energy              =   -1806.35724103 Ry
     Harris-Foulkes estimate   =   -1806.99611606 Ry
     estimated scf accuracy    <       2.60034322 Ry

     iteration #  6     ecut=    30.00 Ry     beta=0.70
     Davidson diagonalization with overlap
     ethr =  5.08E-04,  avg # of iterations =  6.0

     total cpu time spent up to now is       22.5 secs

     total energy              =   -1806.28503686 Ry
     Harris-Foulkes estimate   =   -1806.50500351 Ry
     estimated scf accuracy    <       1.31597935 Ry

     iteration #  7     ecut=    30.00 Ry     beta=0.70
     Davidson diagonalization with overlap
     ethr =  2.57E-04,  avg # of iterations =  2.0

     total cpu time spent up to now is       23.9 secs

     total energy              =   -1806.19271612 Ry
     Harris-Foulkes estimate   =   -1806.34710420 Ry
     estimated scf accuracy    <       0.83838216 Ry

     iteration #  8     ecut=    30.00 Ry     beta=0.70
     Davidson diagonalization with overlap
     ethr =  1.64E-04,  avg # of iterations =  4.0

     total cpu time spent up to now is       26.0 secs

     total energy              =   -1806.08015890 Ry
     Harris-Foulkes estimate   =   -1806.23136606 Ry
     estimated scf accuracy    <       0.47422711 Ry

     iteration #  9     ecut=    30.00 Ry     beta=0.70
     Davidson diagonalization with overlap
     ethr =  9.26E-05,  avg # of iterations =  7.0

     total cpu time spent up to now is       29.2 secs

     total energy              =   -1806.09526938 Ry
     Harris-Foulkes estimate   =   -1806.14033841 Ry
     estimated scf accuracy    <       0.31575399 Ry

     iteration # 10     ecut=    30.00 Ry     beta=0.70
     Davidson diagonalization with overlap
     ethr =  6.17E-05,  avg # of iterations =  1.0

     total cpu time spent up to now is       30.3 secs

     total energy              =   -1806.09310747 Ry
     Harris-Foulkes estimate   =   -1806.12530713 Ry
     estimated scf accuracy    <       0.20577086 Ry

     iteration # 11     ecut=    30.00 Ry     beta=0.70
     Davidson diagonalization with overlap
     ethr =  4.02E-05,  avg # of iterations =  2.0

     total cpu time spent up to now is       31.7 secs

     total energy              =   -1806.09698543 Ry
     Harris-Foulkes estimate   =   -1806.11645673 Ry
     estimated scf accuracy    <       0.10355448 Ry

     iteration # 12     ecut=    30.00 Ry     beta=0.70
     Davidson diagonalization with overlap
     ethr =  2.02E-05,  avg # of iterations = 12.0

     total cpu time spent up to now is       36.3 secs

     total energy              =   -1806.09578812 Ry
     Harris-Foulkes estimate   =   -1806.10944461 Ry
     estimated scf accuracy    <       0.05776599 Ry

     iteration # 13     ecut=    30.00 Ry     beta=0.70
     Davidson diagonalization with overlap
     ethr =  1.13E-05,  avg # of iterations =  4.0

     total cpu time spent up to now is       38.5 secs

     total energy              =   -1806.10225737 Ry
     Harris-Foulkes estimate   =   -1806.11335412 Ry
     estimated scf accuracy    <       0.09962638 Ry

     iteration # 14     ecut=    30.00 Ry     beta=0.70
     Davidson diagonalization with overlap
     ethr =  1.13E-05,  avg # of iterations =  2.0

     total cpu time spent up to now is       39.9 secs

     total energy              =   -1806.10416257 Ry
     Harris-Foulkes estimate   =   -1806.10607134 Ry
     estimated scf accuracy    <       0.01215539 Ry

     iteration # 15     ecut=    30.00 Ry     beta=0.70
     Davidson diagonalization with overlap
     ethr =  2.37E-06,  avg # of iterations =  5.0

     total cpu time spent up to now is       42.4 secs

     total energy              =   -1806.10450786 Ry
     Harris-Foulkes estimate   =   -1806.10510651 Ry
     estimated scf accuracy    <       0.00181397 Ry

     iteration # 16     ecut=    30.00 Ry     beta=0.70
     Davidson diagonalization with overlap
     ethr =  3.54E-07,  avg # of iterations =  2.0

     total cpu time spent up to now is       43.9 secs

     total energy              =   -1806.10425442 Ry
     Harris-Foulkes estimate   =   -1806.10546625 Ry
     estimated scf accuracy    <       0.00704183 Ry

     iteration # 17     ecut=    30.00 Ry     beta=0.70
     Davidson diagonalization with overlap
     ethr =  3.54E-07,  avg # of iterations =  2.0

     total cpu time spent up to now is       45.4 secs

     total energy              =   -1806.10489895 Ry
     Harris-Foulkes estimate   =   -1806.10493393 Ry
     estimated scf accuracy    <       0.00017283 Ry

     iteration # 18     ecut=    30.00 Ry     beta=0.70
     Davidson diagonalization with overlap
     ethr =  3.38E-08,  avg # of iterations =  2.0

     total cpu time spent up to now is       46.8 secs

     total energy              =   -1806.10491193 Ry
     Harris-Foulkes estimate   =   -1806.10492418 Ry
     estimated scf accuracy    <       0.00004636 Ry

     iteration # 19     ecut=    30.00 Ry     beta=0.70
     Davidson diagonalization with overlap
     ethr =  9.05E-09,  avg # of iterations =  2.0

     total cpu time spent up to now is       48.2 secs

     total energy              =   -1806.10491507 Ry
     Harris-Foulkes estimate   =   -1806.10492470 Ry
     estimated scf accuracy    <       0.00007082 Ry

     iteration # 20     ecut=    30.00 Ry     beta=0.70
     Davidson diagonalization with overlap
     ethr =  9.05E-09,  avg # of iterations =  2.0

     total cpu time spent up to now is       49.6 secs

     total energy              =   -1806.10491964 Ry
     Harris-Foulkes estimate   =   -1806.10492047 Ry
     estimated scf accuracy    <       0.00000460 Ry

     iteration # 21     ecut=    30.00 Ry     beta=0.70
     Davidson diagonalization with overlap
     ethr =  8.98E-10,  avg # of iterations =  2.0

     total cpu time spent up to now is       51.1 secs

     total energy              =   -1806.10492014 Ry
     Harris-Foulkes estimate   =   -1806.10492051 Ry
     estimated scf accuracy    <       0.00000307 Ry

     iteration # 22     ecut=    30.00 Ry     beta=0.70
     Davidson diagonalization with overlap
     ethr =  5.99E-10,  avg # of iterations =  2.0

     total cpu time spent up to now is       52.5 secs

     total energy              =   -1806.10492041 Ry
     Harris-Foulkes estimate   =   -1806.10492039 Ry
     estimated scf accuracy    <       0.00000018 Ry

     iteration # 23     ecut=    30.00 Ry     beta=0.70
     Davidson diagonalization with overlap
     ethr =  3.61E-11,  avg # of iterations =  3.0

     total cpu time spent up to now is       54.2 secs

     total energy              =   -1806.10492044 Ry
     Harris-Foulkes estimate   =   -1806.10492044 Ry
     estimated scf accuracy    <       0.00000002 Ry

     iteration # 24     ecut=    30.00 Ry     beta=0.70
     Davidson diagonalization with overlap
     ethr =  4.21E-12,  avg # of iterations =  3.0

     total cpu time spent up to now is       56.2 secs

     End of self-consistent calculation

          k = 0.0000 0.0000 0.0000 ( 22119 PWs)   bands (ev):

   -41.2583 -40.3188 -39.1800 -38.7710 -37.9632 -37.6236 -36.6052 -36.1333
   -35.7561 -35.2802 -34.5878 -34.4918 -34.1582 -33.7382 -33.6144 -33.3412
   -33.0270 -32.7465 -32.5516 -32.2172 -31.9567 -31.5789 -31.3720 -31.1152
   -30.7767 -30.6668 -30.3944 -30.2266 -30.1443 -30.0847 -29.7631 -29.6361
   -29.5157 -29.3322 -29.1942 -29.0684 -28.9630 -28.9053 -28.6269 -28.2273
   -28.0400 -27.9617 -27.8732 -27.7644 -27.6718 -27.3617 -27.2187 -27.0358
   -26.9157 -26.5286 -26.2836 -26.1416 -26.1034 -26.0171 -25.9146 -25.7504
   -25.7340 -25.6283 -25.5725 -25.4037 -25.2842 -25.0449 -24.7918 -24.1244
   -22.2258 -21.5048 -21.1642 -20.9274 -20.8036 -20.0024 -19.6655 -19.4152
   -19.3181 -18.8479 -18.6062 -18.3659 -18.2362 -17.7983 -17.7279 -17.3463
   -17.0548 -16.8446 -16.7198 -16.6149 -16.5463 -16.3819 -16.1584 -16.1275
   -15.9548 -15.9052 -15.7815 -15.6212 -15.4206 -15.3189 -15.2536 -15.1788
   -15.0577 -14.8965 -14.7745 -14.6215 -14.4565 -14.3856 -14.3621 -14.2159
   -14.0993 -14.0359 -13.9236 -13.8002 -13.5850 -13.5432 -13.4083 -13.3134
   -13.2542 -13.1665 -13.0712 -12.9206 -12.7045 -12.5592 -12.3598 -12.2226
   -11.9100 -11.8733 -11.7696 -11.6266 -11.3265 -11.2145 -10.9180 -10.8424
   -10.6650 -10.3355  -9.5499  -9.1883  -8.9606  -8.8630  -8.6493  -8.3515
    -8.2379  -7.9862  -7.8046  -7.6441  -7.5418  -7.3504  -7.1137  -7.0801
    -6.9299  -6.8561  -6.7870  -6.6491  -6.5082  -6.3866  -6.0713  -5.9727
    -5.9377  -5.7488  -5.6633  -5.5908  -5.3470  -5.3156  -5.0790  -5.0136
    -4.8800  -4.7689  -4.6927  -4.5824  -4.5462  -4.4745  -4.4194  -4.3426
    -4.2505  -4.2259  -4.1524  -3.9470  -3.8692  -3.7987  -3.7209  -3.6626
    -3.5338  -3.4599  -3.3991  -3.3574  -3.2556  -3.1623  -3.0835  -3.0324
    -2.9495  -2.8961  -2.8398  -2.7250  -2.6830  -2.5211  -2.4533  -2.3149
    -2.1731  -2.1287  -2.1010  -1.9843  -1.9197  -1.8631  -1.7771  -1.6223
    -1.5165  -1.4460  -1.3810  -1.3074  -1.2614  -1.1231  -1.0091  -0.8069
    -0.7811  -0.7095  -0.5626  -0.4591  -0.3782  -0.1523  -0.0208   0.1066
     0.1319   0.1813   0.3399   0.4563   0.5584   0.6430   0.8376   0.9179
     1.0587   1.1321   1.1549   1.2668   1.4512   1.5745   1.6527   1.7079
     1.8960   2.0919   2.1333   2.2381   2.4226   2.5523   2.6179   2.7681
     2.8532   3.1096   3.1632   3.4132   3.6632   3.8603   4.0357   4.2479
     4.4500   4.5499   4.7824   4.9302   5.0658   5.1351   5.2037   5.3268
     5.5541   6.3035   6.4912   6.6251   6.7854   7.2511   7.3003   7.4215
     7.5265   7.6788   7.7481   7.9625   8.0528   8.4950   8.5834   8.6852
     8.7871   8.9126   8.9876   9.5223   9.6939   9.8220   9.9593  10.1575
    10.2064  10.2543  10.3878  10.4867  10.5395  10.6301  10.8004  10.8716
    11.0058  11.0161  11.1771  11.2399  11.3788  11.4792  11.4950  11.5739
    11.7169  11.8115  11.8440  11.8799  12.0228  12.0382  12.0899  12.1417
    12.1910  12.2969  12.3117

     the Fermi energy is     5.4519 ev

!    total energy              =   -1806.10492044 Ry
     Harris-Foulkes estimate   =   -1806.10492044 Ry
     estimated scf accuracy    <          9.9E-09 Ry

     The total energy is the sum of the following terms:

     one-electron contribution =  -13401.02589839 Ry
     hartree contribution      =    6875.80832675 Ry
     xc contribution           =    -633.77816956 Ry
     ewald contribution        =    5352.87767646 Ry
     smearing contrib. (-TS)   =       0.01314430 Ry

     convergence has been achieved in  24 iterations

     Writing output data file pwscf.save
 
     init_run     :      0.57s CPU      0.63s WALL (       1 calls)
     electrons    :     53.88s CPU     55.44s WALL (       1 calls)

     Called by init_run:
     wfcinit      :      0.47s CPU      0.52s WALL (       1 calls)
     potinit      :      0.02s CPU      0.03s WALL (       1 calls)

     Called by electrons:
     c_bands      :     51.54s CPU     52.83s WALL (      24 calls)
     sum_band     :      1.92s CPU      1.96s WALL (      24 calls)
     v_of_rho     :      0.19s CPU      0.20s WALL (      25 calls)
     mix_rho      :      0.14s CPU      0.26s WALL (      24 calls)

     Called by c_bands:
     init_us_2    :      0.06s CPU      0.07s WALL (      49 calls)
     cegterg      :     51.40s CPU     52.59s WALL (      24 calls)

     Called by sum_band:

     Called by *egterg:
     h_psi        :      8.92s CPU      9.06s WALL (     114 calls)
     g_psi        :      0.07s CPU      0.07s WALL (      89 calls)
     cdiaghg      :     32.44s CPU     32.49s WALL (     113 calls)

     Called by h_psi:
     h_psi:pot    :      8.69s CPU      8.83s WALL (     114 calls)
     h_psi:calbec :      0.33s CPU      0.33s WALL (     114 calls)
     vloc_psi     :      8.07s CPU      8.21s WALL (     114 calls)
     add_vuspsi   :      0.29s CPU      0.29s WALL (     114 calls)

     General routines
     calbec       :      0.33s CPU      0.33s WALL (     114 calls)
     fft          :      0.10s CPU      0.11s WALL (     274 calls)
     fftw         :      8.97s CPU      9.14s WALL (   41124 calls)
     davcio       :      0.02s CPU      0.14s WALL (     388 calls)
 
     Parallel routines
     fft_scatter  :      3.01s CPU      3.08s WALL (   41398 calls)
 
     PWSCF        :    54.61s CPU        56.50s WALL

 
   This run was terminated on:  21:14:39   2Feb2018            

=------------------------------------------------------------------------------=
   JOB DONE.
=------------------------------------------------------------------------------=
