
     Program PWSCF v.6.0 (svn rev. 13079) starts on  2Feb2018 at 21:14:40 

     This program is part of the open-source Quantum ESPRESSO suite
     for quantum simulation of materials; please cite
         "P. Giannozzi et al., J. Phys.:Condens. Matter 21 395502 (2009);
          URL http://www.quantum-espresso.org", 
     in publications or presentations arising from this work. More details at
     http://www.quantum-espresso.org/quote

     Parallel version (MPI), running on    28 processors
     R & G space division:  proc/nbgrp/npool/nimage =      28
     Reading input from input/scf-bigwater-1/1002.in
Warning: card &IONS ignored
Warning: card     POT_EXTRAPOLATION='SECOND-ORDER' ignored
Warning: card     WFC_EXTRAPOLATION='SECOND-ORDER' ignored
Warning: card     ION_TEMPERATURE = 'ANDERSEN' ignored
Warning: card     TEMPW = 1000 ignored
Warning: card / ignored

     Current dimensions of program PWSCF are:
     Max number of different atomic species (ntypx) = 10
     Max number of k-points (npk) =  40000
     Max angular momentum in pseudopotentials (lmaxx) =  3

     Subspace diagonalization in iterative solution of the eigenvalue problem:
     a serial algorithm will be used

 
     Parallelization info
     --------------------
     sticks:   dense  smooth     PW     G-vecs:    dense   smooth      PW
     Min         136     136     33                 6338     6338     787
     Max         137     137     34                 6341     6341     792
     Sum        3809    3809    949               177509   177509   22119
 


     bravais-lattice index     =            1
     lattice parameter (alat)  =      20.0000  a.u.
     unit-cell volume          =    8000.0000 (a.u.)^3
     number of atoms/cell      =          192
     number of atomic types    =            2
     number of electrons       =       512.00
     number of Kohn-Sham states=          307
     kinetic-energy cutoff     =      30.0000  Ry
     charge density cutoff     =     120.0000  Ry
     convergence threshold     =      1.0E-08
     mixing beta               =       0.7000
     number of iterations used =            8  plain     mixing
     Exchange-correlation      = BLYP ( 1  3  1  3 0 0)

     celldm(1)=  20.000000  celldm(2)=   0.000000  celldm(3)=   0.000000
     celldm(4)=   0.000000  celldm(5)=   0.000000  celldm(6)=   0.000000

     crystal axes: (cart. coord. in units of alat)
               a(1) = (   1.000000   0.000000   0.000000 )  
               a(2) = (   0.000000   1.000000   0.000000 )  
               a(3) = (   0.000000   0.000000   1.000000 )  

     reciprocal axes: (cart. coord. in units 2 pi/alat)
               b(1) = (  1.000000  0.000000  0.000000 )  
               b(2) = (  0.000000  1.000000  0.000000 )  
               b(3) = (  0.000000  0.000000  1.000000 )  


     PseudoPot. # 1 for  H read from file:
     ./H.blyp-hgh.UPF
     MD5 check sum: c576e69559cde411e611be972c763230
     Pseudo is Norm-conserving, Zval =  1.0
     Generated in analytical, separable form
     Using radial grid of  929 points,  0 beta functions with: 

     PseudoPot. # 2 for  O read from file:
     ./O.blyp-hgh.UPF
     MD5 check sum: d0b7156309aa9befef28faac7bc56342
     Pseudo is Norm-conserving, Zval =  6.0
     Generated in analytical, separable form
     Using radial grid of 1095 points,  1 beta functions with: 
                l(1) =   0

     atomic species   valence    mass     pseudopotential
        H              1.00     1.01000      H( 1.00)
        O              6.00    16.00000      O( 1.00)

     No symmetry found



   Cartesian axes

     site n.     atom                  positions (alat units)
         1           O   tau(   1) = (  -0.2703256  -0.0769849  -0.0374611  )
         2           O   tau(   2) = (   0.1404018  -0.1320329   0.3066552  )
         3           O   tau(   3) = (  -0.2806980   0.3275441  -0.2719936  )
         4           O   tau(   4) = (   0.0689458   0.1449175  -0.0518165  )
         5           O   tau(   5) = (  -0.2505828   0.0559771   0.1925636  )
         6           O   tau(   6) = (   0.0043525   0.3028563   0.2942084  )
         7           O   tau(   7) = (  -0.0676844  -0.2836396  -0.1274620  )
         8           O   tau(   8) = (   0.1570734   0.0634966   0.2336412  )
         9           O   tau(   9) = (  -0.1469543  -0.3307491   0.2776560  )
        10           O   tau(  10) = (   0.1017121  -0.1252061   0.1870175  )
        11           O   tau(  11) = (   0.1299165  -0.3312829   0.1189647  )
        12           O   tau(  12) = (  -0.1678344  -0.1807471   0.2253702  )
        13           O   tau(  13) = (  -0.2343029  -0.3539913   0.0141669  )
        14           O   tau(  14) = (  -0.1917597  -0.2235777  -0.1886797  )
        15           O   tau(  15) = (   0.1217813  -0.1924516  -0.0931991  )
        16           O   tau(  16) = (  -0.0904898   0.1569568  -0.0584936  )
        17           O   tau(  17) = (  -0.0659537  -0.1460157   0.0883393  )
        18           O   tau(  18) = (   0.0201214  -0.2423486   0.1761850  )
        19           O   tau(  19) = (   0.2213602  -0.2184083  -0.2366551  )
        20           O   tau(  20) = (   0.2415377   0.2333531   0.1107338  )
        21           O   tau(  21) = (   0.2643482  -0.1969007   0.1874548  )
        22           O   tau(  22) = (  -0.1202211  -0.1078833  -0.1561863  )
        23           O   tau(  23) = (  -0.0585323   0.1643855  -0.2241460  )
        24           O   tau(  24) = (   0.2192498   0.0853616   0.0867113  )
        25           O   tau(  25) = (   0.1444077   0.0683886  -0.1737218  )
        26           O   tau(  26) = (  -0.2274605   0.1648117  -0.2707896  )
        27           O   tau(  27) = (   0.2478522  -0.2843897   0.0002637  )
        28           O   tau(  28) = (   0.0401632  -0.0264426  -0.2955635  )
        29           O   tau(  29) = (  -0.1180194   0.0286844  -0.2586880  )
        30           O   tau(  30) = (   0.0376290  -0.0395347   0.0842456  )
        31           O   tau(  31) = (   0.2873038  -0.1091460  -0.1972038  )
        32           O   tau(  32) = (   0.2179571  -0.0101549  -0.0669343  )
        33           O   tau(  33) = (   0.0225503   0.2236371   0.1974667  )
        34           O   tau(  34) = (  -0.2239301   0.0217247  -0.1684370  )
        35           O   tau(  35) = (  -0.0001738  -0.1932809  -0.0398253  )
        36           O   tau(  36) = (   0.2620689   0.2111947  -0.3541408  )
        37           O   tau(  37) = (   0.1872902   0.3301030   0.2850449  )
        38           O   tau(  38) = (  -0.2776040   0.2801073  -0.1175112  )
        39           O   tau(  39) = (  -0.0004323   0.0536625  -0.1349528  )
        40           O   tau(  40) = (  -0.2084353  -0.2010086  -0.0511237  )
        41           O   tau(  41) = (  -0.1462941   0.2832015   0.1399840  )
        42           O   tau(  42) = (  -0.1380397   0.1619977   0.1981539  )
        43           O   tau(  43) = (  -0.0917511  -0.0851948  -0.0245226  )
        44           O   tau(  44) = (  -0.0757054  -0.0766403   0.2633119  )
        45           O   tau(  45) = (   0.0150477   0.1104269   0.2891011  )
        46           O   tau(  46) = (  -0.2289347   0.1547915   0.0741144  )
        47           O   tau(  47) = (   0.1842003   0.2468884  -0.0938955  )
        48           O   tau(  48) = (   0.0732795  -0.2862347  -0.1874380  )
        49           O   tau(  49) = (  -0.1412461   0.2268358  -0.1620336  )
        50           O   tau(  50) = (   0.2670849   0.0534540   0.3319567  )
        51           O   tau(  51) = (  -0.0739804   0.0414397   0.0986276  )
        52           O   tau(  52) = (   0.0028256  -0.0885244  -0.1837780  )
        53           O   tau(  53) = (   0.0129398  -0.1801351  -0.2846194  )
        54           O   tau(  54) = (   0.3550071  -0.3150458   0.1983820  )
        55           O   tau(  55) = (   0.1890327  -0.1423156   0.0597696  )
        56           O   tau(  56) = (   0.3010714  -0.0640734   0.1497319  )
        57           O   tau(  57) = (   0.0759216   0.1877377  -0.2092052  )
        58           O   tau(  58) = (  -0.0840456  -0.3688854   0.0339856  )
        59           O   tau(  59) = (  -0.2408993  -0.0739382  -0.3372124  )
        60           O   tau(  60) = (  -0.2181183   0.0762955  -0.0336356  )
        61           O   tau(  61) = (   0.2640052   0.1858423  -0.2085049  )
        62           O   tau(  62) = (   0.0753160  -0.0482892  -0.0708809  )
        63           O   tau(  63) = (  -0.2428742  -0.1880157   0.1160937  )
        64           O   tau(  64) = (   0.0856027   0.1527499   0.1025810  )
        65           H   tau(  65) = (  -0.2567577  -0.1246056  -0.0408517  )
        66           H   tau(  66) = (  -0.2376045  -0.0603655  -0.0696071  )
        67           H   tau(  67) = (   0.1196376  -0.1034542   0.3404612  )
        68           H   tau(  68) = (   0.1227242  -0.1114969   0.2650962  )
        69           H   tau(  69) = (  -0.2760016   0.2869086  -0.2452790  )
        70           H   tau(  70) = (  -0.2475983   0.3581100  -0.2496955  )
        71           H   tau(  71) = (   0.1148300   0.1391582  -0.0677832  )
        72           H   tau(  72) = (   0.0622643   0.1933779  -0.0513780  )
        73           H   tau(  73) = (  -0.2818046   0.0226715   0.2088232  )
        74           H   tau(  74) = (  -0.2143138   0.0451704   0.2233287  )
        75           H   tau(  75) = (   0.0147437   0.3481614   0.2793479  )
        76           H   tau(  76) = (   0.0006968   0.2982548   0.3426590  )
        77           H   tau(  77) = (  -0.0378480  -0.3056679  -0.0951586  )
        78           H   tau(  78) = (  -0.0410593  -0.2799051  -0.1685115  )
        79           H   tau(  79) = (   0.1806836   0.0929907   0.2036653  )
        80           H   tau(  80) = (   0.1277151   0.0368824   0.2045117  )
        81           H   tau(  81) = (  -0.1401568  -0.3710546   0.3036320  )
        82           H   tau(  82) = (  -0.1033964  -0.3185520   0.2579698  )
        83           H   tau(  83) = (   0.0817360  -0.0944501   0.1541245  )
        84           H   tau(  84) = (   0.1329186  -0.1459872   0.1552433  )
        85           H   tau(  85) = (   0.0857761  -0.3223052   0.1375074  )
        86           H   tau(  86) = (   0.1509256  -0.2888388   0.1065217  )
        87           H   tau(  87) = (  -0.1761920  -0.2289029   0.2328711  )
        88           H   tau(  88) = (  -0.1638186  -0.1882048   0.1774639  )
        89           H   tau(  89) = (  -0.2339458  -0.3877041   0.0492489  )
        90           H   tau(  90) = (  -0.2610350  -0.3688381  -0.0238567  )
        91           H   tau(  91) = (  -0.1564044  -0.1922134  -0.2008125  )
        92           H   tau(  92) = (  -0.1720637  -0.2596023  -0.1615964  )
        93           H   tau(  93) = (   0.1545410  -0.1733523  -0.1241004  )
        94           H   tau(  94) = (   0.0851838  -0.1621344  -0.0817233  )
        95           H   tau(  95) = (  -0.1291198   0.1794761  -0.0795094  )
        96           H   tau(  96) = (  -0.0851344   0.1620363  -0.0098936  )
        97           H   tau(  97) = (  -0.0874441  -0.1272365   0.0483886  )
        98           H   tau(  98) = (  -0.0348470  -0.1082180   0.0959264  )
        99           H   tau(  99) = (   0.0253562  -0.1934415   0.1801034  )
       100           H   tau( 100) = (  -0.0161595  -0.2477683   0.1432858  )
       101           H   tau( 101) = (   0.2655206  -0.2337036  -0.2552208  )
       102           H   tau( 102) = (   0.2019385  -0.1818044  -0.2646079  )
       103           H   tau( 103) = (   0.1943186   0.2486356   0.1146700  )
       104           H   tau( 104) = (   0.2614425   0.2532814   0.1498163  )
       105           H   tau( 105) = (   0.3018603  -0.1666387   0.1802292  )
       106           H   tau( 106) = (   0.2353699  -0.1724231   0.2179156  )
       107           H   tau( 107) = (  -0.0755545  -0.0906274  -0.1743631  )
       108           H   tau( 108) = (  -0.1552026  -0.0741085  -0.1620041  )
       109           H   tau( 109) = (  -0.0196780   0.1425727  -0.2040919  )
       110           H   tau( 110) = (  -0.0765410   0.1266656  -0.2488384  )
       111           H   tau( 111) = (   0.2489225   0.1242013   0.0853881  )
       112           H   tau( 112) = (   0.1746044   0.1054825   0.0936253  )
       113           H   tau( 113) = (   0.1124129   0.0394491  -0.1972776  )
       114           H   tau( 114) = (   0.1253047   0.1141240  -0.1770335  )
       115           H   tau( 115) = (  -0.2697842   0.1722133  -0.2947143  )
       116           H   tau( 116) = (  -0.2420242   0.1272609  -0.2429787  )
       117           H   tau( 117) = (   0.2585162  -0.3214974   0.0311609  )
       118           H   tau( 118) = (   0.2892022  -0.2772282  -0.0250092  )
       119           H   tau( 119) = (  -0.0077703  -0.0321851  -0.3068340  )
       120           H   tau( 120) = (   0.0492952   0.0147774  -0.3216577  )
       121           H   tau( 121) = (  -0.1418157   0.0019137  -0.2914558  )
       122           H   tau( 122) = (  -0.1533763   0.0347050  -0.2236072  )
       123           H   tau( 123) = (   0.0020304  -0.0050183   0.0880649  )
       124           H   tau( 124) = (   0.0398614  -0.0509051   0.0365928  )
       125           H   tau( 125) = (   0.2901689  -0.1561941  -0.2106495  )
       126           H   tau( 126) = (   0.3105364  -0.1081813  -0.1539439  )
       127           H   tau( 127) = (   0.2026485   0.0286017  -0.0407109  )
       128           H   tau( 128) = (   0.2586968  -0.0274668  -0.0429225  )
       129           H   tau( 129) = (   0.0229893   0.2476317   0.2422188  )
       130           H   tau( 130) = (  -0.0097013   0.1889426   0.2017505  )
       131           H   tau( 131) = (  -0.2380230   0.0413657  -0.1234031  )
       132           H   tau( 132) = (  -0.2634295  -0.0044300  -0.1813532  )
       133           H   tau( 133) = (  -0.0290890  -0.2216072  -0.0680390  )
       134           H   tau( 134) = (  -0.0204958  -0.1956429   0.0047040  )
       135           H   tau( 135) = (   0.2713640   0.2584580  -0.3627867  )
       136           H   tau( 136) = (   0.2769904   0.1828089  -0.3906490  )
       137           H   tau( 137) = (   0.1574089   0.3153881   0.2490400  )
       138           H   tau( 138) = (   0.1636887   0.3619715   0.3137262  )
       139           H   tau( 139) = (  -0.3209428   0.2552448  -0.1257188  )
       140           H   tau( 140) = (  -0.2498074   0.2574785  -0.1528554  )
       141           H   tau( 141) = (  -0.0467356   0.0618785  -0.1452727  )
       142           H   tau( 142) = (   0.0162857   0.0912943  -0.1071747  )
       143           H   tau( 143) = (  -0.1789519  -0.1861992  -0.0864475  )
       144           H   tau( 144) = (  -0.1884786  -0.2317481  -0.0180184  )
       145           H   tau( 145) = (  -0.1839358   0.2748120   0.1096286  )
       146           H   tau( 146) = (  -0.1674187   0.2825547   0.1852031  )
       147           H   tau( 147) = (  -0.1204425   0.2016418   0.1759432  )
       148           H   tau( 148) = (  -0.1861614   0.1695585   0.1953126  )
       149           H   tau( 149) = (  -0.1076824  -0.0916387  -0.0710802  )
       150           H   tau( 150) = (  -0.0893241  -0.0366314  -0.0232062  )
       151           H   tau( 151) = (  -0.0967484  -0.1061776   0.2300251  )
       152           H   tau( 152) = (  -0.0786807  -0.1051088   0.3030848  )
       153           H   tau( 153) = (   0.0292303   0.1425756   0.2548379  )
       154           H   tau( 154) = (  -0.0344259   0.1157304   0.2900428  )
       155           H   tau( 155) = (  -0.2536359   0.1352273   0.1119658  )
       156           H   tau( 156) = (  -0.1976016   0.1202320   0.0589163  )
       157           H   tau( 157) = (   0.2095090   0.2865090  -0.0777173  )
       158           H   tau( 158) = (   0.1893317   0.2433285  -0.1426799  )
       159           H   tau( 159) = (   0.0572336  -0.2610499  -0.2262615  )
       160           H   tau( 160) = (   0.0917688  -0.2540322  -0.1528174  )
       161           H   tau( 161) = (  -0.1663070   0.1911229  -0.1857630  )
       162           H   tau( 162) = (  -0.0964135   0.2181322  -0.1821624  )
       163           H   tau( 163) = (   0.2477102   0.0265831   0.3677164  )
       164           H   tau( 164) = (   0.2372371   0.0419019   0.2947181  )
       165           H   tau( 165) = (  -0.0817643   0.0172728   0.1414305  )
       166           H   tau( 166) = (  -0.0605755   0.0882162   0.1093847  )
       167           H   tau( 167) = (   0.0182646  -0.0681164  -0.1411304  )
       168           H   tau( 168) = (   0.0201393  -0.0605895  -0.2208601  )
       169           H   tau( 169) = (   0.0403420  -0.1491675  -0.2578606  )
       170           H   tau( 170) = (   0.0381630  -0.1843282  -0.3262774  )
       171           H   tau( 171) = (   0.3573756  -0.2924144   0.2419476  )
       172           H   tau( 172) = (   0.3532518  -0.2789767   0.1650440  )
       173           H   tau( 173) = (   0.2205991  -0.1787900   0.0522378  )
       174           H   tau( 174) = (   0.1716391  -0.1281934   0.0166892  )
       175           H   tau( 175) = (   0.2885477  -0.0297933   0.1163317  )
       176           H   tau( 176) = (   0.2599032  -0.0677212   0.1759292  )
       177           H   tau( 177) = (   0.0890618   0.1914755  -0.2559841  )
       178           H   tau( 178) = (   0.0748936   0.2363037  -0.1981041  )
       179           H   tau( 179) = (  -0.0919974  -0.3318272   0.0656924  )
       180           H   tau( 180) = (  -0.1175594  -0.3611238  -0.0008331  )
       181           H   tau( 181) = (  -0.2832520  -0.0914992  -0.3201272  )
       182           H   tau( 182) = (  -0.2257534  -0.1052310  -0.3712824  )
       183           H   tau( 183) = (  -0.1787544   0.1026258  -0.0498512  )
       184           H   tau( 184) = (  -0.2456586   0.1031483  -0.0027463  )
       185           H   tau( 185) = (   0.2837705   0.2099245  -0.2460453  )
       186           H   tau( 186) = (   0.2487204   0.1458128  -0.2342252  )
       187           H   tau( 187) = (   0.1214883  -0.0348172  -0.0847747  )
       188           H   tau( 188) = (   0.0522118  -0.0045431  -0.0728518  )
       189           H   tau( 189) = (  -0.2543477  -0.2081989   0.0720337  )
       190           H   tau( 190) = (  -0.2646071  -0.1438391   0.1122403  )
       191           H   tau( 191) = (   0.0640691   0.1681736   0.1437634  )
       192           H   tau( 192) = (   0.0523331   0.1428719   0.0691063  )

     number of k points=     1  Marzari-Vanderbilt smearing, width (Ry)=  0.0250
                       cart. coord. in units 2pi/alat
        k(    1) = (   0.0000000   0.0000000   0.0000000), wk =   2.0000000

     Dense  grid:   177509 G-vectors     FFT dimensions: (  72,  72,  72)

     Estimated max dynamical RAM per process >      67.80Mb

     Estimated total allocated dynamical RAM >    1898.40Mb

     Initial potential from superposition of free atoms
     Check: negative starting charge=   -0.722820

     starting charge  511.99856, renormalised to  512.00000

     negative rho (up, down):  7.228E-01 0.000E+00
     Starting wfc are  384 randomized atomic wfcs

     total cpu time spent up to now is        0.8 secs

     per-process dynamical memory:    45.9 Mb

     Self-consistent Calculation

     iteration #  1     ecut=    30.00 Ry     beta=0.70
     Davidson diagonalization with overlap
     ethr =  1.00E-02,  avg # of iterations =  8.0

     negative rho (up, down):  1.701E-01 0.000E+00

     total cpu time spent up to now is        9.1 secs

     total energy              =   -1798.87949437 Ry
     Harris-Foulkes estimate   =   -1826.04626530 Ry
     estimated scf accuracy    <      42.18055750 Ry

     iteration #  2     ecut=    30.00 Ry     beta=0.70
     Davidson diagonalization with overlap
     ethr =  8.24E-03,  avg # of iterations =  4.0

     negative rho (up, down):  1.867E-03 0.000E+00

     total cpu time spent up to now is       12.3 secs

     total energy              =   -1779.76920769 Ry
     Harris-Foulkes estimate   =   -1812.62712470 Ry
     estimated scf accuracy    <      72.75280962 Ry

     iteration #  3     ecut=    30.00 Ry     beta=0.70
     Davidson diagonalization with overlap
     ethr =  8.24E-03,  avg # of iterations =  4.0

     negative rho (up, down):  1.152E-05 0.000E+00

     total cpu time spent up to now is       15.5 secs

     total energy              =   -1801.03621780 Ry
     Harris-Foulkes estimate   =   -1813.99549233 Ry
     estimated scf accuracy    <      40.21700763 Ry

     iteration #  4     ecut=    30.00 Ry     beta=0.70
     Davidson diagonalization with overlap
     ethr =  7.85E-03,  avg # of iterations =  3.0

     total cpu time spent up to now is       17.3 secs

     total energy              =   -1806.62258957 Ry
     Harris-Foulkes estimate   =   -1808.70788312 Ry
     estimated scf accuracy    <       6.60804142 Ry

     iteration #  5     ecut=    30.00 Ry     beta=0.70
     Davidson diagonalization with overlap
     ethr =  1.29E-03,  avg # of iterations =  5.0

     total cpu time spent up to now is       19.8 secs

     total energy              =   -1806.45553934 Ry
     Harris-Foulkes estimate   =   -1807.05115495 Ry
     estimated scf accuracy    <       2.58163473 Ry

     iteration #  6     ecut=    30.00 Ry     beta=0.70
     Davidson diagonalization with overlap
     ethr =  5.04E-04,  avg # of iterations =  5.0

     total cpu time spent up to now is       22.1 secs

     total energy              =   -1806.22448478 Ry
     Harris-Foulkes estimate   =   -1806.54453089 Ry
     estimated scf accuracy    <       1.26215693 Ry

     iteration #  7     ecut=    30.00 Ry     beta=0.70
     Davidson diagonalization with overlap
     ethr =  2.47E-04,  avg # of iterations =  5.0

     total cpu time spent up to now is       24.5 secs

     total energy              =   -1806.15718094 Ry
     Harris-Foulkes estimate   =   -1806.27730741 Ry
     estimated scf accuracy    <       0.51131719 Ry

     iteration #  8     ecut=    30.00 Ry     beta=0.70
     Davidson diagonalization with overlap
     ethr =  9.99E-05,  avg # of iterations =  5.0

     total cpu time spent up to now is       26.9 secs

     total energy              =   -1806.14843950 Ry
     Harris-Foulkes estimate   =   -1806.23026193 Ry
     estimated scf accuracy    <       0.57386104 Ry

     iteration #  9     ecut=    30.00 Ry     beta=0.70
     Davidson diagonalization with overlap
     ethr =  9.99E-05,  avg # of iterations =  2.0

     total cpu time spent up to now is       28.3 secs

     total energy              =   -1806.15136947 Ry
     Harris-Foulkes estimate   =   -1806.19683523 Ry
     estimated scf accuracy    <       0.19068158 Ry

     iteration # 10     ecut=    30.00 Ry     beta=0.70
     Davidson diagonalization with overlap
     ethr =  3.72E-05,  avg # of iterations = 12.0

     total cpu time spent up to now is       32.8 secs

     total energy              =   -1806.14598949 Ry
     Harris-Foulkes estimate   =   -1806.17371653 Ry
     estimated scf accuracy    <       0.13046448 Ry

     iteration # 11     ecut=    30.00 Ry     beta=0.70
     Davidson diagonalization with overlap
     ethr =  2.55E-05,  avg # of iterations =  2.0

     total cpu time spent up to now is       34.2 secs

     total energy              =   -1806.14655540 Ry
     Harris-Foulkes estimate   =   -1806.16480465 Ry
     estimated scf accuracy    <       0.11516110 Ry

     iteration # 12     ecut=    30.00 Ry     beta=0.70
     Davidson diagonalization with overlap
     ethr =  2.25E-05,  avg # of iterations =  5.0

     total cpu time spent up to now is       36.5 secs

     total energy              =   -1806.13142254 Ry
     Harris-Foulkes estimate   =   -1806.16664805 Ry
     estimated scf accuracy    <       0.22834306 Ry

     iteration # 13     ecut=    30.00 Ry     beta=0.70
     Davidson diagonalization with overlap
     ethr =  2.25E-05,  avg # of iterations =  3.0

     total cpu time spent up to now is       38.2 secs

     total energy              =   -1806.14453051 Ry
     Harris-Foulkes estimate   =   -1806.15573082 Ry
     estimated scf accuracy    <       0.06198532 Ry

     iteration # 14     ecut=    30.00 Ry     beta=0.70
     Davidson diagonalization with overlap
     ethr =  1.21E-05,  avg # of iterations =  2.0

     total cpu time spent up to now is       39.6 secs

     total energy              =   -1806.15184372 Ry
     Harris-Foulkes estimate   =   -1806.15385124 Ry
     estimated scf accuracy    <       0.01825965 Ry

     iteration # 15     ecut=    30.00 Ry     beta=0.70
     Davidson diagonalization with overlap
     ethr =  3.57E-06,  avg # of iterations =  2.0

     total cpu time spent up to now is       41.0 secs

     total energy              =   -1806.15160973 Ry
     Harris-Foulkes estimate   =   -1806.15270484 Ry
     estimated scf accuracy    <       0.00977763 Ry

     iteration # 16     ecut=    30.00 Ry     beta=0.70
     Davidson diagonalization with overlap
     ethr =  1.91E-06,  avg # of iterations =  1.0

     total cpu time spent up to now is       42.1 secs

     total energy              =   -1806.15186326 Ry
     Harris-Foulkes estimate   =   -1806.15208895 Ry
     estimated scf accuracy    <       0.00179783 Ry

     iteration # 17     ecut=    30.00 Ry     beta=0.70
     Davidson diagonalization with overlap
     ethr =  3.51E-07,  avg # of iterations =  2.0

     total cpu time spent up to now is       43.5 secs

     total energy              =   -1806.15194176 Ry
     Harris-Foulkes estimate   =   -1806.15197674 Ry
     estimated scf accuracy    <       0.00030206 Ry

     iteration # 18     ecut=    30.00 Ry     beta=0.70
     Davidson diagonalization with overlap
     ethr =  5.90E-08,  avg # of iterations =  2.0

     total cpu time spent up to now is       44.9 secs

     total energy              =   -1806.15194745 Ry
     Harris-Foulkes estimate   =   -1806.15196006 Ry
     estimated scf accuracy    <       0.00009267 Ry

     iteration # 19     ecut=    30.00 Ry     beta=0.70
     Davidson diagonalization with overlap
     ethr =  1.81E-08,  avg # of iterations =  2.0

     total cpu time spent up to now is       46.3 secs

     total energy              =   -1806.15194346 Ry
     Harris-Foulkes estimate   =   -1806.15195967 Ry
     estimated scf accuracy    <       0.00010179 Ry

     iteration # 20     ecut=    30.00 Ry     beta=0.70
     Davidson diagonalization with overlap
     ethr =  1.81E-08,  avg # of iterations =  1.0

     total cpu time spent up to now is       47.4 secs

     total energy              =   -1806.15194895 Ry
     Harris-Foulkes estimate   =   -1806.15195977 Ry
     estimated scf accuracy    <       0.00010107 Ry

     iteration # 21     ecut=    30.00 Ry     beta=0.70
     Davidson diagonalization with overlap
     ethr =  1.81E-08,  avg # of iterations =  2.0

     total cpu time spent up to now is       48.8 secs

     total energy              =   -1806.15195335 Ry
     Harris-Foulkes estimate   =   -1806.15195475 Ry
     estimated scf accuracy    <       0.00000707 Ry

     iteration # 22     ecut=    30.00 Ry     beta=0.70
     Davidson diagonalization with overlap
     ethr =  1.38E-09,  avg # of iterations =  2.0

     total cpu time spent up to now is       50.2 secs

     total energy              =   -1806.15195395 Ry
     Harris-Foulkes estimate   =   -1806.15195479 Ry
     estimated scf accuracy    <       0.00000588 Ry

     iteration # 23     ecut=    30.00 Ry     beta=0.70
     Davidson diagonalization with overlap
     ethr =  1.15E-09,  avg # of iterations =  2.0

     total cpu time spent up to now is       51.7 secs

     total energy              =   -1806.15195438 Ry
     Harris-Foulkes estimate   =   -1806.15195442 Ry
     estimated scf accuracy    <       0.00000019 Ry

     iteration # 24     ecut=    30.00 Ry     beta=0.70
     Davidson diagonalization with overlap
     ethr =  3.69E-11,  avg # of iterations =  2.0

     total cpu time spent up to now is       53.1 secs

     total energy              =   -1806.15195443 Ry
     Harris-Foulkes estimate   =   -1806.15195441 Ry
     estimated scf accuracy    <       0.00000001 Ry

     iteration # 25     ecut=    30.00 Ry     beta=0.70
     Davidson diagonalization with overlap
     ethr =  2.67E-12,  avg # of iterations =  3.0

     total cpu time spent up to now is       55.1 secs

     End of self-consistent calculation

          k = 0.0000 0.0000 0.0000 ( 22119 PWs)   bands (ev):

   -41.2537 -40.3137 -39.2143 -38.7686 -37.9580 -37.6191 -36.6043 -36.1228
   -35.7422 -35.2664 -34.5793 -34.4801 -34.1554 -33.7419 -33.6223 -33.3345
   -33.0226 -32.7440 -32.5547 -32.2232 -31.9645 -31.5854 -31.3868 -31.1070
   -30.7853 -30.6622 -30.4011 -30.2345 -30.1344 -30.0843 -29.7578 -29.6375
   -29.5070 -29.3399 -29.1876 -29.0785 -28.9744 -28.8990 -28.6175 -28.2292
   -28.0375 -27.9493 -27.8667 -27.7426 -27.6599 -27.3532 -27.2041 -27.0321
   -26.9152 -26.5250 -26.3128 -26.1503 -26.0982 -25.9995 -25.9134 -25.7520
   -25.7332 -25.6313 -25.5779 -25.4076 -25.2900 -25.0558 -24.7970 -24.1257
   -22.2200 -21.5057 -21.1569 -20.9157 -20.8065 -19.9991 -19.6568 -19.4177
   -19.3116 -18.8490 -18.6085 -18.3682 -18.2292 -17.7947 -17.7397 -17.3503
   -17.0524 -16.8569 -16.7178 -16.6234 -16.5506 -16.3886 -16.1602 -16.1205
   -15.9648 -15.9193 -15.7905 -15.6260 -15.4272 -15.3141 -15.2565 -15.1353
   -15.0441 -14.8997 -14.7775 -14.5984 -14.4663 -14.3944 -14.3491 -14.2073
   -14.0963 -14.0339 -13.9266 -13.7974 -13.6207 -13.5594 -13.4124 -13.3072
   -13.2423 -13.1848 -13.0736 -12.8864 -12.7145 -12.5565 -12.3700 -12.2091
   -11.9002 -11.8883 -11.7576 -11.6080 -11.3239 -11.1838 -10.9000 -10.8491
   -10.6584 -10.3261  -9.5378  -9.1851  -8.9514  -8.8634  -8.6418  -8.3508
    -8.2416  -7.9870  -7.7991  -7.6418  -7.5419  -7.3505  -7.1114  -7.0814
    -6.9338  -6.8628  -6.7857  -6.6524  -6.5216  -6.3906  -6.0719  -5.9711
    -5.9330  -5.7560  -5.6487  -5.5993  -5.3469  -5.3137  -5.0736  -5.0129
    -4.8947  -4.7668  -4.6978  -4.5866  -4.5465  -4.4706  -4.4174  -4.3399
    -4.2487  -4.2325  -4.1587  -3.9521  -3.8684  -3.7891  -3.7247  -3.6694
    -3.5375  -3.4624  -3.3983  -3.3574  -3.2523  -3.1580  -3.0850  -3.0325
    -2.9447  -2.9011  -2.8435  -2.7248  -2.6922  -2.5159  -2.4513  -2.3155
    -2.1807  -2.1342  -2.1026  -1.9895  -1.9201  -1.8618  -1.7812  -1.6202
    -1.5250  -1.4452  -1.3862  -1.3204  -1.2513  -1.1207  -1.0055  -0.8029
    -0.7762  -0.7073  -0.5643  -0.4635  -0.3796  -0.1449  -0.0253   0.1016
     0.1354   0.1910   0.3475   0.4440   0.5548   0.6428   0.8426   0.9186
     1.0591   1.1276   1.1539   1.2706   1.4421   1.5734   1.6517   1.6992
     1.9058   2.0970   2.1454   2.2512   2.4285   2.5582   2.6149   2.7672
     2.8526   3.1033   3.1546   3.4089   3.6585   3.8642   4.0300   4.2392
     4.4492   4.5538   4.7851   4.9285   5.0655   5.1344   5.2024   5.3255
     5.5536   6.3039   6.4912   6.6222   6.7882   7.2534   7.3005   7.4199
     7.5228   7.6813   7.7486   7.9645   8.0560   8.4942   8.5842   8.6851
     8.7895   8.9144   8.9877   9.5222   9.6920   9.8207   9.9586  10.1573
    10.2071  10.2535  10.3885  10.4859  10.5391  10.6289  10.8005  10.8718
    11.0045  11.0157  11.1783  11.2370  11.3798  11.4792  11.4967  11.5743
    11.7169  11.8114  11.8428  11.8797  12.0237  12.0379  12.0887  12.1434
    12.1928  12.2994  12.3103

     the Fermi energy is     5.4507 ev

!    total energy              =   -1806.15195443 Ry
     Harris-Foulkes estimate   =   -1806.15195443 Ry
     estimated scf accuracy    <          1.8E-09 Ry

     The total energy is the sum of the following terms:

     one-electron contribution =  -13398.35042715 Ry
     hartree contribution      =    6874.47086259 Ry
     xc contribution           =    -633.76679327 Ry
     ewald contribution        =    5351.48113476 Ry
     smearing contrib. (-TS)   =       0.01326865 Ry

     convergence has been achieved in  25 iterations

     Writing output data file pwscf.save
 
     init_run     :      0.56s CPU      0.62s WALL (       1 calls)
     electrons    :     52.69s CPU     54.39s WALL (       1 calls)

     Called by init_run:
     wfcinit      :      0.47s CPU      0.52s WALL (       1 calls)
     potinit      :      0.02s CPU      0.02s WALL (       1 calls)

     Called by electrons:
     c_bands      :     50.24s CPU     51.63s WALL (      25 calls)
     sum_band     :      2.04s CPU      2.09s WALL (      25 calls)
     v_of_rho     :      0.19s CPU      0.21s WALL (      26 calls)
     mix_rho      :      0.15s CPU      0.28s WALL (      25 calls)

     Called by c_bands:
     init_us_2    :      0.06s CPU      0.07s WALL (      51 calls)
     cegterg      :     50.08s CPU     51.39s WALL (      25 calls)

     Called by sum_band:

     Called by *egterg:
     h_psi        :      9.16s CPU      9.36s WALL (     112 calls)
     g_psi        :      0.08s CPU      0.08s WALL (      86 calls)
     cdiaghg      :     31.19s CPU     31.23s WALL (     111 calls)

     Called by h_psi:
     h_psi:pot    :      8.92s CPU      9.12s WALL (     112 calls)
     h_psi:calbec :      0.34s CPU      0.34s WALL (     112 calls)
     vloc_psi     :      8.29s CPU      8.49s WALL (     112 calls)
     add_vuspsi   :      0.29s CPU      0.30s WALL (     112 calls)

     General routines
     calbec       :      0.34s CPU      0.34s WALL (     112 calls)
     fft          :      0.11s CPU      0.12s WALL (     285 calls)
     fftw         :      9.28s CPU      9.50s WALL (   42181 calls)
     davcio       :      0.02s CPU      0.14s WALL (     408 calls)
 
     Parallel routines
     fft_scatter  :      3.48s CPU      3.61s WALL (   42466 calls)
 
     PWSCF        :    53.39s CPU        55.42s WALL

 
   This run was terminated on:  21:15:35   2Feb2018            

=------------------------------------------------------------------------------=
   JOB DONE.
=------------------------------------------------------------------------------=
