
     Program PWSCF v.6.0 (svn rev. 13079) starts on  2Feb2018 at 21:28:23 

     This program is part of the open-source Quantum ESPRESSO suite
     for quantum simulation of materials; please cite
         "P. Giannozzi et al., J. Phys.:Condens. Matter 21 395502 (2009);
          URL http://www.quantum-espresso.org", 
     in publications or presentations arising from this work. More details at
     http://www.quantum-espresso.org/quote

     Parallel version (MPI), running on    28 processors
     R & G space division:  proc/nbgrp/npool/nimage =      28
     Reading input from input/scf-bigwater-1/1016.in
Warning: card &IONS ignored
Warning: card     POT_EXTRAPOLATION='SECOND-ORDER' ignored
Warning: card     WFC_EXTRAPOLATION='SECOND-ORDER' ignored
Warning: card     ION_TEMPERATURE = 'ANDERSEN' ignored
Warning: card     TEMPW = 1000 ignored
Warning: card / ignored

     Current dimensions of program PWSCF are:
     Max number of different atomic species (ntypx) = 10
     Max number of k-points (npk) =  40000
     Max angular momentum in pseudopotentials (lmaxx) =  3

     Subspace diagonalization in iterative solution of the eigenvalue problem:
     a serial algorithm will be used

 
     Parallelization info
     --------------------
     sticks:   dense  smooth     PW     G-vecs:    dense   smooth      PW
     Min         136     136     33                 6338     6338     787
     Max         137     137     34                 6341     6341     792
     Sum        3809    3809    949               177509   177509   22119
 


     bravais-lattice index     =            1
     lattice parameter (alat)  =      20.0000  a.u.
     unit-cell volume          =    8000.0000 (a.u.)^3
     number of atoms/cell      =          192
     number of atomic types    =            2
     number of electrons       =       512.00
     number of Kohn-Sham states=          307
     kinetic-energy cutoff     =      30.0000  Ry
     charge density cutoff     =     120.0000  Ry
     convergence threshold     =      1.0E-08
     mixing beta               =       0.7000
     number of iterations used =            8  plain     mixing
     Exchange-correlation      = BLYP ( 1  3  1  3 0 0)

     celldm(1)=  20.000000  celldm(2)=   0.000000  celldm(3)=   0.000000
     celldm(4)=   0.000000  celldm(5)=   0.000000  celldm(6)=   0.000000

     crystal axes: (cart. coord. in units of alat)
               a(1) = (   1.000000   0.000000   0.000000 )  
               a(2) = (   0.000000   1.000000   0.000000 )  
               a(3) = (   0.000000   0.000000   1.000000 )  

     reciprocal axes: (cart. coord. in units 2 pi/alat)
               b(1) = (  1.000000  0.000000  0.000000 )  
               b(2) = (  0.000000  1.000000  0.000000 )  
               b(3) = (  0.000000  0.000000  1.000000 )  


     PseudoPot. # 1 for  H read from file:
     ./H.blyp-hgh.UPF
     MD5 check sum: c576e69559cde411e611be972c763230
     Pseudo is Norm-conserving, Zval =  1.0
     Generated in analytical, separable form
     Using radial grid of  929 points,  0 beta functions with: 

     PseudoPot. # 2 for  O read from file:
     ./O.blyp-hgh.UPF
     MD5 check sum: d0b7156309aa9befef28faac7bc56342
     Pseudo is Norm-conserving, Zval =  6.0
     Generated in analytical, separable form
     Using radial grid of 1095 points,  1 beta functions with: 
                l(1) =   0

     atomic species   valence    mass     pseudopotential
        H              1.00     1.01000      H( 1.00)
        O              6.00    16.00000      O( 1.00)

     No symmetry found



   Cartesian axes

     site n.     atom                  positions (alat units)
         1           O   tau(   1) = (  -0.2717517  -0.0777174  -0.0357617  )
         2           O   tau(   2) = (   0.1420580  -0.1307555   0.3067594  )
         3           O   tau(   3) = (  -0.2818369   0.3286499  -0.2737040  )
         4           O   tau(   4) = (   0.0708562   0.1430046  -0.0520535  )
         5           O   tau(   5) = (  -0.2502356   0.0544493   0.1949172  )
         6           O   tau(   6) = (   0.0056862   0.3024267   0.2938306  )
         7           O   tau(   7) = (  -0.0685194  -0.2854886  -0.1275577  )
         8           O   tau(   8) = (   0.1578807   0.0644001   0.2345223  )
         9           O   tau(   9) = (  -0.1478980  -0.3317618   0.2765982  )
        10           O   tau(  10) = (   0.1004394  -0.1256025   0.1871056  )
        11           O   tau(  11) = (   0.1314132  -0.3312346   0.1180753  )
        12           O   tau(  12) = (  -0.1672686  -0.1808490   0.2272597  )
        13           O   tau(  13) = (  -0.2335838  -0.3535848   0.0120231  )
        14           O   tau(  14) = (  -0.1905725  -0.2215313  -0.1899388  )
        15           O   tau(  15) = (   0.1211905  -0.1945112  -0.0928360  )
        16           O   tau(  16) = (  -0.0891712   0.1567160  -0.0603851  )
        17           O   tau(  17) = (  -0.0648777  -0.1457275   0.0870344  )
        18           O   tau(  18) = (   0.0182387  -0.2424148   0.1764333  )
        19           O   tau(  19) = (   0.2202417  -0.2177834  -0.2351192  )
        20           O   tau(  20) = (   0.2391359   0.2326357   0.1102516  )
        21           O   tau(  21) = (   0.2643395  -0.1972800   0.1886053  )
        22           O   tau(  22) = (  -0.1204503  -0.1071832  -0.1557921  )
        23           O   tau(  23) = (  -0.0580049   0.1646508  -0.2246885  )
        24           O   tau(  24) = (   0.2195743   0.0851984   0.0844721  )
        25           O   tau(  25) = (   0.1450456   0.0696056  -0.1732411  )
        26           O   tau(  26) = (  -0.2280622   0.1661241  -0.2703723  )
        27           O   tau(  27) = (   0.2472805  -0.2839831   0.0022541  )
        28           O   tau(  28) = (   0.0392466  -0.0276840  -0.2959598  )
        29           O   tau(  29) = (  -0.1195545   0.0278972  -0.2586846  )
        30           O   tau(  30) = (   0.0359616  -0.0389246   0.0839604  )
        31           O   tau(  31) = (   0.2878309  -0.1088357  -0.1965669  )
        32           O   tau(  32) = (   0.2175325  -0.0103242  -0.0676801  )
        33           O   tau(  33) = (   0.0215458   0.2240705   0.1977322  )
        34           O   tau(  34) = (  -0.2250389   0.0206406  -0.1674576  )
        35           O   tau(  35) = (  -0.0004023  -0.1942323  -0.0397010  )
        36           O   tau(  36) = (   0.2627941   0.2105126  -0.3566617  )
        37           O   tau(  37) = (   0.1888799   0.3301885   0.2836199  )
        38           O   tau(  38) = (  -0.2785884   0.2821498  -0.1158967  )
        39           O   tau(  39) = (  -0.0006301   0.0541177  -0.1348152  )
        40           O   tau(  40) = (  -0.2099189  -0.2020866  -0.0507796  )
        41           O   tau(  41) = (  -0.1466223   0.2835727   0.1383206  )
        42           O   tau(  42) = (  -0.1393514   0.1605301   0.1963949  )
        43           O   tau(  43) = (  -0.0929334  -0.0830413  -0.0248177  )
        44           O   tau(  44) = (  -0.0769309  -0.0761627   0.2632115  )
        45           O   tau(  45) = (   0.0153928   0.1116921   0.2878015  )
        46           O   tau(  46) = (  -0.2277311   0.1546758   0.0751214  )
        47           O   tau(  47) = (   0.1843818   0.2483125  -0.0946456  )
        48           O   tau(  48) = (   0.0724739  -0.2858498  -0.1866333  )
        49           O   tau(  49) = (  -0.1405316   0.2272229  -0.1618606  )
        50           O   tau(  50) = (   0.2685159   0.0543705   0.3323846  )
        51           O   tau(  51) = (  -0.0727302   0.0412612   0.0994524  )
        52           O   tau(  52) = (   0.0037224  -0.0886867  -0.1831851  )
        53           O   tau(  53) = (   0.0128046  -0.1800648  -0.2838859  )
        54           O   tau(  54) = (   0.3568340  -0.3165958   0.1986687  )
        55           O   tau(  55) = (   0.1893995  -0.1425138   0.0596402  )
        56           O   tau(  56) = (   0.3013311  -0.0649547   0.1494651  )
        57           O   tau(  57) = (   0.0771826   0.1880761  -0.2081685  )
        58           O   tau(  58) = (  -0.0852333  -0.3697363   0.0363976  )
        59           O   tau(  59) = (  -0.2396879  -0.0728862  -0.3388574  )
        60           O   tau(  60) = (  -0.2180083   0.0754525  -0.0338879  )
        61           O   tau(  61) = (   0.2632518   0.1853895  -0.2106934  )
        62           O   tau(  62) = (   0.0747318  -0.0498148  -0.0696412  )
        63           O   tau(  63) = (  -0.2448706  -0.1896597   0.1171390  )
        64           O   tau(  64) = (   0.0858823   0.1514139   0.1035564  )
        65           H   tau(  65) = (  -0.2568276  -0.1248757  -0.0397330  )
        66           H   tau(  66) = (  -0.2377013  -0.0582309  -0.0657234  )
        67           H   tau(  67) = (   0.1182502  -0.1085350   0.3430411  )
        68           H   tau(  68) = (   0.1193363  -0.1118931   0.2666593  )
        69           H   tau(  69) = (  -0.2729441   0.2885546  -0.2467377  )
        70           H   tau(  70) = (  -0.2512469   0.3585472  -0.2469950  )
        71           H   tau(  71) = (   0.1170217   0.1436039  -0.0675205  )
        72           H   tau(  72) = (   0.0598669   0.1908495  -0.0497943  )
        73           H   tau(  73) = (  -0.2838347   0.0231757   0.2110727  )
        74           H   tau(  74) = (  -0.2139263   0.0444094   0.2247795  )
        75           H   tau(  75) = (   0.0172657   0.3472467   0.2800778  )
        76           H   tau(  76) = (   0.0012323   0.2944939   0.3412443  )
        77           H   tau(  77) = (  -0.0410213  -0.3103887  -0.0962899  )
        78           H   tau(  78) = (  -0.0438955  -0.2790381  -0.1692106  )
        79           H   tau(  79) = (   0.1831541   0.0916638   0.2023567  )
        80           H   tau(  80) = (   0.1345539   0.0329446   0.2043681  )
        81           H   tau(  81) = (  -0.1393601  -0.3709331   0.3051563  )
        82           H   tau(  82) = (  -0.1041753  -0.3166914   0.2608193  )
        83           H   tau(  83) = (   0.0783811  -0.0934477   0.1571034  )
        84           H   tau(  84) = (   0.1377212  -0.1440668   0.1582496  )
        85           H   tau(  85) = (   0.0879788  -0.3190884   0.1373053  )
        86           H   tau(  86) = (   0.1516031  -0.2892344   0.1031429  )
        87           H   tau(  87) = (  -0.1731329  -0.2289572   0.2333843  )
        88           H   tau(  88) = (  -0.1603146  -0.1847301   0.1780646  )
        89           H   tau(  89) = (  -0.2312825  -0.3889876   0.0459827  )
        90           H   tau(  90) = (  -0.2609307  -0.3667249  -0.0261791  )
        91           H   tau(  91) = (  -0.1559212  -0.1896012  -0.2011744  )
        92           H   tau(  92) = (  -0.1742192  -0.2584010  -0.1630184  )
        93           H   tau(  93) = (   0.1524033  -0.1738436  -0.1240176  )
        94           H   tau(  94) = (   0.0864189  -0.1612601  -0.0796913  )
        95           H   tau(  95) = (  -0.1288446   0.1802756  -0.0785662  )
        96           H   tau(  96) = (  -0.0868639   0.1643994  -0.0111379  )
        97           H   tau(  97) = (  -0.0872451  -0.1233424   0.0477875  )
        98           H   tau(  98) = (  -0.0342469  -0.1100056   0.0977604  )
        99           H   tau(  99) = (   0.0226104  -0.1939098   0.1807664  )
       100           H   tau( 100) = (  -0.0160983  -0.2490172   0.1428352  )
       101           H   tau( 101) = (   0.2636388  -0.2289032  -0.2562165  )
       102           H   tau( 102) = (   0.2048652  -0.1826758  -0.2674229  )
       103           H   tau( 103) = (   0.1924995   0.2480443   0.1175195  )
       104           H   tau( 104) = (   0.2639573   0.2542056   0.1471839  )
       105           H   tau( 105) = (   0.2993735  -0.1639872   0.1831015  )
       106           H   tau( 106) = (   0.2344208  -0.1750536   0.2202954  )
       107           H   tau( 107) = (  -0.0751745  -0.0890476  -0.1712188  )
       108           H   tau( 108) = (  -0.1548645  -0.0725885  -0.1596783  )
       109           H   tau( 109) = (  -0.0183062   0.1448282  -0.2024429  )
       110           H   tau( 110) = (  -0.0764930   0.1282976  -0.2525482  )
       111           H   tau( 111) = (   0.2514248   0.1223656   0.0846574  )
       112           H   tau( 112) = (   0.1768004   0.1088641   0.0916773  )
       113           H   tau( 113) = (   0.1120273   0.0398859  -0.1943874  )
       114           H   tau( 114) = (   0.1207970   0.1131482  -0.1779843  )
       115           H   tau( 115) = (  -0.2681043   0.1768407  -0.2964898  )
       116           H   tau( 116) = (  -0.2416680   0.1262193  -0.2456701  )
       117           H   tau( 117) = (   0.2596062  -0.3202572   0.0332049  )
       118           H   tau( 118) = (   0.2891557  -0.2747913  -0.0208391  )
       119           H   tau( 119) = (  -0.0079918  -0.0329961  -0.3091347  )
       120           H   tau( 120) = (   0.0522562   0.0110979  -0.3234301  )
       121           H   tau( 121) = (  -0.1430715   0.0005506  -0.2922747  )
       122           H   tau( 122) = (  -0.1560189   0.0425498  -0.2279590  )
       123           H   tau( 123) = (   0.0014225  -0.0036566   0.0882944  )
       124           H   tau( 124) = (   0.0398896  -0.0490934   0.0358445  )
       125           H   tau( 125) = (   0.2925225  -0.1559834  -0.2106324  )
       126           H   tau( 126) = (   0.3135904  -0.1102518  -0.1547070  )
       127           H   tau( 127) = (   0.2031493   0.0273819  -0.0404389  )
       128           H   tau( 128) = (   0.2599390  -0.0254595  -0.0468154  )
       129           H   tau( 129) = (   0.0236904   0.2461267   0.2420180  )
       130           H   tau( 130) = (  -0.0114351   0.1861592   0.2026898  )
       131           H   tau( 131) = (  -0.2320554   0.0318342  -0.1184842  )
       132           H   tau( 132) = (  -0.2640891  -0.0061057  -0.1800175  )
       133           H   tau( 133) = (  -0.0281753  -0.2188251  -0.0727784  )
       134           H   tau( 134) = (  -0.0237541  -0.1963547   0.0032606  )
       135           H   tau( 135) = (   0.2757489   0.2578710  -0.3632356  )
       136           H   tau( 136) = (   0.2769550   0.1865754  -0.3973023  )
       137           H   tau( 137) = (   0.1597855   0.3124191   0.2486710  )
       138           H   tau( 138) = (   0.1674593   0.3585650   0.3179509  )
       139           H   tau( 139) = (  -0.3167937   0.2513740  -0.1264479  )
       140           H   tau( 140) = (  -0.2517196   0.2592675  -0.1500796  )
       141           H   tau( 141) = (  -0.0473268   0.0648697  -0.1457544  )
       142           H   tau( 142) = (   0.0181759   0.0930328  -0.1101240  )
       143           H   tau( 143) = (  -0.1756604  -0.1890786  -0.0839927  )
       144           H   tau( 144) = (  -0.1883785  -0.2284654  -0.0156284  )
       145           H   tau( 145) = (  -0.1839745   0.2755995   0.1085853  )
       146           H   tau( 146) = (  -0.1660701   0.2822535   0.1840301  )
       147           H   tau( 147) = (  -0.1185458   0.2000379   0.1753918  )
       148           H   tau( 148) = (  -0.1867686   0.1730763   0.1961463  )
       149           H   tau( 149) = (  -0.1084813  -0.0908043  -0.0714584  )
       150           H   tau( 150) = (  -0.0898239  -0.0344142  -0.0205409  )
       151           H   tau( 151) = (  -0.0980159  -0.1055786   0.2300204  )
       152           H   tau( 152) = (  -0.0796956  -0.1066107   0.3014134  )
       153           H   tau( 153) = (   0.0261844   0.1446179   0.2543579  )
       154           H   tau( 154) = (  -0.0318815   0.1198726   0.2876493  )
       155           H   tau( 155) = (  -0.2514294   0.1348547   0.1131527  )
       156           H   tau( 156) = (  -0.1980465   0.1191067   0.0598450  )
       157           H   tau( 157) = (   0.2077712   0.2870852  -0.0753022  )
       158           H   tau( 158) = (   0.1884078   0.2448564  -0.1431084  )
       159           H   tau( 159) = (   0.0523269  -0.2578670  -0.2212922  )
       160           H   tau( 160) = (   0.0926658  -0.2557776  -0.1519740  )
       161           H   tau( 161) = (  -0.1705322   0.1952226  -0.1842852  )
       162           H   tau( 162) = (  -0.0989992   0.2189944  -0.1869206  )
       163           H   tau( 163) = (   0.2505610   0.0266672   0.3679713  )
       164           H   tau( 164) = (   0.2390221   0.0410668   0.2944107  )
       165           H   tau( 165) = (  -0.0874431   0.0226822   0.1432401  )
       166           H   tau( 166) = (  -0.0547581   0.0881086   0.1034980  )
       167           H   tau( 167) = (   0.0173907  -0.0644523  -0.1419312  )
       168           H   tau( 168) = (   0.0195533  -0.0610845  -0.2202102  )
       169           H   tau( 169) = (   0.0426341  -0.1547301  -0.2548604  )
       170           H   tau( 170) = (   0.0356168  -0.1838165  -0.3262873  )
       171           H   tau( 171) = (   0.3570066  -0.2957072   0.2428713  )
       172           H   tau( 172) = (   0.3530668  -0.2810833   0.1658437  )
       173           H   tau( 173) = (   0.2214904  -0.1783090   0.0541379  )
       174           H   tau( 174) = (   0.1721250  -0.1263830   0.0170833  )
       175           H   tau( 175) = (   0.2928927  -0.0291461   0.1171860  )
       176           H   tau( 176) = (   0.2601440  -0.0696577   0.1749773  )
       177           H   tau( 177) = (   0.0883047   0.1919162  -0.2553499  )
       178           H   tau( 178) = (   0.0734561   0.2363203  -0.2008569  )
       179           H   tau( 179) = (  -0.0852144  -0.3317722   0.0676856  )
       180           H   tau( 180) = (  -0.1166888  -0.3568231   0.0009572  )
       181           H   tau( 181) = (  -0.2820183  -0.0910057  -0.3229211  )
       182           H   tau( 182) = (  -0.2228236  -0.1062602  -0.3710266  )
       183           H   tau( 183) = (  -0.1853297   0.1098823  -0.0501719  )
       184           H   tau( 184) = (  -0.2495613   0.1001674  -0.0054278  )
       185           H   tau( 185) = (   0.2798284   0.2127124  -0.2477864  )
       186           H   tau( 186) = (   0.2509490   0.1461472  -0.2380959  )
       187           H   tau( 187) = (   0.1214672  -0.0383882  -0.0827092  )
       188           H   tau( 188) = (   0.0522379  -0.0059539  -0.0747756  )
       189           H   tau( 189) = (  -0.2452329  -0.2079225   0.0710082  )
       190           H   tau( 190) = (  -0.2667580  -0.1461168   0.1090591  )
       191           H   tau( 191) = (   0.0663323   0.1734251   0.1429172  )
       192           H   tau( 192) = (   0.0519028   0.1427833   0.0704228  )

     number of k points=     1  Marzari-Vanderbilt smearing, width (Ry)=  0.0250
                       cart. coord. in units 2pi/alat
        k(    1) = (   0.0000000   0.0000000   0.0000000), wk =   2.0000000

     Dense  grid:   177509 G-vectors     FFT dimensions: (  72,  72,  72)

     Estimated max dynamical RAM per process >      67.80Mb

     Estimated total allocated dynamical RAM >    1898.40Mb

     Initial potential from superposition of free atoms
     Check: negative starting charge=   -0.714202

     starting charge  511.99856, renormalised to  512.00000

     negative rho (up, down):  7.142E-01 0.000E+00
     Starting wfc are  384 randomized atomic wfcs

     total cpu time spent up to now is        0.8 secs

     per-process dynamical memory:    45.9 Mb

     Self-consistent Calculation

     iteration #  1     ecut=    30.00 Ry     beta=0.70
     Davidson diagonalization with overlap
     ethr =  1.00E-02,  avg # of iterations =  8.0

     negative rho (up, down):  1.684E-01 0.000E+00

     total cpu time spent up to now is        9.2 secs

     total energy              =   -1798.69445244 Ry
     Harris-Foulkes estimate   =   -1825.80450517 Ry
     estimated scf accuracy    <      42.21203584 Ry

     iteration #  2     ecut=    30.00 Ry     beta=0.70
     Davidson diagonalization with overlap
     ethr =  8.24E-03,  avg # of iterations =  4.0

     negative rho (up, down):  1.795E-03 0.000E+00

     total cpu time spent up to now is       12.3 secs

     total energy              =   -1778.48910681 Ry
     Harris-Foulkes estimate   =   -1812.45601262 Ry
     estimated scf accuracy    <      76.63308639 Ry

     iteration #  3     ecut=    30.00 Ry     beta=0.70
     Davidson diagonalization with overlap
     ethr =  8.24E-03,  avg # of iterations =  5.0

     negative rho (up, down):  1.802E-05 0.000E+00

     total cpu time spent up to now is       16.1 secs

     total energy              =   -1800.91148447 Ry
     Harris-Foulkes estimate   =   -1813.98388550 Ry
     estimated scf accuracy    <      40.41530946 Ry

     iteration #  4     ecut=    30.00 Ry     beta=0.70
     Davidson diagonalization with overlap
     ethr =  7.89E-03,  avg # of iterations =  3.0

     total cpu time spent up to now is       17.9 secs

     total energy              =   -1806.53185478 Ry
     Harris-Foulkes estimate   =   -1808.66740366 Ry
     estimated scf accuracy    <       6.83099591 Ry

     iteration #  5     ecut=    30.00 Ry     beta=0.70
     Davidson diagonalization with overlap
     ethr =  1.33E-03,  avg # of iterations =  5.0

     total cpu time spent up to now is       20.4 secs

     total energy              =   -1806.20136101 Ry
     Harris-Foulkes estimate   =   -1806.91507798 Ry
     estimated scf accuracy    <       2.72868699 Ry

     iteration #  6     ecut=    30.00 Ry     beta=0.70
     Davidson diagonalization with overlap
     ethr =  5.33E-04,  avg # of iterations =  6.0

     total cpu time spent up to now is       23.2 secs

     total energy              =   -1805.98575914 Ry
     Harris-Foulkes estimate   =   -1806.31113614 Ry
     estimated scf accuracy    <       1.09344724 Ry

     iteration #  7     ecut=    30.00 Ry     beta=0.70
     Davidson diagonalization with overlap
     ethr =  2.14E-04,  avg # of iterations =  8.0

     total cpu time spent up to now is       26.7 secs

     total energy              =   -1806.02885191 Ry
     Harris-Foulkes estimate   =   -1806.07216405 Ry
     estimated scf accuracy    <       0.71412251 Ry

     iteration #  8     ecut=    30.00 Ry     beta=0.70
     Davidson diagonalization with overlap
     ethr =  1.39E-04,  avg # of iterations =  1.0

     total cpu time spent up to now is       27.8 secs

     total energy              =   -1805.97553472 Ry
     Harris-Foulkes estimate   =   -1806.04862336 Ry
     estimated scf accuracy    <       0.29320262 Ry

     iteration #  9     ecut=    30.00 Ry     beta=0.70
     Davidson diagonalization with overlap
     ethr =  5.73E-05,  avg # of iterations =  7.0

     total cpu time spent up to now is       30.9 secs

     total energy              =   -1805.96430071 Ry
     Harris-Foulkes estimate   =   -1806.01846727 Ry
     estimated scf accuracy    <       0.38651249 Ry

     iteration # 10     ecut=    30.00 Ry     beta=0.70
     Davidson diagonalization with overlap
     ethr =  5.73E-05,  avg # of iterations =  2.0

     total cpu time spent up to now is       32.4 secs

     total energy              =   -1805.96808704 Ry
     Harris-Foulkes estimate   =   -1806.00177828 Ry
     estimated scf accuracy    <       0.20761380 Ry

     iteration # 11     ecut=    30.00 Ry     beta=0.70
     Davidson diagonalization with overlap
     ethr =  4.05E-05,  avg # of iterations =  2.0

     total cpu time spent up to now is       33.8 secs

     total energy              =   -1805.97023050 Ry
     Harris-Foulkes estimate   =   -1805.98783579 Ry
     estimated scf accuracy    <       0.05166442 Ry

     iteration # 12     ecut=    30.00 Ry     beta=0.70
     Davidson diagonalization with overlap
     ethr =  1.01E-05,  avg # of iterations =  8.0

     total cpu time spent up to now is       37.8 secs

     total energy              =   -1805.96748132 Ry
     Harris-Foulkes estimate   =   -1805.98552167 Ry
     estimated scf accuracy    <       0.08274298 Ry

     iteration # 13     ecut=    30.00 Ry     beta=0.70
     Davidson diagonalization with overlap
     ethr =  1.01E-05,  avg # of iterations =  5.0

     total cpu time spent up to now is       40.3 secs

     total energy              =   -1805.97839748 Ry
     Harris-Foulkes estimate   =   -1805.98723489 Ry
     estimated scf accuracy    <       0.06737826 Ry

     iteration # 14     ecut=    30.00 Ry     beta=0.70
     Davidson diagonalization with overlap
     ethr =  1.01E-05,  avg # of iterations =  2.0

     total cpu time spent up to now is       41.7 secs

     total energy              =   -1805.97792234 Ry
     Harris-Foulkes estimate   =   -1805.98189526 Ry
     estimated scf accuracy    <       0.02850918 Ry

     iteration # 15     ecut=    30.00 Ry     beta=0.70
     Davidson diagonalization with overlap
     ethr =  5.57E-06,  avg # of iterations =  3.0

     total cpu time spent up to now is       43.4 secs

     total energy              =   -1805.97857054 Ry
     Harris-Foulkes estimate   =   -1805.97920942 Ry
     estimated scf accuracy    <       0.00747552 Ry

     iteration # 16     ecut=    30.00 Ry     beta=0.70
     Davidson diagonalization with overlap
     ethr =  1.46E-06,  avg # of iterations =  4.0

     total cpu time spent up to now is       45.4 secs

     total energy              =   -1805.97818036 Ry
     Harris-Foulkes estimate   =   -1805.97885109 Ry
     estimated scf accuracy    <       0.00233163 Ry

     iteration # 17     ecut=    30.00 Ry     beta=0.70
     Davidson diagonalization with overlap
     ethr =  4.55E-07,  avg # of iterations =  7.0

     total cpu time spent up to now is       48.5 secs

     total energy              =   -1805.97846858 Ry
     Harris-Foulkes estimate   =   -1805.97870422 Ry
     estimated scf accuracy    <       0.00141681 Ry

     iteration # 18     ecut=    30.00 Ry     beta=0.70
     Davidson diagonalization with overlap
     ethr =  2.77E-07,  avg # of iterations =  2.0

     total cpu time spent up to now is       49.9 secs

     total energy              =   -1805.97855760 Ry
     Harris-Foulkes estimate   =   -1805.97860133 Ry
     estimated scf accuracy    <       0.00022986 Ry

     iteration # 19     ecut=    30.00 Ry     beta=0.70
     Davidson diagonalization with overlap
     ethr =  4.49E-08,  avg # of iterations =  2.0

     total cpu time spent up to now is       51.3 secs

     total energy              =   -1805.97858005 Ry
     Harris-Foulkes estimate   =   -1805.97858466 Ry
     estimated scf accuracy    <       0.00002632 Ry

     iteration # 20     ecut=    30.00 Ry     beta=0.70
     Davidson diagonalization with overlap
     ethr =  5.14E-09,  avg # of iterations =  2.0

     total cpu time spent up to now is       52.8 secs

     total energy              =   -1805.97858269 Ry
     Harris-Foulkes estimate   =   -1805.97858307 Ry
     estimated scf accuracy    <       0.00000395 Ry

     iteration # 21     ecut=    30.00 Ry     beta=0.70
     Davidson diagonalization with overlap
     ethr =  7.72E-10,  avg # of iterations =  3.0

     total cpu time spent up to now is       54.5 secs

     total energy              =   -1805.97858308 Ry
     Harris-Foulkes estimate   =   -1805.97858309 Ry
     estimated scf accuracy    <       0.00000020 Ry

     iteration # 22     ecut=    30.00 Ry     beta=0.70
     Davidson diagonalization with overlap
     ethr =  3.83E-11,  avg # of iterations =  3.0

     total cpu time spent up to now is       56.4 secs

     total energy              =   -1805.97858311 Ry
     Harris-Foulkes estimate   =   -1805.97858313 Ry
     estimated scf accuracy    <       0.00000013 Ry

     iteration # 23     ecut=    30.00 Ry     beta=0.70
     Davidson diagonalization with overlap
     ethr =  2.59E-11,  avg # of iterations =  3.0

     total cpu time spent up to now is       58.1 secs

     total energy              =   -1805.97858313 Ry
     Harris-Foulkes estimate   =   -1805.97858314 Ry
     estimated scf accuracy    <       0.00000021 Ry

     iteration # 24     ecut=    30.00 Ry     beta=0.70
     Davidson diagonalization with overlap
     ethr =  2.59E-11,  avg # of iterations =  2.0

     total cpu time spent up to now is       59.6 secs

     total energy              =   -1805.97858313 Ry
     Harris-Foulkes estimate   =   -1805.97858314 Ry
     estimated scf accuracy    <       0.00000001 Ry

     iteration # 25     ecut=    30.00 Ry     beta=0.70
     Davidson diagonalization with overlap
     ethr =  2.86E-12,  avg # of iterations =  2.0

     total cpu time spent up to now is       61.1 secs

     total energy              =   -1805.97858312 Ry
     Harris-Foulkes estimate   =   -1805.97858314 Ry
     estimated scf accuracy    <       0.00000005 Ry

     iteration # 26     ecut=    30.00 Ry     beta=0.70
     Davidson diagonalization with overlap
     ethr =  2.86E-12,  avg # of iterations =  2.0

     total cpu time spent up to now is       62.5 secs

     End of self-consistent calculation

          k = 0.0000 0.0000 0.0000 ( 22119 PWs)   bands (ev):

   -41.1554 -40.1781 -39.8228 -38.6539 -37.8892 -37.5353 -36.5859 -35.9667
   -35.6232 -35.0939 -34.4496 -34.3227 -34.1937 -33.9452 -33.6168 -33.2837
   -32.9939 -32.7150 -32.5867 -32.2976 -32.0733 -31.7716 -31.6171 -31.0004
   -30.9010 -30.6968 -30.5342 -30.2873 -30.1063 -30.0036 -29.6623 -29.6302
   -29.4754 -29.3891 -29.2314 -29.1118 -29.0058 -28.7814 -28.5208 -28.2821
   -28.0364 -27.8360 -27.8110 -27.5926 -27.5338 -27.2919 -27.0526 -27.0172
   -26.9620 -26.8569 -26.4583 -26.1316 -26.0965 -26.0220 -25.8467 -25.7956
   -25.7946 -25.7089 -25.6361 -25.4545 -25.3940 -25.1789 -24.8897 -24.2366
   -22.0541 -21.4424 -21.0582 -20.7797 -20.7325 -19.9644 -19.5975 -19.5262
   -19.2542 -18.8833 -18.6897 -18.4586 -18.2172 -17.8729 -17.8055 -17.3897
   -17.1381 -17.1177 -16.7868 -16.7057 -16.6386 -16.4769 -16.2630 -16.1879
   -16.0876 -16.0207 -15.8811 -15.7505 -15.5786 -15.4054 -15.2797 -15.1252
   -14.9929 -14.8103 -14.7216 -14.6272 -14.4698 -14.3204 -14.2869 -14.2219
   -14.2077 -14.0280 -13.8939 -13.7416 -13.6967 -13.5395 -13.4950 -13.3877
   -13.1310 -13.0951 -12.9876 -12.8061 -12.6204 -12.4522 -12.4186 -12.1284
   -12.0907 -11.6087 -11.5891 -11.3427 -11.2729 -10.9249 -10.7651 -10.6638
   -10.5329 -10.1727  -9.4147  -9.1891  -8.9547  -8.7681  -8.5891  -8.4537
    -8.2589  -8.0160  -7.7579  -7.6025  -7.5855  -7.4405  -7.2325  -7.0788
    -7.0148  -6.9150  -6.8016  -6.7173  -6.6486  -6.4670  -6.1981  -5.9396
    -5.9071  -5.7677  -5.7451  -5.5316  -5.3862  -5.2623  -5.1889  -5.0289
    -4.9315  -4.7741  -4.7318  -4.6388  -4.5916  -4.5243  -4.4250  -4.3294
    -4.3065  -4.2131  -4.1819  -4.0096  -3.8419  -3.8050  -3.7632  -3.6836
    -3.6436  -3.5146  -3.4142  -3.3292  -3.2920  -3.1374  -3.1036  -3.0517
    -3.0150  -2.9334  -2.8729  -2.7498  -2.6768  -2.4461  -2.3931  -2.3264
    -2.3153  -2.2305  -2.1705  -2.0875  -1.9267  -1.8747  -1.8417  -1.6470
    -1.5846  -1.5195  -1.4570  -1.3880  -1.1822  -1.1377  -0.9504  -0.7564
    -0.7280  -0.6590  -0.5785  -0.4997  -0.4090  -0.1136  -0.0818  -0.0242
     0.1430   0.2537   0.3129   0.4650   0.4797   0.6684   0.7394   0.8684
     0.9611   1.0541   1.1832   1.2922   1.4071   1.5019   1.6315   1.6734
     1.9561   2.1453   2.3409   2.3660   2.5114   2.5999   2.6365   2.7695
     2.8701   3.0049   3.0316   3.2892   3.6455   3.7612   3.9637   4.2104
     4.4037   4.6559   4.7945   4.9411   5.0640   5.1262   5.2033   5.3360
     5.5494   6.3089   6.4914   6.5817   6.8314   7.2642   7.3064   7.4145
     7.4747   7.7064   7.7512   7.9849   8.0877   8.4778   8.5955   8.6850
     8.8157   8.9332   8.9860   9.5258   9.6690   9.7990   9.9423  10.1505
    10.2212  10.2422  10.3923  10.4876  10.5269  10.6166  10.7977  10.8791
    10.9892  11.0107  11.1858  11.1984  11.3925  11.4504  11.5464  11.5806
    11.7140  11.8017  11.8295  11.8808  12.0090  12.0438  12.0720  12.1533
    12.2152  12.2715  12.3271

     the Fermi energy is     5.4499 ev

!    total energy              =   -1805.97858312 Ry
     Harris-Foulkes estimate   =   -1805.97858312 Ry
     estimated scf accuracy    <          8.3E-10 Ry

     The total energy is the sum of the following terms:

     one-electron contribution =  -13363.21375525 Ry
     hartree contribution      =    6856.68463553 Ry
     xc contribution           =    -633.69233888 Ry
     ewald contribution        =    5334.22820734 Ry
     smearing contrib. (-TS)   =       0.01466814 Ry

     convergence has been achieved in  26 iterations

     Writing output data file pwscf.save
 
     init_run     :      0.57s CPU      0.65s WALL (       1 calls)
     electrons    :     60.09s CPU     61.79s WALL (       1 calls)

     Called by init_run:
     wfcinit      :      0.47s CPU      0.55s WALL (       1 calls)
     potinit      :      0.02s CPU      0.02s WALL (       1 calls)

     Called by electrons:
     c_bands      :     57.50s CPU     58.89s WALL (      26 calls)
     sum_band     :      2.13s CPU      2.17s WALL (      26 calls)
     v_of_rho     :      0.21s CPU      0.22s WALL (      27 calls)
     mix_rho      :      0.17s CPU      0.30s WALL (      26 calls)

     Called by c_bands:
     init_us_2    :      0.06s CPU      0.07s WALL (      53 calls)
     cegterg      :     57.36s CPU     58.66s WALL (      26 calls)

     Called by sum_band:

     Called by *egterg:
     h_psi        :      9.70s CPU      9.90s WALL (     128 calls)
     g_psi        :      0.08s CPU      0.08s WALL (     101 calls)
     cdiaghg      :     36.74s CPU     36.78s WALL (     127 calls)

     Called by h_psi:
     h_psi:pot    :      9.46s CPU      9.66s WALL (     128 calls)
     h_psi:calbec :      0.36s CPU      0.36s WALL (     128 calls)
     vloc_psi     :      8.79s CPU      8.98s WALL (     128 calls)
     add_vuspsi   :      0.31s CPU      0.32s WALL (     128 calls)

     General routines
     calbec       :      0.36s CPU      0.36s WALL (     128 calls)
     fft          :      0.12s CPU      0.12s WALL (     296 calls)
     fftw         :      9.79s CPU     10.01s WALL (   44236 calls)
     davcio       :      0.02s CPU      0.15s WALL (     428 calls)
 
     Parallel routines
     fft_scatter  :      3.67s CPU      3.78s WALL (   44532 calls)
 
     PWSCF        :  1m 0.82s CPU     1m 2.92s WALL

 
   This run was terminated on:  21:29:26   2Feb2018            

=------------------------------------------------------------------------------=
   JOB DONE.
=------------------------------------------------------------------------------=
