
     Program PWSCF v.6.0 (svn rev. 13079) starts on  2Feb2018 at 22: 3:15 

     This program is part of the open-source Quantum ESPRESSO suite
     for quantum simulation of materials; please cite
         "P. Giannozzi et al., J. Phys.:Condens. Matter 21 395502 (2009);
          URL http://www.quantum-espresso.org", 
     in publications or presentations arising from this work. More details at
     http://www.quantum-espresso.org/quote

     Parallel version (MPI), running on    28 processors
     R & G space division:  proc/nbgrp/npool/nimage =      28
     Reading input from input/scf-bigwater-1/1051.in
Warning: card &IONS ignored
Warning: card     POT_EXTRAPOLATION='SECOND-ORDER' ignored
Warning: card     WFC_EXTRAPOLATION='SECOND-ORDER' ignored
Warning: card     ION_TEMPERATURE = 'ANDERSEN' ignored
Warning: card     TEMPW = 1000 ignored
Warning: card / ignored

     Current dimensions of program PWSCF are:
     Max number of different atomic species (ntypx) = 10
     Max number of k-points (npk) =  40000
     Max angular momentum in pseudopotentials (lmaxx) =  3

     Subspace diagonalization in iterative solution of the eigenvalue problem:
     a serial algorithm will be used

 
     Parallelization info
     --------------------
     sticks:   dense  smooth     PW     G-vecs:    dense   smooth      PW
     Min         136     136     33                 6338     6338     787
     Max         137     137     34                 6341     6341     792
     Sum        3809    3809    949               177509   177509   22119
 


     bravais-lattice index     =            1
     lattice parameter (alat)  =      20.0000  a.u.
     unit-cell volume          =    8000.0000 (a.u.)^3
     number of atoms/cell      =          192
     number of atomic types    =            2
     number of electrons       =       512.00
     number of Kohn-Sham states=          307
     kinetic-energy cutoff     =      30.0000  Ry
     charge density cutoff     =     120.0000  Ry
     convergence threshold     =      1.0E-08
     mixing beta               =       0.7000
     number of iterations used =            8  plain     mixing
     Exchange-correlation      = BLYP ( 1  3  1  3 0 0)

     celldm(1)=  20.000000  celldm(2)=   0.000000  celldm(3)=   0.000000
     celldm(4)=   0.000000  celldm(5)=   0.000000  celldm(6)=   0.000000

     crystal axes: (cart. coord. in units of alat)
               a(1) = (   1.000000   0.000000   0.000000 )  
               a(2) = (   0.000000   1.000000   0.000000 )  
               a(3) = (   0.000000   0.000000   1.000000 )  

     reciprocal axes: (cart. coord. in units 2 pi/alat)
               b(1) = (  1.000000  0.000000  0.000000 )  
               b(2) = (  0.000000  1.000000  0.000000 )  
               b(3) = (  0.000000  0.000000  1.000000 )  


     PseudoPot. # 1 for  H read from file:
     ./H.blyp-hgh.UPF
     MD5 check sum: c576e69559cde411e611be972c763230
     Pseudo is Norm-conserving, Zval =  1.0
     Generated in analytical, separable form
     Using radial grid of  929 points,  0 beta functions with: 

     PseudoPot. # 2 for  O read from file:
     ./O.blyp-hgh.UPF
     MD5 check sum: d0b7156309aa9befef28faac7bc56342
     Pseudo is Norm-conserving, Zval =  6.0
     Generated in analytical, separable form
     Using radial grid of 1095 points,  1 beta functions with: 
                l(1) =   0

     atomic species   valence    mass     pseudopotential
        H              1.00     1.01000      H( 1.00)
        O              6.00    16.00000      O( 1.00)

     No symmetry found



   Cartesian axes

     site n.     atom                  positions (alat units)
         1           O   tau(   1) = (  -0.2749601  -0.0797086  -0.0325063  )
         2           O   tau(   2) = (   0.1460965  -0.1271970   0.3077604  )
         3           O   tau(   3) = (  -0.2836594   0.3318743  -0.2767686  )
         4           O   tau(   4) = (   0.0757312   0.1387374  -0.0527867  )
         5           O   tau(   5) = (  -0.2497339   0.0513138   0.2004163  )
         6           O   tau(   6) = (   0.0084643   0.2999604   0.2927459  )
         7           O   tau(   7) = (  -0.0713671  -0.2891177  -0.1272651  )
         8           O   tau(   8) = (   0.1602324   0.0660280   0.2355876  )
         9           O   tau(   9) = (  -0.1495528  -0.3341012   0.2741648  )
        10           O   tau(  10) = (   0.0975094  -0.1265111   0.1862425  )
        11           O   tau(  11) = (   0.1337963  -0.3294305   0.1160239  )
        12           O   tau(  12) = (  -0.1649266  -0.1815401   0.2304219  )
        13           O   tau(  13) = (  -0.2310802  -0.3515853   0.0072818  )
        14           O   tau(  14) = (  -0.1891287  -0.2167044  -0.1938918  )
        15           O   tau(  15) = (   0.1199830  -0.1993718  -0.0923926  )
        16           O   tau(  16) = (  -0.0867021   0.1553482  -0.0641988  )
        17           O   tau(  17) = (  -0.0631006  -0.1449265   0.0838540  )
        18           O   tau(  18) = (   0.0136723  -0.2429762   0.1775818  )
        19           O   tau(  19) = (   0.2178658  -0.2150968  -0.2323991  )
        20           O   tau(  20) = (   0.2353609   0.2305356   0.1094536  )
        21           O   tau(  21) = (   0.2636184  -0.1976053   0.1922640  )
        22           O   tau(  22) = (  -0.1215092  -0.1052132  -0.1543857  )
        23           O   tau(  23) = (  -0.0561861   0.1645875  -0.2270092  )
        24           O   tau(  24) = (   0.2203504   0.0850719   0.0792159  )
        25           O   tau(  25) = (   0.1456905   0.0729429  -0.1724554  )
        26           O   tau(  26) = (  -0.2290712   0.1694741  -0.2692723  )
        27           O   tau(  27) = (   0.2462411  -0.2828326   0.0073010  )
        28           O   tau(  28) = (   0.0370284  -0.0305971  -0.2974745  )
        29           O   tau(  29) = (  -0.1238252   0.0266759  -0.2586958  )
        30           O   tau(  30) = (   0.0321495  -0.0379497   0.0834273  )
        31           O   tau(  31) = (   0.2903524  -0.1077442  -0.1944611  )
        32           O   tau(  32) = (   0.2163947  -0.0108754  -0.0694106  )
        33           O   tau(  33) = (   0.0185686   0.2230942   0.1975406  )
        34           O   tau(  34) = (  -0.2278621   0.0176554  -0.1635658  )
        35           O   tau(  35) = (  -0.0011261  -0.1971381  -0.0395819  )
        36           O   tau(  36) = (   0.2654399   0.2085477  -0.3631938  )
        37           O   tau(  37) = (   0.1935541   0.3303328   0.2797461  )
        38           O   tau(  38) = (  -0.2822845   0.2850993  -0.1131148  )
        39           O   tau(  39) = (  -0.0011457   0.0555558  -0.1345849  )
        40           O   tau(  40) = (  -0.2131029  -0.2045149  -0.0498459  )
        41           O   tau(  41) = (  -0.1467686   0.2851526   0.1353231  )
        42           O   tau(  42) = (  -0.1418830   0.1566976   0.1922485  )
        43           O   tau(  43) = (  -0.0962928  -0.0768309  -0.0253111  )
        44           O   tau(  44) = (  -0.0802997  -0.0753893   0.2631190  )
        45           O   tau(  45) = (   0.0161298   0.1146605   0.2839397  )
        46           O   tau(  46) = (  -0.2253928   0.1534843   0.0781406  )
        47           O   tau(  47) = (   0.1842286   0.2508204  -0.0958823  )
        48           O   tau(  48) = (   0.0697481  -0.2852634  -0.1852517  )
        49           O   tau(  49) = (  -0.1413567   0.2287833  -0.1609929  )
        50           O   tau(  50) = (   0.2719111   0.0560907   0.3332920  )
        51           O   tau(  51) = (  -0.0696012   0.0405876   0.1014854  )
        52           O   tau(  52) = (   0.0059277  -0.0889907  -0.1813956  )
        53           O   tau(  53) = (   0.0116591  -0.1808444  -0.2818623  )
        54           O   tau(  54) = (   0.3608017  -0.3209502   0.1993527  )
        55           O   tau(  55) = (   0.1898662  -0.1424246   0.0606186  )
        56           O   tau(  56) = (   0.3024032  -0.0670530   0.1489011  )
        57           O   tau(  57) = (   0.0803317   0.1900965  -0.2064439  )
        58           O   tau(  58) = (  -0.0872194  -0.3714536   0.0409124  )
        59           O   tau(  59) = (  -0.2364752  -0.0702402  -0.3432177  )
        60           O   tau(  60) = (  -0.2173158   0.0742421  -0.0350527  )
        61           O   tau(  61) = (   0.2613825   0.1846734  -0.2167146  )
        62           O   tau(  62) = (   0.0734603  -0.0528861  -0.0663653  )
        63           O   tau(  63) = (  -0.2494969  -0.1938006   0.1172558  )
        64           O   tau(  64) = (   0.0869243   0.1474179   0.1064548  )
        65           H   tau(  65) = (  -0.2581612  -0.1260968  -0.0337121  )
        66           H   tau(  66) = (  -0.2399592  -0.0508133  -0.0498922  )
        67           H   tau(  67) = (   0.1203244  -0.1175849   0.3476259  )
        68           H   tau(  68) = (   0.1159293  -0.1168211   0.2696336  )
        69           H   tau(  69) = (  -0.2693503   0.2899089  -0.2557759  )
        70           H   tau(  70) = (  -0.2594546   0.3630770  -0.2467248  )
        71           H   tau(  71) = (   0.1208972   0.1542181  -0.0659141  )
        72           H   tau(  72) = (   0.0540884   0.1821713  -0.0457140  )
        73           H   tau(  73) = (  -0.2856906   0.0230499   0.2155741  )
        74           H   tau(  74) = (  -0.2118600   0.0431683   0.2298774  )
        75           H   tau(  75) = (   0.0225653   0.3464755   0.2857889  )
        76           H   tau(  76) = (   0.0050533   0.2908890   0.3406639  )
        77           H   tau(  77) = (  -0.0458326  -0.3240478  -0.1035732  )
        78           H   tau(  78) = (  -0.0454831  -0.2793950  -0.1674318  )
        79           H   tau(  79) = (   0.1870998   0.0886218   0.2021771  )
        80           H   tau(  80) = (   0.1526149   0.0259408   0.2080067  )
        81           H   tau(  81) = (  -0.1400619  -0.3686825   0.3067033  )
        82           H   tau(  82) = (  -0.1039715  -0.3140068   0.2720371  )
        83           H   tau(  83) = (   0.0735296  -0.0915479   0.1615294  )
        84           H   tau(  84) = (   0.1404205  -0.1347816   0.1661915  )
        85           H   tau(  85) = (   0.0934570  -0.3117092   0.1370906  )
        86           H   tau(  86) = (   0.1520148  -0.2898043   0.0932706  )
        87           H   tau(  87) = (  -0.1672006  -0.2292629   0.2417426  )
        88           H   tau(  88) = (  -0.1557017  -0.1722286   0.1841435  )
        89           H   tau(  89) = (  -0.2296104  -0.3955334   0.0304762  )
        90           H   tau(  90) = (  -0.2583892  -0.3601008  -0.0331231  )
        91           H   tau(  91) = (  -0.1519756  -0.1842727  -0.1975635  )
        92           H   tau(  92) = (  -0.1726797  -0.2546626  -0.1672615  )
        93           H   tau(  93) = (   0.1485948  -0.1735732  -0.1227682  )
        94           H   tau(  94) = (   0.0900731  -0.1647245  -0.0757564  )
        95           H   tau(  95) = (  -0.1203755   0.1867653  -0.0822182  )
        96           H   tau(  96) = (  -0.0894871   0.1720753  -0.0179964  )
        97           H   tau(  97) = (  -0.0843947  -0.1186887   0.0483473  )
        98           H   tau(  98) = (  -0.0277549  -0.1141044   0.1016259  )
        99           H   tau(  99) = (   0.0199913  -0.1941265   0.1781284  )
       100           H   tau( 100) = (  -0.0189366  -0.2500709   0.1413811  )
       101           H   tau( 101) = (   0.2592655  -0.2315965  -0.2554762  )
       102           H   tau( 102) = (   0.2051480  -0.1835308  -0.2683823  )
       103           H   tau( 103) = (   0.1891193   0.2435291   0.1245567  )
       104           H   tau( 104) = (   0.2674296   0.2551283   0.1354506  )
       105           H   tau( 105) = (   0.2939488  -0.1597590   0.1879915  )
       106           H   tau( 106) = (   0.2311959  -0.1877540   0.2276235  )
       107           H   tau( 107) = (  -0.0753856  -0.0880819  -0.1650331  )
       108           H   tau( 108) = (  -0.1518568  -0.0667386  -0.1598102  )
       109           H   tau( 109) = (  -0.0144099   0.1526708  -0.2051966  )
       110           H   tau( 110) = (  -0.0757204   0.1315390  -0.2554970  )
       111           H   tau( 111) = (   0.2555906   0.1188646   0.0822221  )
       112           H   tau( 112) = (   0.1812465   0.1151158   0.0841728  )
       113           H   tau( 113) = (   0.1134484   0.0381486  -0.1857602  )
       114           H   tau( 114) = (   0.1162224   0.1111661  -0.1801797  )
       115           H   tau( 115) = (  -0.2628948   0.1849282  -0.3014354  )
       116           H   tau( 116) = (  -0.2437845   0.1252263  -0.2546834  )
       117           H   tau( 117) = (   0.2592917  -0.3183922   0.0390757  )
       118           H   tau( 118) = (   0.2890567  -0.2680631  -0.0114115  )
       119           H   tau( 119) = (  -0.0075174  -0.0357650  -0.3185096  )
       120           H   tau( 120) = (   0.0597739   0.0049252  -0.3226198  )
       121           H   tau( 121) = (  -0.1443475  -0.0020313  -0.2919367  )
       122           H   tau( 122) = (  -0.1597028   0.0552453  -0.2420842  )
       123           H   tau( 123) = (  -0.0011355  -0.0017729   0.0878417  )
       124           H   tau( 124) = (   0.0420891  -0.0441545   0.0357570  )
       125           H   tau( 125) = (   0.2926255  -0.1535826  -0.2107807  )
       126           H   tau( 126) = (   0.3187648  -0.1120459  -0.1548309  )
       127           H   tau( 127) = (   0.2053241   0.0260275  -0.0387180  )
       128           H   tau( 128) = (   0.2627619  -0.0240921  -0.0567069  )
       129           H   tau( 129) = (   0.0219090   0.2480312   0.2421741  )
       130           H   tau( 130) = (  -0.0159010   0.1910623   0.2013064  )
       131           H   tau( 131) = (  -0.2184852   0.0120674  -0.1159270  )
       132           H   tau( 132) = (  -0.2659449  -0.0095159  -0.1776874  )
       133           H   tau( 133) = (  -0.0253379  -0.2099141  -0.0798268  )
       134           H   tau( 134) = (  -0.0319371  -0.1952921  -0.0015588  )
       135           H   tau( 135) = (   0.2827481   0.2540627  -0.3644165  )
       136           H   tau( 136) = (   0.2756449   0.1974263  -0.4095801  )
       137           H   tau( 137) = (   0.1604488   0.3078114   0.2516645  )
       138           H   tau( 138) = (   0.1748410   0.3431541   0.3234250  )
       139           H   tau( 139) = (  -0.3144064   0.2482287  -0.1211501  )
       140           H   tau( 140) = (  -0.2419671   0.2698210  -0.1405770  )
       141           H   tau( 141) = (  -0.0458687   0.0714069  -0.1431374  )
       142           H   tau( 142) = (   0.0212075   0.0953951  -0.1155351  )
       143           H   tau( 143) = (  -0.1730771  -0.1980411  -0.0762614  )
       144           H   tau( 144) = (  -0.1877433  -0.2216729  -0.0107758  )
       145           H   tau( 145) = (  -0.1848023   0.2777368   0.1050134  )
       146           H   tau( 146) = (  -0.1664690   0.2854887   0.1803223  )
       147           H   tau( 147) = (  -0.1186174   0.1942129   0.1718082  )
       148           H   tau( 148) = (  -0.1847124   0.1787326   0.2003692  )
       149           H   tau( 149) = (  -0.1069455  -0.0892686  -0.0723026  )
       150           H   tau( 150) = (  -0.0929943  -0.0297635  -0.0148935  )
       151           H   tau( 151) = (  -0.1010493  -0.1024620   0.2279939  )
       152           H   tau( 152) = (  -0.0806695  -0.1088235   0.2989986  )
       153           H   tau( 153) = (   0.0333352   0.1487566   0.2521210  )
       154           H   tau( 154) = (  -0.0326450   0.1244347   0.2866535  )
       155           H   tau( 155) = (  -0.2449625   0.1327528   0.1185342  )
       156           H   tau( 156) = (  -0.1953412   0.1170567   0.0645771  )
       157           H   tau( 157) = (   0.2022018   0.2903192  -0.0721291  )
       158           H   tau( 158) = (   0.1902579   0.2528985  -0.1445027  )
       159           H   tau( 159) = (   0.0448195  -0.2486644  -0.2064548  )
       160           H   tau( 160) = (   0.0931170  -0.2595743  -0.1481736  )
       161           H   tau( 161) = (  -0.1805209   0.2071472  -0.1824481  )
       162           H   tau( 162) = (  -0.1061388   0.2172505  -0.1954601  )
       163           H   tau( 163) = (   0.2572143   0.0281387   0.3703681  )
       164           H   tau( 164) = (   0.2426425   0.0442837   0.2961837  )
       165           H   tau( 165) = (  -0.0981024   0.0464572   0.1421222  )
       166           H   tau( 166) = (  -0.0463537   0.0830299   0.0954095  )
       167           H   tau( 167) = (   0.0195742  -0.0603488  -0.1441552  )
       168           H   tau( 168) = (   0.0174820  -0.0577677  -0.2195021  )
       169           H   tau( 169) = (   0.0450452  -0.1678751  -0.2480304  )
       170           H   tau( 170) = (   0.0334393  -0.1773816  -0.3257639  )
       171           H   tau( 171) = (   0.3548724  -0.3031758   0.2452215  )
       172           H   tau( 172) = (   0.3498776  -0.2816009   0.1707735  )
       173           H   tau( 173) = (   0.2218752  -0.1786255   0.0522603  )
       174           H   tau( 174) = (   0.1766265  -0.1271652   0.0164308  )
       175           H   tau( 175) = (   0.3011732  -0.0283568   0.1187625  )
       176           H   tau( 176) = (   0.2578283  -0.0726788   0.1681583  )
       177           H   tau( 177) = (   0.0874979   0.1843787  -0.2546203  )
       178           H   tau( 178) = (   0.0719714   0.2383931  -0.1975793  )
       179           H   tau( 179) = (  -0.0709998  -0.3378325   0.0724253  )
       180           H   tau( 180) = (  -0.1144102  -0.3461373   0.0091403  )
       181           H   tau( 181) = (  -0.2787766  -0.0886781  -0.3270833  )
       182           H   tau( 182) = (  -0.2158104  -0.1087066  -0.3656806  )
       183           H   tau( 183) = (  -0.2031644   0.1190667  -0.0488604  )
       184           H   tau( 184) = (  -0.2606150   0.0896374  -0.0158767  )
       185           H   tau( 185) = (   0.2650126   0.2208413  -0.2493773  )
       186           H   tau( 186) = (   0.2546618   0.1431766  -0.2434665  )
       187           H   tau( 187) = (   0.1221150  -0.0477530  -0.0747806  )
       188           H   tau( 188) = (   0.0521524  -0.0103845  -0.0798452  )
       189           H   tau( 189) = (  -0.2230884  -0.2062424   0.0773586  )
       190           H   tau( 190) = (  -0.2713571  -0.1516859   0.1047187  )
       191           H   tau( 191) = (   0.0728349   0.1862702   0.1348929  )
       192           H   tau( 192) = (   0.0527307   0.1449375   0.0721569  )

     number of k points=     1  Marzari-Vanderbilt smearing, width (Ry)=  0.0250
                       cart. coord. in units 2pi/alat
        k(    1) = (   0.0000000   0.0000000   0.0000000), wk =   2.0000000

     Dense  grid:   177509 G-vectors     FFT dimensions: (  72,  72,  72)

     Estimated max dynamical RAM per process >      67.80Mb

     Estimated total allocated dynamical RAM >    1898.40Mb

     Initial potential from superposition of free atoms
     Check: negative starting charge=   -0.693518

     starting charge  511.99856, renormalised to  512.00000

     negative rho (up, down):  6.935E-01 0.000E+00
     Starting wfc are  384 randomized atomic wfcs

     total cpu time spent up to now is        0.8 secs

     per-process dynamical memory:    45.9 Mb

     Self-consistent Calculation

     iteration #  1     ecut=    30.00 Ry     beta=0.70
     Davidson diagonalization with overlap
     ethr =  1.00E-02,  avg # of iterations =  8.0

     negative rho (up, down):  1.636E-01 0.000E+00

     total cpu time spent up to now is        8.9 secs

     total energy              =   -1798.88832459 Ry
     Harris-Foulkes estimate   =   -1825.81639914 Ry
     estimated scf accuracy    <      42.25820530 Ry

     iteration #  2     ecut=    30.00 Ry     beta=0.70
     Davidson diagonalization with overlap
     ethr =  8.25E-03,  avg # of iterations =  4.0

     negative rho (up, down):  1.097E-03 0.000E+00

     total cpu time spent up to now is       12.0 secs

     total energy              =   -1777.20343252 Ry
     Harris-Foulkes estimate   =   -1812.72353584 Ry
     estimated scf accuracy    <      82.04499724 Ry

     iteration #  3     ecut=    30.00 Ry     beta=0.70
     Davidson diagonalization with overlap
     ethr =  8.25E-03,  avg # of iterations =  5.0

     negative rho (up, down):  3.842E-06 0.000E+00

     total cpu time spent up to now is       15.8 secs

     total energy              =   -1800.31406265 Ry
     Harris-Foulkes estimate   =   -1814.58929288 Ry
     estimated scf accuracy    <      45.75488451 Ry

     iteration #  4     ecut=    30.00 Ry     beta=0.70
     Davidson diagonalization with overlap
     ethr =  8.25E-03,  avg # of iterations =  3.0

     total cpu time spent up to now is       17.6 secs

     total energy              =   -1806.70670907 Ry
     Harris-Foulkes estimate   =   -1808.84360649 Ry
     estimated scf accuracy    <       6.86891539 Ry

     iteration #  5     ecut=    30.00 Ry     beta=0.70
     Davidson diagonalization with overlap
     ethr =  1.34E-03,  avg # of iterations =  5.0

     total cpu time spent up to now is       20.0 secs

     total energy              =   -1806.41470966 Ry
     Harris-Foulkes estimate   =   -1807.08981702 Ry
     estimated scf accuracy    <       2.73564916 Ry

     iteration #  6     ecut=    30.00 Ry     beta=0.70
     Davidson diagonalization with overlap
     ethr =  5.34E-04,  avg # of iterations =  5.0

     total cpu time spent up to now is       22.4 secs

     total energy              =   -1806.19600164 Ry
     Harris-Foulkes estimate   =   -1806.51237437 Ry
     estimated scf accuracy    <       1.14569255 Ry

     iteration #  7     ecut=    30.00 Ry     beta=0.70
     Davidson diagonalization with overlap
     ethr =  2.24E-04,  avg # of iterations =  5.0

     total cpu time spent up to now is       24.9 secs

     total energy              =   -1806.17495295 Ry
     Harris-Foulkes estimate   =   -1806.25359409 Ry
     estimated scf accuracy    <       0.40541879 Ry

     iteration #  8     ecut=    30.00 Ry     beta=0.70
     Davidson diagonalization with overlap
     ethr =  7.92E-05,  avg # of iterations =  4.0

     total cpu time spent up to now is       26.9 secs

     total energy              =   -1806.15829697 Ry
     Harris-Foulkes estimate   =   -1806.23937771 Ry
     estimated scf accuracy    <       0.47711490 Ry

     iteration #  9     ecut=    30.00 Ry     beta=0.70
     Davidson diagonalization with overlap
     ethr =  7.92E-05,  avg # of iterations =  3.0

     total cpu time spent up to now is       28.6 secs

     total energy              =   -1806.15321967 Ry
     Harris-Foulkes estimate   =   -1806.20132859 Ry
     estimated scf accuracy    <       0.29426117 Ry

     iteration # 10     ecut=    30.00 Ry     beta=0.70
     Davidson diagonalization with overlap
     ethr =  5.75E-05,  avg # of iterations =  8.0

     total cpu time spent up to now is       31.7 secs

     total energy              =   -1806.14854044 Ry
     Harris-Foulkes estimate   =   -1806.16607538 Ry
     estimated scf accuracy    <       0.11138219 Ry

     iteration # 11     ecut=    30.00 Ry     beta=0.70
     Davidson diagonalization with overlap
     ethr =  2.18E-05,  avg # of iterations =  8.0

     total cpu time spent up to now is       35.1 secs

     total energy              =   -1806.15065202 Ry
     Harris-Foulkes estimate   =   -1806.15688495 Ry
     estimated scf accuracy    <       0.02911200 Ry

     iteration # 12     ecut=    30.00 Ry     beta=0.70
     Davidson diagonalization with overlap
     ethr =  5.69E-06,  avg # of iterations =  4.0

     total cpu time spent up to now is       37.4 secs

     total energy              =   -1806.14936378 Ry
     Harris-Foulkes estimate   =   -1806.15430971 Ry
     estimated scf accuracy    <       0.01949631 Ry

     iteration # 13     ecut=    30.00 Ry     beta=0.70
     Davidson diagonalization with overlap
     ethr =  3.81E-06,  avg # of iterations =  2.0

     total cpu time spent up to now is       38.8 secs

     total energy              =   -1806.15143027 Ry
     Harris-Foulkes estimate   =   -1806.15248901 Ry
     estimated scf accuracy    <       0.00338239 Ry

     iteration # 14     ecut=    30.00 Ry     beta=0.70
     Davidson diagonalization with overlap
     ethr =  6.61E-07,  avg # of iterations =  2.0

     total cpu time spent up to now is       40.4 secs

     total energy              =   -1806.15095530 Ry
     Harris-Foulkes estimate   =   -1806.15272618 Ry
     estimated scf accuracy    <       0.01150367 Ry

     iteration # 15     ecut=    30.00 Ry     beta=0.70
     Davidson diagonalization with overlap
     ethr =  6.61E-07,  avg # of iterations =  2.0

     total cpu time spent up to now is       41.8 secs

     total energy              =   -1806.15187627 Ry
     Harris-Foulkes estimate   =   -1806.15223818 Ry
     estimated scf accuracy    <       0.00271217 Ry

     iteration # 16     ecut=    30.00 Ry     beta=0.70
     Davidson diagonalization with overlap
     ethr =  5.30E-07,  avg # of iterations =  2.0

     total cpu time spent up to now is       43.2 secs

     total energy              =   -1806.15192894 Ry
     Harris-Foulkes estimate   =   -1806.15213470 Ry
     estimated scf accuracy    <       0.00141300 Ry

     iteration # 17     ecut=    30.00 Ry     beta=0.70
     Davidson diagonalization with overlap
     ethr =  2.76E-07,  avg # of iterations =  1.0

     total cpu time spent up to now is       44.3 secs

     total energy              =   -1806.15203455 Ry
     Harris-Foulkes estimate   =   -1806.15205800 Ry
     estimated scf accuracy    <       0.00015709 Ry

     iteration # 18     ecut=    30.00 Ry     beta=0.70
     Davidson diagonalization with overlap
     ethr =  3.07E-08,  avg # of iterations =  2.0

     total cpu time spent up to now is       45.7 secs

     total energy              =   -1806.15204662 Ry
     Harris-Foulkes estimate   =   -1806.15205027 Ry
     estimated scf accuracy    <       0.00001628 Ry

     iteration # 19     ecut=    30.00 Ry     beta=0.70
     Davidson diagonalization with overlap
     ethr =  3.18E-09,  avg # of iterations =  2.0

     total cpu time spent up to now is       47.1 secs

     total energy              =   -1806.15204871 Ry
     Harris-Foulkes estimate   =   -1806.15204900 Ry
     estimated scf accuracy    <       0.00000357 Ry

     iteration # 20     ecut=    30.00 Ry     beta=0.70
     Davidson diagonalization with overlap
     ethr =  6.96E-10,  avg # of iterations =  3.0

     total cpu time spent up to now is       48.8 secs

     total energy              =   -1806.15204903 Ry
     Harris-Foulkes estimate   =   -1806.15204917 Ry
     estimated scf accuracy    <       0.00000091 Ry

     iteration # 21     ecut=    30.00 Ry     beta=0.70
     Davidson diagonalization with overlap
     ethr =  1.79E-10,  avg # of iterations =  2.0

     total cpu time spent up to now is       50.2 secs

     total energy              =   -1806.15204913 Ry
     Harris-Foulkes estimate   =   -1806.15204913 Ry
     estimated scf accuracy    <       0.00000005 Ry

     iteration # 22     ecut=    30.00 Ry     beta=0.70
     Davidson diagonalization with overlap
     ethr =  9.56E-12,  avg # of iterations =  4.0

     total cpu time spent up to now is       52.6 secs

     total energy              =   -1806.15204915 Ry
     Harris-Foulkes estimate   =   -1806.15204915 Ry
     estimated scf accuracy    <       0.00000005 Ry

     iteration # 23     ecut=    30.00 Ry     beta=0.70
     Davidson diagonalization with overlap
     ethr =  9.56E-12,  avg # of iterations =  3.0

     total cpu time spent up to now is       54.3 secs

     End of self-consistent calculation

          k = 0.0000 0.0000 0.0000 ( 22119 PWs)   bands (ev):

   -40.8758 -40.6065 -39.3956 -38.3353 -37.7000 -37.2885 -36.6261 -35.9679
   -35.0357 -34.6020 -34.4875 -34.1183 -33.9230 -33.6590 -33.5660 -33.3696
   -32.8475 -32.5876 -32.2526 -32.2339 -32.1064 -31.6746 -31.2999 -31.0337
   -30.7350 -30.5653 -30.2841 -30.0669 -30.0078 -29.8745 -29.6995 -29.5467
   -29.4343 -29.2045 -29.1451 -28.9356 -28.8083 -28.5437 -28.4790 -28.2954
   -28.1503 -28.0512 -27.8499 -27.6729 -27.5318 -27.3322 -27.2272 -27.0137
   -26.9102 -26.8063 -26.6485 -26.3645 -26.2941 -26.0935 -26.0150 -25.8805
   -25.8091 -25.6627 -25.4624 -25.3937 -25.1404 -25.0536 -24.8078 -24.6073
   -21.5247 -21.2257 -20.7178 -20.5321 -20.3058 -20.0230 -19.7450 -19.5753
   -19.3653 -19.1190 -18.8009 -18.6049 -18.0974 -17.7673 -17.7048 -17.4183
   -17.1806 -17.0376 -16.9763 -16.9049 -16.8522 -16.7395 -16.5306 -16.2839
   -16.1806 -16.0293 -15.9730 -15.7258 -15.5410 -15.4555 -15.3000 -15.2716
   -15.1591 -15.0992 -14.7749 -14.7640 -14.5595 -14.4575 -14.3947 -14.2373
   -14.1512 -13.9778 -13.8615 -13.5958 -13.5375 -13.3731 -13.2770 -13.0408
   -13.0146 -12.9007 -12.8402 -12.7787 -12.5704 -12.3190 -12.2981 -12.1936
   -12.0727 -11.4497 -11.2893 -10.8177 -10.7336 -10.5973 -10.4875 -10.3459
   -10.3118  -9.8582  -9.3187  -9.2498  -9.1022  -8.9389  -8.4183  -8.3003
    -8.2476  -7.9394  -7.8946  -7.8001  -7.6038  -7.5424  -7.3496  -7.2647
    -7.1849  -7.0104  -6.7704  -6.7421  -6.6543  -6.4335  -6.3571  -6.0937
    -6.0162  -5.6391  -5.6112  -5.5106  -5.3473  -5.2647  -5.1510  -4.8982
    -4.8556  -4.7169  -4.6888  -4.6111  -4.5120  -4.4712  -4.4213  -4.3327
    -4.2365  -4.1571  -4.0493  -3.9698  -3.9332  -3.8788  -3.7788  -3.7277
    -3.6710  -3.4724  -3.4583  -3.3314  -3.2381  -3.2132  -3.1252  -3.0888
    -2.9619  -2.8732  -2.7669  -2.7509  -2.6017  -2.5833  -2.5117  -2.4497
    -2.3279  -2.2334  -2.0922  -2.0617  -1.9524  -1.9117  -1.7558  -1.6672
    -1.5168  -1.4263  -1.3056  -1.3011  -1.0041  -0.9838  -0.8652  -0.7331
    -0.6209  -0.4510  -0.3982  -0.2491  -0.2362  -0.1941  -0.1374  -0.0327
     0.1080   0.1393   0.2305   0.3965   0.4761   0.5553   0.5935   0.6822
     0.9015   1.0242   1.0998   1.2530   1.2943   1.6824   1.7438   1.8348
     1.9830   2.0443   2.2396   2.3990   2.4976   2.5558   2.6455   2.7631
     2.7913   2.9925   3.1664   3.2977   3.5508   4.0398   4.2485   4.3530
     4.6179   4.7146   4.8417   4.9910   5.0234   5.1378   5.1975   5.3535
     5.4982   6.2774   6.4362   6.5268   6.8887   7.2369   7.2875   7.3579
     7.3901   7.7308   7.7576   8.0025   8.0622   8.4251   8.6142   8.6705
     8.8320   8.9306   8.9791   9.5231   9.6102   9.7605   9.8228  10.0987
    10.1614  10.2647  10.3355  10.4329  10.5206  10.5851  10.8011  10.8326
    10.9701  10.9934  11.1038  11.2342  11.3231  11.4031  11.5735  11.6322
    11.7078  11.7554  11.7667  11.8799  11.9399  11.9887  12.0732  12.0994
    12.2368  12.2449  12.2952

     the Fermi energy is     5.4356 ev

!    total energy              =   -1806.15204915 Ry
     Harris-Foulkes estimate   =   -1806.15204916 Ry
     estimated scf accuracy    <          9.6E-09 Ry

     The total energy is the sum of the following terms:

     one-electron contribution =  -13281.11963777 Ry
     hartree contribution      =    6816.14003857 Ry
     xc contribution           =    -633.40470815 Ry
     ewald contribution        =    5292.21558900 Ry
     smearing contrib. (-TS)   =       0.01666919 Ry

     convergence has been achieved in  23 iterations

     Writing output data file pwscf.save
 
     init_run     :      0.56s CPU      0.63s WALL (       1 calls)
     electrons    :     52.09s CPU     53.60s WALL (       1 calls)

     Called by init_run:
     wfcinit      :      0.46s CPU      0.52s WALL (       1 calls)
     potinit      :      0.02s CPU      0.03s WALL (       1 calls)

     Called by electrons:
     c_bands      :     49.79s CPU     51.03s WALL (      23 calls)
     sum_band     :      1.88s CPU      1.92s WALL (      23 calls)
     v_of_rho     :      0.19s CPU      0.20s WALL (      24 calls)
     mix_rho      :      0.14s CPU      0.26s WALL (      23 calls)

     Called by c_bands:
     init_us_2    :      0.06s CPU      0.07s WALL (      47 calls)
     cegterg      :     49.66s CPU     50.81s WALL (      23 calls)

     Called by sum_band:

     Called by *egterg:
     h_psi        :      8.59s CPU      8.74s WALL (     111 calls)
     g_psi        :      0.07s CPU      0.07s WALL (      87 calls)
     cdiaghg      :     31.66s CPU     31.71s WALL (     110 calls)

     Called by h_psi:
     h_psi:pot    :      8.37s CPU      8.53s WALL (     111 calls)
     h_psi:calbec :      0.32s CPU      0.32s WALL (     111 calls)
     vloc_psi     :      7.78s CPU      7.92s WALL (     111 calls)
     add_vuspsi   :      0.28s CPU      0.28s WALL (     111 calls)

     General routines
     calbec       :      0.31s CPU      0.32s WALL (     111 calls)
     fft          :      0.11s CPU      0.12s WALL (     263 calls)
     fftw         :      8.68s CPU      8.85s WALL (   39455 calls)
     davcio       :      0.03s CPU      0.14s WALL (     368 calls)
 
     Parallel routines
     fft_scatter  :      2.97s CPU      3.04s WALL (   39718 calls)
 
     PWSCF        :    52.82s CPU        54.69s WALL

 
   This run was terminated on:  22: 4: 9   2Feb2018            

=------------------------------------------------------------------------------=
   JOB DONE.
=------------------------------------------------------------------------------=
