
     Program PWSCF v.6.0 (svn rev. 13079) starts on  2Feb2018 at 22:41:28 

     This program is part of the open-source Quantum ESPRESSO suite
     for quantum simulation of materials; please cite
         "P. Giannozzi et al., J. Phys.:Condens. Matter 21 395502 (2009);
          URL http://www.quantum-espresso.org", 
     in publications or presentations arising from this work. More details at
     http://www.quantum-espresso.org/quote

     Parallel version (MPI), running on    28 processors
     R & G space division:  proc/nbgrp/npool/nimage =      28
     Reading input from input/scf-bigwater-1/1093.in
Warning: card &IONS ignored
Warning: card     POT_EXTRAPOLATION='SECOND-ORDER' ignored
Warning: card     WFC_EXTRAPOLATION='SECOND-ORDER' ignored
Warning: card     ION_TEMPERATURE = 'ANDERSEN' ignored
Warning: card     TEMPW = 1000 ignored
Warning: card / ignored

     Current dimensions of program PWSCF are:
     Max number of different atomic species (ntypx) = 10
     Max number of k-points (npk) =  40000
     Max angular momentum in pseudopotentials (lmaxx) =  3

     Subspace diagonalization in iterative solution of the eigenvalue problem:
     a serial algorithm will be used

 
     Parallelization info
     --------------------
     sticks:   dense  smooth     PW     G-vecs:    dense   smooth      PW
     Min         136     136     33                 6338     6338     787
     Max         137     137     34                 6341     6341     792
     Sum        3809    3809    949               177509   177509   22119
 


     bravais-lattice index     =            1
     lattice parameter (alat)  =      20.0000  a.u.
     unit-cell volume          =    8000.0000 (a.u.)^3
     number of atoms/cell      =          192
     number of atomic types    =            2
     number of electrons       =       512.00
     number of Kohn-Sham states=          307
     kinetic-energy cutoff     =      30.0000  Ry
     charge density cutoff     =     120.0000  Ry
     convergence threshold     =      1.0E-08
     mixing beta               =       0.7000
     number of iterations used =            8  plain     mixing
     Exchange-correlation      = BLYP ( 1  3  1  3 0 0)

     celldm(1)=  20.000000  celldm(2)=   0.000000  celldm(3)=   0.000000
     celldm(4)=   0.000000  celldm(5)=   0.000000  celldm(6)=   0.000000

     crystal axes: (cart. coord. in units of alat)
               a(1) = (   1.000000   0.000000   0.000000 )  
               a(2) = (   0.000000   1.000000   0.000000 )  
               a(3) = (   0.000000   0.000000   1.000000 )  

     reciprocal axes: (cart. coord. in units 2 pi/alat)
               b(1) = (  1.000000  0.000000  0.000000 )  
               b(2) = (  0.000000  1.000000  0.000000 )  
               b(3) = (  0.000000  0.000000  1.000000 )  


     PseudoPot. # 1 for  H read from file:
     ./H.blyp-hgh.UPF
     MD5 check sum: c576e69559cde411e611be972c763230
     Pseudo is Norm-conserving, Zval =  1.0
     Generated in analytical, separable form
     Using radial grid of  929 points,  0 beta functions with: 

     PseudoPot. # 2 for  O read from file:
     ./O.blyp-hgh.UPF
     MD5 check sum: d0b7156309aa9befef28faac7bc56342
     Pseudo is Norm-conserving, Zval =  6.0
     Generated in analytical, separable form
     Using radial grid of 1095 points,  1 beta functions with: 
                l(1) =   0

     atomic species   valence    mass     pseudopotential
        H              1.00     1.01000      H( 1.00)
        O              6.00    16.00000      O( 1.00)

     No symmetry found



   Cartesian axes

     site n.     atom                  positions (alat units)
         1           O   tau(   1) = (  -0.2793645  -0.0812560  -0.0291243  )
         2           O   tau(   2) = (   0.1515640  -0.1231724   0.3097119  )
         3           O   tau(   3) = (  -0.2852979   0.3359548  -0.2792697  )
         4           O   tau(   4) = (   0.0818426   0.1354425  -0.0536519  )
         5           O   tau(   5) = (  -0.2491661   0.0497877   0.2055518  )
         6           O   tau(   6) = (   0.0110218   0.2972407   0.2935933  )
         7           O   tau(   7) = (  -0.0742927  -0.2921337  -0.1262787  )
         8           O   tau(   8) = (   0.1645322   0.0660910   0.2351988  )
         9           O   tau(   9) = (  -0.1482823  -0.3360573   0.2727411  )
        10           O   tau(  10) = (   0.0931280  -0.1267518   0.1857915  )
        11           O   tau(  11) = (   0.1333000  -0.3240433   0.1138505  )
        12           O   tau(  12) = (  -0.1613285  -0.1807293   0.2354875  )
        13           O   tau(  13) = (  -0.2274354  -0.3502569   0.0026358  )
        14           O   tau(  14) = (  -0.1877861  -0.2119009  -0.1991423  )
        15           O   tau(  15) = (   0.1198953  -0.2039277  -0.0929377  )
        16           O   tau(  16) = (  -0.0857403   0.1549970  -0.0671262  )
        17           O   tau(  17) = (  -0.0618160  -0.1447530   0.0818569  )
        18           O   tau(  18) = (   0.0081689  -0.2435605   0.1789392  )
        19           O   tau(  19) = (   0.2169544  -0.2117658  -0.2311018  )
        20           O   tau(  20) = (   0.2347672   0.2259874   0.1081597  )
        21           O   tau(  21) = (   0.2614190  -0.1981129   0.1971815  )
        22           O   tau(  22) = (  -0.1229958  -0.1016712  -0.1519658  )
        23           O   tau(  23) = (  -0.0547358   0.1663388  -0.2305730  )
        24           O   tau(  24) = (   0.2214149   0.0856773   0.0733765  )
        25           O   tau(  25) = (   0.1453363   0.0759243  -0.1723435  )
        26           O   tau(  26) = (  -0.2289894   0.1734850  -0.2684800  )
        27           O   tau(  27) = (   0.2452715  -0.2808571   0.0134322  )
        28           O   tau(  28) = (   0.0345395  -0.0341737  -0.3002257  )
        29           O   tau(  29) = (  -0.1284244   0.0268576  -0.2593300  )
        30           O   tau(  30) = (   0.0293963  -0.0383206   0.0832828  )
        31           O   tau(  31) = (   0.2951601  -0.1054052  -0.1912660  )
        32           O   tau(  32) = (   0.2151092  -0.0115909  -0.0709295  )
        33           O   tau(  33) = (   0.0159716   0.2209802   0.1957580  )
        34           O   tau(  34) = (  -0.2304163   0.0136481  -0.1596122  )
        35           O   tau(  35) = (  -0.0018462  -0.2007458  -0.0392205  )
        36           O   tau(  36) = (   0.2702258   0.2059126  -0.3715098  )
        37           O   tau(  37) = (   0.1983966   0.3302856   0.2754651  )
        38           O   tau(  38) = (  -0.2860938   0.2867411  -0.1116378  )
        39           O   tau(  39) = (  -0.0012317   0.0575368  -0.1346596  )
        40           O   tau(  40) = (  -0.2146615  -0.2075750  -0.0471373  )
        41           O   tau(  41) = (  -0.1467121   0.2884747   0.1339827  )
        42           O   tau(  42) = (  -0.1435326   0.1520728   0.1881969  )
        43           O   tau(  43) = (  -0.1009905  -0.0698806  -0.0239515  )
        44           O   tau(  44) = (  -0.0840958  -0.0746813   0.2636472  )
        45           O   tau(  45) = (   0.0177373   0.1173703   0.2790600  )
        46           O   tau(  46) = (  -0.2237408   0.1501060   0.0823998  )
        47           O   tau(  47) = (   0.1835231   0.2529446  -0.0967762  )
        48           O   tau(  48) = (   0.0659769  -0.2839625  -0.1835263  )
        49           O   tau(  49) = (  -0.1467491   0.2311764  -0.1612503  )
        50           O   tau(  50) = (   0.2766405   0.0578038   0.3348245  )
        51           O   tau(  51) = (  -0.0680820   0.0419223   0.1051103  )
        52           O   tau(  52) = (   0.0086730  -0.0879924  -0.1800831  )
        53           O   tau(  53) = (   0.0094602  -0.1835644  -0.2800971  )
        54           O   tau(  54) = (   0.3631141  -0.3247239   0.2001371  )
        55           O   tau(  55) = (   0.1906508  -0.1423955   0.0621738  )
        56           O   tau(  56) = (   0.3035890  -0.0694005   0.1485849  )
        57           O   tau(  57) = (   0.0832987   0.1926675  -0.2045762  )
        58           O   tau(  58) = (  -0.0868850  -0.3736806   0.0424395  )
        59           O   tau(  59) = (  -0.2324758  -0.0677159  -0.3481585  )
        60           O   tau(  60) = (  -0.2186089   0.0745690  -0.0356936  )
        61           O   tau(  61) = (   0.2587602   0.1850103  -0.2233235  )
        62           O   tau(  62) = (   0.0723683  -0.0559037  -0.0619334  )
        63           O   tau(  63) = (  -0.2532990  -0.1993393   0.1144502  )
        64           O   tau(  64) = (   0.0875680   0.1431715   0.1103954  )
        65           H   tau(  65) = (  -0.2544926  -0.1247981  -0.0299422  )
        66           H   tau(  66) = (  -0.2420075  -0.0499049  -0.0224637  )
        67           H   tau(  67) = (   0.1257539  -0.1173315   0.3508089  )
        68           H   tau(  68) = (   0.1188780  -0.1233681   0.2716808  )
        69           H   tau(  69) = (  -0.2691755   0.2915190  -0.2687194  )
        70           H   tau(  70) = (  -0.2605400   0.3701136  -0.2540869  )
        71           H   tau(  71) = (   0.1219690   0.1630687  -0.0641529  )
        72           H   tau(  72) = (   0.0463740   0.1666625  -0.0412052  )
        73           H   tau(  73) = (  -0.2810442   0.0166401   0.2235098  )
        74           H   tau(  74) = (  -0.2127776   0.0391664   0.2375138  )
        75           H   tau(  75) = (   0.0250072   0.3444678   0.2937852  )
        76           H   tau(  76) = (   0.0142906   0.2879500   0.3415451  )
        77           H   tau(  77) = (  -0.0550175  -0.3360751  -0.1152905  )
        78           H   tau(  78) = (  -0.0437989  -0.2820282  -0.1627757  )
        79           H   tau(  79) = (   0.1901698   0.0941619   0.2043800  )
        80           H   tau(  80) = (   0.1670982   0.0200718   0.2196909  )
        81           H   tau(  81) = (  -0.1509014  -0.3698963   0.3077886  )
        82           H   tau(  82) = (  -0.1064646  -0.3124605   0.2828879  )
        83           H   tau(  83) = (   0.0742680  -0.0884476   0.1582806  )
        84           H   tau(  84) = (   0.1369952  -0.1257090   0.1642943  )
        85           H   tau(  85) = (   0.0966465  -0.3024486   0.1380984  )
        86           H   tau(  86) = (   0.1528849  -0.2939256   0.0806819  )
        87           H   tau(  87) = (  -0.1614075  -0.2295545   0.2427652  )
        88           H   tau(  88) = (  -0.1567860  -0.1753487   0.1868486  )
        89           H   tau(  89) = (  -0.2304233  -0.3984054   0.0117938  )
        90           H   tau(  90) = (  -0.2510800  -0.3409186  -0.0413503  )
        91           H   tau(  91) = (  -0.1540398  -0.1758458  -0.1891961  )
        92           H   tau(  92) = (  -0.1660260  -0.2498505  -0.1760859  )
        93           H   tau(  93) = (   0.1496648  -0.1766834  -0.1203324  )
        94           H   tau(  94) = (   0.0858362  -0.1781423  -0.0688866  )
        95           H   tau(  95) = (  -0.1004699   0.1880689  -0.1020464  )
        96           H   tau(  96) = (  -0.0816309   0.1772166  -0.0243965  )
        97           H   tau(  97) = (  -0.0775642  -0.1130369   0.0456915  )
        98           H   tau(  98) = (  -0.0204233  -0.1188631   0.0954977  )
        99           H   tau(  99) = (   0.0256928  -0.1982880   0.1700560  )
       100           H   tau( 100) = (  -0.0249131  -0.2491241   0.1431595  )
       101           H   tau( 101) = (   0.2462586  -0.2479458  -0.2456101  )
       102           H   tau( 102) = (   0.1949233  -0.1836464  -0.2645824  )
       103           H   tau( 103) = (   0.1927393   0.2422077   0.1307468  )
       104           H   tau( 104) = (   0.2682851   0.2582098   0.1232533  )
       105           H   tau( 105) = (   0.2859652  -0.1559219   0.1981524  )
       106           H   tau( 106) = (   0.2335310  -0.2069016   0.2363925  )
       107           H   tau( 107) = (  -0.0742515  -0.0937479  -0.1651373  )
       108           H   tau( 108) = (  -0.1468087  -0.0617796  -0.1693869  )
       109           H   tau( 109) = (  -0.0073060   0.1573294  -0.2201265  )
       110           H   tau( 110) = (  -0.0690343   0.1233848  -0.2502238  )
       111           H   tau( 111) = (   0.2599735   0.1151663   0.0778894  )
       112           H   tau( 112) = (   0.1819033   0.1153502   0.0730020  )
       113           H   tau( 113) = (   0.1210122   0.0345388  -0.1735312  )
       114           H   tau( 114) = (   0.1193599   0.1159152  -0.1804244  )
       115           H   tau( 115) = (  -0.2580062   0.1875549  -0.3066303  )
       116           H   tau( 116) = (  -0.2524902   0.1298623  -0.2662125  )
       117           H   tau( 117) = (   0.2547896  -0.3185603   0.0435422  )
       118           H   tau( 118) = (   0.2883237  -0.2623800  -0.0007156  )
       119           H   tau( 119) = (  -0.0018564  -0.0364196  -0.3334453  )
       120           H   tau( 120) = (   0.0627114   0.0027997  -0.3149036  )
       121           H   tau( 121) = (  -0.1456592  -0.0064485  -0.2910121  )
       122           H   tau( 122) = (  -0.1649205   0.0590322  -0.2566928  )
       123           H   tau( 123) = (  -0.0065460  -0.0054650   0.0891374  )
       124           H   tau( 124) = (   0.0460613  -0.0385699   0.0372500  )
       125           H   tau( 125) = (   0.2829903  -0.1490491  -0.2097963  )
       126           H   tau( 126) = (   0.3221248  -0.1114108  -0.1514802  )
       127           H   tau( 127) = (   0.2102275   0.0238296  -0.0376717  )
       128           H   tau( 128) = (   0.2598440  -0.0293175  -0.0664249  )
       129           H   tau( 129) = (   0.0117869   0.2539174   0.2329585  )
       130           H   tau( 130) = (  -0.0266039   0.2007325   0.1972860  )
       131           H   tau( 131) = (  -0.2133237  -0.0009463  -0.1164281  )
       132           H   tau( 132) = (  -0.2677760  -0.0162273  -0.1701626  )
       133           H   tau( 133) = (  -0.0258302  -0.2041109  -0.0812372  )
       134           H   tau( 134) = (  -0.0384971  -0.1885986  -0.0087720  )
       135           H   tau( 135) = (   0.2811088   0.2523950  -0.3631649  )
       136           H   tau( 136) = (   0.2699956   0.2023353  -0.4203792  )
       137           H   tau( 137) = (   0.1611532   0.3044305   0.2578797  )
       138           H   tau( 138) = (   0.1849001   0.3221224   0.3216950  )
       139           H   tau( 139) = (  -0.3143994   0.2481005  -0.1179977  )
       140           H   tau( 140) = (  -0.2387345   0.2873638  -0.1198261  )
       141           H   tau( 141) = (  -0.0459939   0.0758773  -0.1357723  )
       142           H   tau( 142) = (   0.0271433   0.0929748  -0.1142634  )
       143           H   tau( 143) = (  -0.1791144  -0.2021781  -0.0800748  )
       144           H   tau( 144) = (  -0.1980565  -0.2191368  -0.0029785  )
       145           H   tau( 145) = (  -0.1818815   0.2794357   0.1008398  )
       146           H   tau( 146) = (  -0.1730438   0.2954019   0.1746657  )
       147           H   tau( 147) = (  -0.1236556   0.1880329   0.1605797  )
       148           H   tau( 148) = (  -0.1798320   0.1772133   0.2091169  )
       149           H   tau( 149) = (  -0.1031988  -0.0778763  -0.0734922  )
       150           H   tau( 150) = (  -0.1000491  -0.0214638  -0.0187478  )
       151           H   tau( 151) = (  -0.1025457  -0.0957882   0.2240963  )
       152           H   tau( 152) = (  -0.0813299  -0.1098697   0.2973878  )
       153           H   tau( 153) = (   0.0443279   0.1470741   0.2508921  )
       154           H   tau( 154) = (  -0.0302665   0.1288077   0.2825440  )
       155           H   tau( 155) = (  -0.2367291   0.1335590   0.1264515  )
       156           H   tau( 156) = (  -0.1899409   0.1185067   0.0668741  )
       157           H   tau( 157) = (   0.1947405   0.2939504  -0.0725752  )
       158           H   tau( 158) = (   0.1960031   0.2653312  -0.1420211  )
       159           H   tau( 159) = (   0.0393425  -0.2437117  -0.1918950  )
       160           H   tau( 160) = (   0.0901139  -0.2691629  -0.1422892  )
       161           H   tau( 161) = (  -0.1895548   0.2184208  -0.1806024  )
       162           H   tau( 162) = (  -0.1139272   0.2092567  -0.1925709  )
       163           H   tau( 163) = (   0.2613319   0.0303385   0.3727912  )
       164           H   tau( 164) = (   0.2403483   0.0545552   0.3019751  )
       165           H   tau( 165) = (  -0.0993664   0.0721771   0.1278926  )
       166           H   tau( 166) = (  -0.0404485   0.0780485   0.0896988  )
       167           H   tau( 167) = (   0.0276012  -0.0666246  -0.1405666  )
       168           H   tau( 168) = (   0.0113850  -0.0582039  -0.2203567  )
       169           H   tau( 169) = (   0.0417822  -0.1748287  -0.2441594  )
       170           H   tau( 170) = (   0.0332287  -0.1639241  -0.3188385  )
       171           H   tau( 171) = (   0.3552625  -0.3117846   0.2474506  )
       172           H   tau( 172) = (   0.3454406  -0.2827140   0.1799425  )
       173           H   tau( 173) = (   0.2186172  -0.1816920   0.0508623  )
       174           H   tau( 174) = (   0.1813191  -0.1278068   0.0166153  )
       175           H   tau( 175) = (   0.3075341  -0.0298328   0.1200806  )
       176           H   tau( 176) = (   0.2545273  -0.0729145   0.1489365  )
       177           H   tau( 177) = (   0.0851326   0.1786299  -0.2514244  )
       178           H   tau( 178) = (   0.0771685   0.2412180  -0.1952616  )
       179           H   tau( 179) = (  -0.0605557  -0.3532281   0.0781970  )
       180           H   tau( 180) = (  -0.1134406  -0.3370191   0.0237427  )
       181           H   tau( 181) = (  -0.2740237  -0.0817892  -0.3268264  )
       182           H   tau( 182) = (  -0.2080109  -0.1105069  -0.3544114  )
       183           H   tau( 183) = (  -0.2121904   0.1194058  -0.0532725  )
       184           H   tau( 184) = (  -0.2665310   0.0644911  -0.0307934  )
       185           H   tau( 185) = (   0.2414458   0.2206708  -0.2518095  )
       186           H   tau( 186) = (   0.2573845   0.1431591  -0.2493063  )
       187           H   tau( 187) = (   0.1211037  -0.0507777  -0.0636200  )
       188           H   tau( 188) = (   0.0569291  -0.0132952  -0.0809416  )
       189           H   tau( 189) = (  -0.2062216  -0.1992781   0.0984763  )
       190           H   tau( 190) = (  -0.2756675  -0.1575130   0.1014417  )
       191           H   tau( 191) = (   0.0841239   0.1917470   0.1217576  )
       192           H   tau( 192) = (   0.0618638   0.1463940   0.0682248  )

     number of k points=     1  Marzari-Vanderbilt smearing, width (Ry)=  0.0250
                       cart. coord. in units 2pi/alat
        k(    1) = (   0.0000000   0.0000000   0.0000000), wk =   2.0000000

     Dense  grid:   177509 G-vectors     FFT dimensions: (  72,  72,  72)

     Estimated max dynamical RAM per process >      67.80Mb

     Estimated total allocated dynamical RAM >    1898.40Mb

     Initial potential from superposition of free atoms
     Check: negative starting charge=   -0.697502

     starting charge  511.99856, renormalised to  512.00000

     negative rho (up, down):  6.975E-01 0.000E+00
     Starting wfc are  384 randomized atomic wfcs

     total cpu time spent up to now is        0.8 secs

     per-process dynamical memory:    45.9 Mb

     Self-consistent Calculation

     iteration #  1     ecut=    30.00 Ry     beta=0.70
     Davidson diagonalization with overlap
     ethr =  1.00E-02,  avg # of iterations =  9.0

     negative rho (up, down):  1.641E-01 0.000E+00

     total cpu time spent up to now is       10.2 secs

     total energy              =   -1799.33380536 Ry
     Harris-Foulkes estimate   =   -1826.31571471 Ry
     estimated scf accuracy    <      42.17330511 Ry

     iteration #  2     ecut=    30.00 Ry     beta=0.70
     Davidson diagonalization with overlap
     ethr =  8.24E-03,  avg # of iterations =  4.0

     negative rho (up, down):  1.263E-03 0.000E+00

     total cpu time spent up to now is       13.3 secs

     total energy              =   -1782.12796797 Ry
     Harris-Foulkes estimate   =   -1812.26325881 Ry
     estimated scf accuracy    <      64.06184000 Ry

     iteration #  3     ecut=    30.00 Ry     beta=0.70
     Davidson diagonalization with overlap
     ethr =  8.24E-03,  avg # of iterations =  4.0

     negative rho (up, down):  4.580E-06 0.000E+00

     total cpu time spent up to now is       16.5 secs

     total energy              =   -1800.62260722 Ry
     Harris-Foulkes estimate   =   -1814.44597866 Ry
     estimated scf accuracy    <      43.18892186 Ry

     iteration #  4     ecut=    30.00 Ry     beta=0.70
     Davidson diagonalization with overlap
     ethr =  8.24E-03,  avg # of iterations =  3.0

     total cpu time spent up to now is       18.2 secs

     total energy              =   -1806.90407242 Ry
     Harris-Foulkes estimate   =   -1808.78595467 Ry
     estimated scf accuracy    <       5.86209383 Ry

     iteration #  5     ecut=    30.00 Ry     beta=0.70
     Davidson diagonalization with overlap
     ethr =  1.14E-03,  avg # of iterations =  5.0

     total cpu time spent up to now is       20.8 secs

     total energy              =   -1806.69341521 Ry
     Harris-Foulkes estimate   =   -1807.24455246 Ry
     estimated scf accuracy    <       2.22169421 Ry

     iteration #  6     ecut=    30.00 Ry     beta=0.70
     Davidson diagonalization with overlap
     ethr =  4.34E-04,  avg # of iterations =  5.0

     total cpu time spent up to now is       23.1 secs

     total energy              =   -1806.59644160 Ry
     Harris-Foulkes estimate   =   -1806.80979950 Ry
     estimated scf accuracy    <       1.06954926 Ry

     iteration #  7     ecut=    30.00 Ry     beta=0.70
     Davidson diagonalization with overlap
     ethr =  2.09E-04,  avg # of iterations =  5.0

     total cpu time spent up to now is       25.4 secs

     total energy              =   -1806.48931960 Ry
     Harris-Foulkes estimate   =   -1806.69231613 Ry
     estimated scf accuracy    <       0.71438229 Ry

     iteration #  8     ecut=    30.00 Ry     beta=0.70
     Davidson diagonalization with overlap
     ethr =  1.40E-04,  avg # of iterations =  7.0

     total cpu time spent up to now is       28.5 secs

     total energy              =   -1806.49844006 Ry
     Harris-Foulkes estimate   =   -1806.55103450 Ry
     estimated scf accuracy    <       0.28918248 Ry

     iteration #  9     ecut=    30.00 Ry     beta=0.70
     Davidson diagonalization with overlap
     ethr =  5.65E-05,  avg # of iterations =  3.0

     total cpu time spent up to now is       30.2 secs

     total energy              =   -1806.51378938 Ry
     Harris-Foulkes estimate   =   -1806.54964466 Ry
     estimated scf accuracy    <       0.36093457 Ry

     iteration # 10     ecut=    30.00 Ry     beta=0.70
     Davidson diagonalization with overlap
     ethr =  5.65E-05,  avg # of iterations =  1.0

     total cpu time spent up to now is       31.3 secs

     total energy              =   -1806.51917139 Ry
     Harris-Foulkes estimate   =   -1806.52957360 Ry
     estimated scf accuracy    <       0.11226430 Ry

     iteration # 11     ecut=    30.00 Ry     beta=0.70
     Davidson diagonalization with overlap
     ethr =  2.19E-05,  avg # of iterations =  1.0

     total cpu time spent up to now is       32.5 secs

     total energy              =   -1806.51893559 Ry
     Harris-Foulkes estimate   =   -1806.52492892 Ry
     estimated scf accuracy    <       0.03561885 Ry

     iteration # 12     ecut=    30.00 Ry     beta=0.70
     Davidson diagonalization with overlap
     ethr =  6.96E-06,  avg # of iterations = 12.0

     total cpu time spent up to now is       37.2 secs

     total energy              =   -1806.50561755 Ry
     Harris-Foulkes estimate   =   -1806.53899864 Ry
     estimated scf accuracy    <       0.51775326 Ry

     iteration # 13     ecut=    30.00 Ry     beta=0.70
     Davidson diagonalization with overlap
     ethr =  6.96E-06,  avg # of iterations =  2.0

     total cpu time spent up to now is       38.6 secs

     total energy              =   -1806.51971839 Ry
     Harris-Foulkes estimate   =   -1806.52126113 Ry
     estimated scf accuracy    <       0.00931280 Ry

     iteration # 14     ecut=    30.00 Ry     beta=0.70
     Davidson diagonalization with overlap
     ethr =  1.82E-06,  avg # of iterations =  3.0

     total cpu time spent up to now is       40.4 secs

     total energy              =   -1806.52047699 Ry
     Harris-Foulkes estimate   =   -1806.52060484 Ry
     estimated scf accuracy    <       0.00082425 Ry

     iteration # 15     ecut=    30.00 Ry     beta=0.70
     Davidson diagonalization with overlap
     ethr =  1.61E-07,  avg # of iterations =  2.0

     total cpu time spent up to now is       41.8 secs

     total energy              =   -1806.52055281 Ry
     Harris-Foulkes estimate   =   -1806.52056305 Ry
     estimated scf accuracy    <       0.00008481 Ry

     iteration # 16     ecut=    30.00 Ry     beta=0.70
     Davidson diagonalization with overlap
     ethr =  1.66E-08,  avg # of iterations =  3.0

     total cpu time spent up to now is       43.6 secs

     total energy              =   -1806.52056237 Ry
     Harris-Foulkes estimate   =   -1806.52056770 Ry
     estimated scf accuracy    <       0.00004770 Ry

     iteration # 17     ecut=    30.00 Ry     beta=0.70
     Davidson diagonalization with overlap
     ethr =  9.32E-09,  avg # of iterations =  2.0

     total cpu time spent up to now is       45.0 secs

     total energy              =   -1806.52056652 Ry
     Harris-Foulkes estimate   =   -1806.52056665 Ry
     estimated scf accuracy    <       0.00000180 Ry

     iteration # 18     ecut=    30.00 Ry     beta=0.70
     Davidson diagonalization with overlap
     ethr =  3.52E-10,  avg # of iterations =  3.0

     total cpu time spent up to now is       47.0 secs

     total energy              =   -1806.52056686 Ry
     Harris-Foulkes estimate   =   -1806.52056696 Ry
     estimated scf accuracy    <       0.00000192 Ry

     iteration # 19     ecut=    30.00 Ry     beta=0.70
     Davidson diagonalization with overlap
     ethr =  3.52E-10,  avg # of iterations =  3.0

     total cpu time spent up to now is       48.7 secs

     total energy              =   -1806.52056703 Ry
     Harris-Foulkes estimate   =   -1806.52056715 Ry
     estimated scf accuracy    <       0.00000090 Ry

     iteration # 20     ecut=    30.00 Ry     beta=0.70
     Davidson diagonalization with overlap
     ethr =  1.76E-10,  avg # of iterations =  2.0

     total cpu time spent up to now is       50.1 secs

     total energy              =   -1806.52056714 Ry
     Harris-Foulkes estimate   =   -1806.52056716 Ry
     estimated scf accuracy    <       0.00000013 Ry

     iteration # 21     ecut=    30.00 Ry     beta=0.70
     Davidson diagonalization with overlap
     ethr =  2.47E-11,  avg # of iterations =  2.0

     total cpu time spent up to now is       51.5 secs

     total energy              =   -1806.52056717 Ry
     Harris-Foulkes estimate   =   -1806.52056716 Ry
     estimated scf accuracy    <       0.00000003 Ry

     iteration # 22     ecut=    30.00 Ry     beta=0.70
     Davidson diagonalization with overlap
     ethr =  6.19E-12,  avg # of iterations =  4.0

     total cpu time spent up to now is       53.6 secs

     End of self-consistent calculation

          k = 0.0000 0.0000 0.0000 ( 22119 PWs)   bands (ev):

   -41.0207 -39.6653 -39.4915 -38.6407 -38.1318 -37.7983 -37.1730 -36.1162
   -35.2169 -34.8821 -34.4885 -34.1431 -33.7804 -33.5662 -33.3250 -32.8248
   -32.5451 -32.4356 -32.3066 -31.7531 -31.6683 -31.5163 -31.3789 -31.0231
   -30.8718 -30.4569 -30.2564 -30.1646 -29.9649 -29.7718 -29.6437 -29.4395
   -29.3838 -29.2823 -29.1638 -29.1008 -28.9626 -28.8991 -28.7006 -28.5401
   -28.4547 -28.3186 -28.1880 -27.9305 -27.8215 -27.6444 -27.5935 -27.2924
   -27.1355 -26.9209 -26.7438 -26.6553 -26.5463 -26.2403 -26.0356 -25.7026
   -25.4815 -25.4389 -25.2894 -25.1434 -24.9578 -24.8860 -24.7596 -24.3352
   -21.9629 -21.5523 -21.2211 -20.8445 -20.6045 -20.2749 -20.1612 -19.7238
   -19.3459 -19.2853 -19.0285 -18.7153 -18.6693 -18.4467 -18.0219 -17.5572
   -17.3669 -17.2739 -16.9770 -16.7282 -16.5612 -16.5262 -16.3807 -16.1943
   -16.0791 -16.0688 -15.8699 -15.8079 -15.7638 -15.6666 -15.6448 -15.4339
   -15.2905 -15.2264 -15.2080 -15.0356 -15.0083 -14.6084 -14.5384 -14.3914
   -14.2365 -14.1166 -13.9622 -13.8273 -13.7912 -13.5411 -13.5373 -13.3917
   -13.1661 -12.9339 -12.9182 -12.7287 -12.4350 -12.2995 -12.1354 -11.9047
   -11.7320 -11.3979 -11.1393 -10.9231 -10.8122 -10.7377 -10.4806 -10.3841
    -9.9554  -9.7580  -9.4344  -9.4082  -9.2396  -9.0876  -9.0708  -8.6729
    -8.4928  -8.3341  -8.0744  -8.0327  -7.6669  -7.5759  -7.4713  -7.3649
    -7.0982  -7.0143  -6.8915  -6.8155  -6.6611  -6.5589  -6.3394  -6.1145
    -5.9936  -5.9562  -5.6897  -5.6048  -5.5791  -5.5144  -5.3007  -5.1651
    -5.1000  -5.0566  -5.0341  -4.7214  -4.6436  -4.5820  -4.5593  -4.3859
    -4.2775  -4.1737  -3.9842  -3.9040  -3.8627  -3.7757  -3.7516  -3.6869
    -3.5837  -3.5596  -3.4090  -3.3518  -3.2627  -3.1826  -3.0809  -3.0305
    -2.8496  -2.7800  -2.7533  -2.6734  -2.5753  -2.4457  -2.3708  -2.2869
    -2.2469  -2.1728  -2.0797  -1.9359  -1.8904  -1.6865  -1.6747  -1.5640
    -1.4222  -1.3700  -1.3268  -1.2024  -1.0251  -0.9635  -0.9414  -0.6574
    -0.6206  -0.6089  -0.4244  -0.3237  -0.2596  -0.2009  -0.0587   0.0084
     0.0723   0.1485   0.3566   0.4402   0.4738   0.5921   0.6469   0.7743
     0.9031   1.0517   1.0878   1.1504   1.3046   1.4131   1.5394   1.5870
     1.6589   1.8329   1.8500   1.9683   2.1521   2.2105   2.2964   2.4013
     2.4862   2.7166   2.8195   3.1637   3.1848   3.4397   3.7766   3.9834
     4.0522   4.1199   4.3704   4.5457   4.9701   5.1661   5.3500   5.3960
     5.4873   6.2189   6.3767   6.5362   6.8961   7.1450   7.1966   7.2843
     7.4876   7.7325   7.8097   7.9376   8.0337   8.4859   8.5898   8.6928
     8.8125   8.8668   9.0170   9.4535   9.4914   9.5992   9.7577  10.0240
    10.1216  10.2080  10.2622  10.3850  10.5207  10.5661  10.7395  10.7974
    10.8551  10.9722  11.1068  11.2432  11.2690  11.3007  11.5231  11.5644
    11.6235  11.6859  11.7539  11.8030  11.8895  11.9246  12.0038  12.0896
    12.1964  12.2189  12.2739

     the Fermi energy is     5.5170 ev

!    total energy              =   -1806.52056718 Ry
     Harris-Foulkes estimate   =   -1806.52056718 Ry
     estimated scf accuracy    <          2.3E-09 Ry

     The total energy is the sum of the following terms:

     one-electron contribution =  -13185.24990316 Ry
     hartree contribution      =    6766.45308810 Ry
     xc contribution           =    -633.16939301 Ry
     ewald contribution        =    5245.45011895 Ry
     smearing contrib. (-TS)   =      -0.00447806 Ry

     convergence has been achieved in  22 iterations

     Writing output data file pwscf.save
 
     init_run     :      0.56s CPU      0.62s WALL (       1 calls)
     electrons    :     51.37s CPU     52.89s WALL (       1 calls)

     Called by init_run:
     wfcinit      :      0.46s CPU      0.52s WALL (       1 calls)
     potinit      :      0.02s CPU      0.02s WALL (       1 calls)

     Called by electrons:
     c_bands      :     49.20s CPU     50.42s WALL (      22 calls)
     sum_band     :      1.77s CPU      1.81s WALL (      22 calls)
     v_of_rho     :      0.18s CPU      0.19s WALL (      23 calls)
     mix_rho      :      0.13s CPU      0.25s WALL (      22 calls)

     Called by c_bands:
     init_us_2    :      0.06s CPU      0.06s WALL (      45 calls)
     cegterg      :     49.07s CPU     50.21s WALL (      22 calls)

     Called by sum_band:

     Called by *egterg:
     h_psi        :      8.19s CPU      8.34s WALL (     108 calls)
     g_psi        :      0.07s CPU      0.07s WALL (      85 calls)
     cdiaghg      :     31.93s CPU     31.96s WALL (     107 calls)

     Called by h_psi:
     h_psi:pot    :      7.99s CPU      8.13s WALL (     108 calls)
     h_psi:calbec :      0.30s CPU      0.31s WALL (     108 calls)
     vloc_psi     :      7.42s CPU      7.56s WALL (     108 calls)
     add_vuspsi   :      0.26s CPU      0.27s WALL (     108 calls)

     General routines
     calbec       :      0.30s CPU      0.31s WALL (     108 calls)
     fft          :      0.10s CPU      0.11s WALL (     252 calls)
     fftw         :      8.26s CPU      8.41s WALL (   37830 calls)
     davcio       :      0.02s CPU      0.13s WALL (     348 calls)
 
     Parallel routines
     fft_scatter  :      2.78s CPU      2.85s WALL (   38082 calls)
 
     PWSCF        :    52.08s CPU        53.90s WALL

 
   This run was terminated on:  22:42:22   2Feb2018            

=------------------------------------------------------------------------------=
   JOB DONE.
=------------------------------------------------------------------------------=
