
     Program PWSCF v.6.0 (svn rev. 13079) starts on  2Feb2018 at 23: 0:27 

     This program is part of the open-source Quantum ESPRESSO suite
     for quantum simulation of materials; please cite
         "P. Giannozzi et al., J. Phys.:Condens. Matter 21 395502 (2009);
          URL http://www.quantum-espresso.org", 
     in publications or presentations arising from this work. More details at
     http://www.quantum-espresso.org/quote

     Parallel version (MPI), running on    28 processors
     R & G space division:  proc/nbgrp/npool/nimage =      28
     Reading input from input/scf-bigwater-1/1115.in
Warning: card &IONS ignored
Warning: card     POT_EXTRAPOLATION='SECOND-ORDER' ignored
Warning: card     WFC_EXTRAPOLATION='SECOND-ORDER' ignored
Warning: card     ION_TEMPERATURE = 'ANDERSEN' ignored
Warning: card     TEMPW = 1000 ignored
Warning: card / ignored

     Current dimensions of program PWSCF are:
     Max number of different atomic species (ntypx) = 10
     Max number of k-points (npk) =  40000
     Max angular momentum in pseudopotentials (lmaxx) =  3

     Subspace diagonalization in iterative solution of the eigenvalue problem:
     a serial algorithm will be used

 
     Parallelization info
     --------------------
     sticks:   dense  smooth     PW     G-vecs:    dense   smooth      PW
     Min         136     136     33                 6338     6338     787
     Max         137     137     34                 6341     6341     792
     Sum        3809    3809    949               177509   177509   22119
 


     bravais-lattice index     =            1
     lattice parameter (alat)  =      20.0000  a.u.
     unit-cell volume          =    8000.0000 (a.u.)^3
     number of atoms/cell      =          192
     number of atomic types    =            2
     number of electrons       =       512.00
     number of Kohn-Sham states=          307
     kinetic-energy cutoff     =      30.0000  Ry
     charge density cutoff     =     120.0000  Ry
     convergence threshold     =      1.0E-08
     mixing beta               =       0.7000
     number of iterations used =            8  plain     mixing
     Exchange-correlation      = BLYP ( 1  3  1  3 0 0)

     celldm(1)=  20.000000  celldm(2)=   0.000000  celldm(3)=   0.000000
     celldm(4)=   0.000000  celldm(5)=   0.000000  celldm(6)=   0.000000

     crystal axes: (cart. coord. in units of alat)
               a(1) = (   1.000000   0.000000   0.000000 )  
               a(2) = (   0.000000   1.000000   0.000000 )  
               a(3) = (   0.000000   0.000000   1.000000 )  

     reciprocal axes: (cart. coord. in units 2 pi/alat)
               b(1) = (  1.000000  0.000000  0.000000 )  
               b(2) = (  0.000000  1.000000  0.000000 )  
               b(3) = (  0.000000  0.000000  1.000000 )  


     PseudoPot. # 1 for  H read from file:
     ./H.blyp-hgh.UPF
     MD5 check sum: c576e69559cde411e611be972c763230
     Pseudo is Norm-conserving, Zval =  1.0
     Generated in analytical, separable form
     Using radial grid of  929 points,  0 beta functions with: 

     PseudoPot. # 2 for  O read from file:
     ./O.blyp-hgh.UPF
     MD5 check sum: d0b7156309aa9befef28faac7bc56342
     Pseudo is Norm-conserving, Zval =  6.0
     Generated in analytical, separable form
     Using radial grid of 1095 points,  1 beta functions with: 
                l(1) =   0

     atomic species   valence    mass     pseudopotential
        H              1.00     1.01000      H( 1.00)
        O              6.00    16.00000      O( 1.00)

     No symmetry found



   Cartesian axes

     site n.     atom                  positions (alat units)
         1           O   tau(   1) = (  -0.2808896  -0.0817376  -0.0273879  )
         2           O   tau(   2) = (   0.1546287  -0.1213907   0.3109980  )
         3           O   tau(   3) = (  -0.2868519   0.3382224  -0.2809122  )
         4           O   tau(   4) = (   0.0849350   0.1342590  -0.0537511  )
         5           O   tau(   5) = (  -0.2489384   0.0492545   0.2085270  )
         6           O   tau(   6) = (   0.0124164   0.2968572   0.2957121  )
         7           O   tau(   7) = (  -0.0750271  -0.2933657  -0.1259621  )
         8           O   tau(   8) = (   0.1673095   0.0659187   0.2354084  )
         9           O   tau(   9) = (  -0.1467781  -0.3369213   0.2729601  )
        10           O   tau(  10) = (   0.0909652  -0.1256856   0.1847805  )
        11           O   tau(  11) = (   0.1320906  -0.3209466   0.1130591  )
        12           O   tau(  12) = (  -0.1592299  -0.1802736   0.2380812  )
        13           O   tau(  13) = (  -0.2252528  -0.3496610   0.0003798  )
        14           O   tau(  14) = (  -0.1863521  -0.2097739  -0.2014760  )
        15           O   tau(  15) = (   0.1202995  -0.2064716  -0.0931777  )
        16           O   tau(  16) = (  -0.0852963   0.1550145  -0.0689268  )
        17           O   tau(  17) = (  -0.0613437  -0.1444556   0.0808543  )
        18           O   tau(  18) = (   0.0055083  -0.2435567   0.1792958  )
        19           O   tau(  19) = (   0.2167992  -0.2101887  -0.2292534  )
        20           O   tau(  20) = (   0.2357950   0.2233423   0.1078942  )
        21           O   tau(  21) = (   0.2599126  -0.1987540   0.1994173  )
        22           O   tau(  22) = (  -0.1231846  -0.0991043  -0.1509775  )
        23           O   tau(  23) = (  -0.0541130   0.1667682  -0.2329111  )
        24           O   tau(  24) = (   0.2220766   0.0857126   0.0702216  )
        25           O   tau(  25) = (   0.1464137   0.0770962  -0.1723636  )
        26           O   tau(  26) = (  -0.2293753   0.1750429  -0.2692351  )
        27           O   tau(  27) = (   0.2443812  -0.2793854   0.0166126  )
        28           O   tau(  28) = (   0.0333673  -0.0360728  -0.3021146  )
        29           O   tau(  29) = (  -0.1307669   0.0273796  -0.2601011  )
        30           O   tau(  30) = (   0.0290523  -0.0393857   0.0835480  )
        31           O   tau(  31) = (   0.2979661  -0.1034247  -0.1897348  )
        32           O   tau(  32) = (   0.2138975  -0.0120590  -0.0716796  )
        33           O   tau(  33) = (   0.0146592   0.2198073   0.1940115  )
        34           O   tau(  34) = (  -0.2317287   0.0112553  -0.1580661  )
        35           O   tau(  35) = (  -0.0026577  -0.2024997  -0.0389925  )
        36           O   tau(  36) = (   0.2729778   0.2040136  -0.3755984  )
        37           O   tau(  37) = (   0.1995789   0.3294965   0.2739863  )
        38           O   tau(  38) = (  -0.2887787   0.2890001  -0.1105447  )
        39           O   tau(  39) = (  -0.0008427   0.0583903  -0.1348421  )
        40           O   tau(  40) = (  -0.2158473  -0.2088124  -0.0455874  )
        41           O   tau(  41) = (  -0.1468939   0.2909248   0.1340916  )
        42           O   tau(  42) = (  -0.1433866   0.1500011   0.1863730  )
        43           O   tau(  43) = (  -0.1037245  -0.0659109  -0.0230001  )
        44           O   tau(  44) = (  -0.0854931  -0.0736920   0.2642835  )
        45           O   tau(  45) = (   0.0194839   0.1173228   0.2775597  )
        46           O   tau(  46) = (  -0.2234969   0.1482570   0.0843655  )
        47           O   tau(  47) = (   0.1832285   0.2543793  -0.0972386  )
        48           O   tau(  48) = (   0.0638584  -0.2833981  -0.1823918  )
        49           O   tau(  49) = (  -0.1505172   0.2322642  -0.1620410  )
        50           O   tau(  50) = (   0.2791031   0.0585420   0.3357677  )
        51           O   tau(  51) = (  -0.0682396   0.0447591   0.1072541  )
        52           O   tau(  52) = (   0.0095972  -0.0878497  -0.1796804  )
        53           O   tau(  53) = (   0.0085765  -0.1854398  -0.2798515  )
        54           O   tau(  54) = (   0.3629345  -0.3254741   0.2007716  )
        55           O   tau(  55) = (   0.1914095  -0.1427250   0.0624409  )
        56           O   tau(  56) = (   0.3032247  -0.0702486   0.1482627  )
        57           O   tau(  57) = (   0.0845033   0.1933885  -0.2031889  )
        58           O   tau(  58) = (  -0.0853308  -0.3751712   0.0416478  )
        59           O   tau(  59) = (  -0.2302442  -0.0669663  -0.3502389  )
        60           O   tau(  60) = (  -0.2196967   0.0741379  -0.0355533  )
        61           O   tau(  61) = (   0.2571539   0.1859942  -0.2261938  )
        62           O   tau(  62) = (   0.0719967  -0.0569562  -0.0595156  )
        63           O   tau(  63) = (  -0.2542577  -0.2026949   0.1122838  )
        64           O   tau(  64) = (   0.0874831   0.1418511   0.1115363  )
        65           H   tau(  65) = (  -0.2541074  -0.1232985  -0.0304254  )
        66           H   tau(  66) = (  -0.2460984  -0.0528298  -0.0064529  )
        67           H   tau(  67) = (   0.1275315  -0.1117970   0.3500545  )
        68           H   tau(  68) = (   0.1235010  -0.1250011   0.2733036  )
        69           H   tau(  69) = (  -0.2673137   0.2944487  -0.2702922  )
        70           H   tau(  70) = (  -0.2558673   0.3698962  -0.2578518  )
        71           H   tau(  71) = (   0.1198834   0.1667182  -0.0639525  )
        72           H   tau(  72) = (   0.0440759   0.1582381  -0.0405039  )
        73           H   tau(  73) = (  -0.2776308   0.0137029   0.2244585  )
        74           H   tau(  74) = (  -0.2126714   0.0385848   0.2382208  )
        75           H   tau(  75) = (   0.0235743   0.3447458   0.2944930  )
        76           H   tau(  76) = (   0.0189757   0.2822887   0.3418393  )
        77           H   tau(  77) = (  -0.0641961  -0.3401715  -0.1174939  )
        78           H   tau(  78) = (  -0.0434735  -0.2812465  -0.1613564  )
        79           H   tau(  79) = (   0.1898140   0.0950720   0.2041476  )
        80           H   tau(  80) = (   0.1740142   0.0192018   0.2238028  )
        81           H   tau(  81) = (  -0.1581749  -0.3703149   0.3071750  )
        82           H   tau(  82) = (  -0.1063000  -0.3135727   0.2875459  )
        83           H   tau(  83) = (   0.0718113  -0.0889953   0.1590427  )
        84           H   tau(  84) = (   0.1347881  -0.1279139   0.1625090  )
        85           H   tau(  85) = (   0.0976708  -0.2946076   0.1364097  )
        86           H   tau(  86) = (   0.1509241  -0.2951709   0.0757831  )
        87           H   tau(  87) = (  -0.1598090  -0.2290511   0.2420517  )
        88           H   tau(  88) = (  -0.1593822  -0.1818202   0.1894503  )
        89           H   tau(  89) = (  -0.2315137  -0.3978670   0.0045020  )
        90           H   tau(  90) = (  -0.2476176  -0.3313618  -0.0385188  )
        91           H   tau(  91) = (  -0.1611045  -0.1689759  -0.1870045  )
        92           H   tau(  92) = (  -0.1636416  -0.2491849  -0.1833304  )
        93           H   tau(  93) = (   0.1495982  -0.1770168  -0.1179981  )
        94           H   tau(  94) = (   0.0832334  -0.1865865  -0.0667847  )
        95           H   tau(  95) = (  -0.0906556   0.1836482  -0.1070409  )
        96           H   tau(  96) = (  -0.0779917   0.1834437  -0.0280247  )
        97           H   tau(  97) = (  -0.0742533  -0.1129563   0.0457651  )
        98           H   tau(  98) = (  -0.0186909  -0.1216731   0.0899602  )
        99           H   tau(  99) = (   0.0311215  -0.2027480   0.1667177  )
       100           H   tau( 100) = (  -0.0291540  -0.2487863   0.1452735  )
       101           H   tau( 101) = (   0.2376241  -0.2523218  -0.2443651  )
       102           H   tau( 102) = (   0.1927929  -0.1885956  -0.2680713  )
       103           H   tau( 103) = (   0.1961935   0.2437202   0.1294897  )
       104           H   tau( 104) = (   0.2684998   0.2583803   0.1177480  )
       105           H   tau( 105) = (   0.2802837  -0.1551289   0.2082674  )
       106           H   tau( 106) = (   0.2383696  -0.2144771   0.2406450  )
       107           H   tau( 107) = (  -0.0747965  -0.0987662  -0.1666299  )
       108           H   tau( 108) = (  -0.1439368  -0.0614433  -0.1760932  )
       109           H   tau( 109) = (  -0.0054195   0.1619857  -0.2283927  )
       110           H   tau( 110) = (  -0.0651980   0.1198732  -0.2431643  )
       111           H   tau( 111) = (   0.2607705   0.1148974   0.0750830  )
       112           H   tau( 112) = (   0.1823878   0.1140909   0.0684573  )
       113           H   tau( 113) = (   0.1211451   0.0355965  -0.1680096  )
       114           H   tau( 114) = (   0.1182409   0.1167026  -0.1799996  )
       115           H   tau( 115) = (  -0.2537345   0.1914460  -0.3085478  )
       116           H   tau( 116) = (  -0.2549881   0.1333602  -0.2666093  )
       117           H   tau( 117) = (   0.2532180  -0.3194315   0.0433119  )
       118           H   tau( 118) = (   0.2885510  -0.2620660   0.0053675  )
       119           H   tau( 119) = (   0.0010912  -0.0360030  -0.3400527  )
       120           H   tau( 120) = (   0.0616187   0.0039024  -0.3092462  )
       121           H   tau( 121) = (  -0.1443503  -0.0085864  -0.2905737  )
       122           H   tau( 122) = (  -0.1683070   0.0583345  -0.2617367  )
       123           H   tau( 123) = (  -0.0096188  -0.0098336   0.0906076  )
       124           H   tau( 124) = (   0.0468730  -0.0356117   0.0378007  )
       125           H   tau( 125) = (   0.2755832  -0.1460504  -0.2054323  )
       126           H   tau( 126) = (   0.3231881  -0.1150542  -0.1492217  )
       127           H   tau( 127) = (   0.2143162   0.0228904  -0.0366997  )
       128           H   tau( 128) = (   0.2586797  -0.0347124  -0.0691738  )
       129           H   tau( 129) = (   0.0075715   0.2576531   0.2266345  )
       130           H   tau( 130) = (  -0.0335742   0.2050855   0.1933385  )
       131           H   tau( 131) = (  -0.2137692  -0.0040522  -0.1154975  )
       132           H   tau( 132) = (  -0.2679783  -0.0206681  -0.1661556  )
       133           H   tau( 133) = (  -0.0257332  -0.2042709  -0.0820123  )
       134           H   tau( 134) = (  -0.0369633  -0.1834020  -0.0092385  )
       135           H   tau( 135) = (   0.2762889   0.2517930  -0.3644948  )
       136           H   tau( 136) = (   0.2667924   0.2040516  -0.4244872  )
       137           H   tau( 137) = (   0.1633733   0.3029828   0.2534603  )
       138           H   tau( 138) = (   0.1949784   0.3161673   0.3211969  )
       139           H   tau( 139) = (  -0.3082655   0.2438515  -0.1211350  )
       140           H   tau( 140) = (  -0.2388606   0.2889613  -0.1151865  )
       141           H   tau( 141) = (  -0.0455390   0.0780686  -0.1290255  )
       142           H   tau( 142) = (   0.0292843   0.0898576  -0.1123516  )
       143           H   tau( 143) = (  -0.1830313  -0.2040306  -0.0808716  )
       144           H   tau( 144) = (  -0.2014052  -0.2201140  -0.0002911  )
       145           H   tau( 145) = (  -0.1785913   0.2794615   0.0980688  )
       146           H   tau( 146) = (  -0.1779332   0.3008721   0.1719442  )
       147           H   tau( 147) = (  -0.1306829   0.1846451   0.1540498  )
       148           H   tau( 148) = (  -0.1761175   0.1733128   0.2143066  )
       149           H   tau( 149) = (  -0.1027866  -0.0719123  -0.0721076  )
       150           H   tau( 150) = (  -0.1037723  -0.0170368  -0.0214107  )
       151           H   tau( 151) = (  -0.1021587  -0.0931246   0.2227457  )
       152           H   tau( 152) = (  -0.0827377  -0.1119219   0.2945972  )
       153           H   tau( 153) = (   0.0426074   0.1483182   0.2466196  )
       154           H   tau( 154) = (  -0.0257882   0.1351571   0.2752795  )
       155           H   tau( 155) = (  -0.2312084   0.1333160   0.1306646  )
       156           H   tau( 156) = (  -0.1888997   0.1189777   0.0669383  )
       157           H   tau( 157) = (   0.1907414   0.2950185  -0.0695527  )
       158           H   tau( 158) = (   0.1983118   0.2686855  -0.1415951  )
       159           H   tau( 159) = (   0.0371980  -0.2435335  -0.1867395  )
       160           H   tau( 160) = (   0.0886584  -0.2741560  -0.1395858  )
       161           H   tau( 161) = (  -0.1948187   0.2205411  -0.1802718  )
       162           H   tau( 162) = (  -0.1176203   0.2053684  -0.1890470  )
       163           H   tau( 163) = (   0.2625641   0.0323582   0.3729462  )
       164           H   tau( 164) = (   0.2382263   0.0623141   0.3068179  )
       165           H   tau( 165) = (  -0.1015909   0.0778893   0.1226303  )
       166           H   tau( 166) = (  -0.0336265   0.0740236   0.0839980  )
       167           H   tau( 167) = (   0.0332578  -0.0717529  -0.1391280  )
       168           H   tau( 168) = (   0.0102225  -0.0578498  -0.2196941  )
       169           H   tau( 169) = (   0.0374212  -0.1736648  -0.2418848  )
       170           H   tau( 170) = (   0.0299335  -0.1573428  -0.3137445  )
       171           H   tau( 171) = (   0.3588252  -0.3165557   0.2489348  )
       172           H   tau( 172) = (   0.3440693  -0.2840744   0.1818337  )
       173           H   tau( 173) = (   0.2155707  -0.1846926   0.0553958  )
       174           H   tau( 174) = (   0.1814321  -0.1245431   0.0183222  )
       175           H   tau( 175) = (   0.3140754  -0.0307897   0.1207566  )
       176           H   tau( 176) = (   0.2552435  -0.0755887   0.1361771  )
       177           H   tau( 177) = (   0.0834457   0.1825523  -0.2510750  )
       178           H   tau( 178) = (   0.0815436   0.2423979  -0.1997159  )
       179           H   tau( 179) = (  -0.0578415  -0.3631033   0.0802272  )
       180           H   tau( 180) = (  -0.1130392  -0.3358616   0.0324953  )
       181           H   tau( 181) = (  -0.2710482  -0.0766565  -0.3249328  )
       182           H   tau( 182) = (  -0.2056826  -0.1092602  -0.3483322  )
       183           H   tau( 183) = (  -0.2166710   0.1176947  -0.0572568  )
       184           H   tau( 184) = (  -0.2645672   0.0553416  -0.0402817  )
       185           H   tau( 185) = (   0.2293273   0.2146692  -0.2546551  )
       186           H   tau( 186) = (   0.2575273   0.1441062  -0.2535301  )
       187           H   tau( 187) = (   0.1218757  -0.0503113  -0.0582881  )
       188           H   tau( 188) = (   0.0589808  -0.0126304  -0.0779345  )
       189           H   tau( 189) = (  -0.2055757  -0.1926103   0.1118098  )
       190           H   tau( 190) = (  -0.2750593  -0.1597651   0.1005360  )
       191           H   tau( 191) = (   0.0911880   0.1898788   0.1194678  )
       192           H   tau( 192) = (   0.0714378   0.1421441   0.0654416  )

     number of k points=     1  Marzari-Vanderbilt smearing, width (Ry)=  0.0250
                       cart. coord. in units 2pi/alat
        k(    1) = (   0.0000000   0.0000000   0.0000000), wk =   2.0000000

     Dense  grid:   177509 G-vectors     FFT dimensions: (  72,  72,  72)

     Estimated max dynamical RAM per process >      67.80Mb

     Estimated total allocated dynamical RAM >    1898.40Mb

     Initial potential from superposition of free atoms
     Check: negative starting charge=   -0.704704

     starting charge  511.99856, renormalised to  512.00000

     negative rho (up, down):  7.047E-01 0.000E+00
     Starting wfc are  384 randomized atomic wfcs

     total cpu time spent up to now is        0.8 secs

     per-process dynamical memory:    45.9 Mb

     Self-consistent Calculation

     iteration #  1     ecut=    30.00 Ry     beta=0.70
     Davidson diagonalization with overlap
     ethr =  1.00E-02,  avg # of iterations =  9.0

     negative rho (up, down):  1.660E-01 0.000E+00

     total cpu time spent up to now is       10.1 secs

     total energy              =   -1801.29268178 Ry
     Harris-Foulkes estimate   =   -1828.17296032 Ry
     estimated scf accuracy    <      42.00830501 Ry

     iteration #  2     ecut=    30.00 Ry     beta=0.70
     Davidson diagonalization with overlap
     ethr =  8.20E-03,  avg # of iterations =  4.0

     negative rho (up, down):  1.529E-03 0.000E+00

     total cpu time spent up to now is       13.2 secs

     total energy              =   -1785.66937622 Ry
     Harris-Foulkes estimate   =   -1813.83603687 Ry
     estimated scf accuracy    <      58.04447339 Ry

     iteration #  3     ecut=    30.00 Ry     beta=0.70
     Davidson diagonalization with overlap
     ethr =  8.20E-03,  avg # of iterations =  4.0

     negative rho (up, down):  5.060E-06 0.000E+00

     total cpu time spent up to now is       16.4 secs

     total energy              =   -1801.72835991 Ry
     Harris-Foulkes estimate   =   -1816.10369868 Ry
     estimated scf accuracy    <      45.03505964 Ry

     iteration #  4     ecut=    30.00 Ry     beta=0.70
     Davidson diagonalization with overlap
     ethr =  8.20E-03,  avg # of iterations =  3.0

     total cpu time spent up to now is       18.2 secs

     total energy              =   -1808.70675032 Ry
     Harris-Foulkes estimate   =   -1810.68393070 Ry
     estimated scf accuracy    <       5.91271108 Ry

     iteration #  5     ecut=    30.00 Ry     beta=0.70
     Davidson diagonalization with overlap
     ethr =  1.15E-03,  avg # of iterations =  5.0

     total cpu time spent up to now is       20.7 secs

     total energy              =   -1808.48085694 Ry
     Harris-Foulkes estimate   =   -1809.05458818 Ry
     estimated scf accuracy    <       2.03613681 Ry

     iteration #  6     ecut=    30.00 Ry     beta=0.70
     Davidson diagonalization with overlap
     ethr =  3.98E-04,  avg # of iterations =  6.0

     total cpu time spent up to now is       23.4 secs

     total energy              =   -1808.51668543 Ry
     Harris-Foulkes estimate   =   -1808.60844017 Ry
     estimated scf accuracy    <       0.82826239 Ry

     iteration #  7     ecut=    30.00 Ry     beta=0.70
     Davidson diagonalization with overlap
     ethr =  1.62E-04,  avg # of iterations =  1.0

     total cpu time spent up to now is       24.5 secs

     total energy              =   -1808.34774645 Ry
     Harris-Foulkes estimate   =   -1808.55796413 Ry
     estimated scf accuracy    <       0.59981210 Ry

     iteration #  8     ecut=    30.00 Ry     beta=0.70
     Davidson diagonalization with overlap
     ethr =  1.17E-04,  avg # of iterations =  5.0

     total cpu time spent up to now is       27.2 secs

     total energy              =   -1808.39121881 Ry
     Harris-Foulkes estimate   =   -1808.44251682 Ry
     estimated scf accuracy    <       0.37008632 Ry

     iteration #  9     ecut=    30.00 Ry     beta=0.70
     Davidson diagonalization with overlap
     ethr =  7.23E-05,  avg # of iterations =  2.0

     total cpu time spent up to now is       28.6 secs

     total energy              =   -1808.39653919 Ry
     Harris-Foulkes estimate   =   -1808.44041141 Ry
     estimated scf accuracy    <       0.45006596 Ry

     iteration # 10     ecut=    30.00 Ry     beta=0.70
     Davidson diagonalization with overlap
     ethr =  7.23E-05,  avg # of iterations =  1.0

     total cpu time spent up to now is       29.7 secs

     total energy              =   -1808.39758775 Ry
     Harris-Foulkes estimate   =   -1808.42093197 Ry
     estimated scf accuracy    <       0.19938325 Ry

     iteration # 11     ecut=    30.00 Ry     beta=0.70
     Davidson diagonalization with overlap
     ethr =  3.89E-05,  avg # of iterations =  1.0

     total cpu time spent up to now is       30.9 secs

     total energy              =   -1808.40707782 Ry
     Harris-Foulkes estimate   =   -1808.41320698 Ry
     estimated scf accuracy    <       0.09814175 Ry

     iteration # 12     ecut=    30.00 Ry     beta=0.70
     Davidson diagonalization with overlap
     ethr =  1.92E-05,  avg # of iterations =  4.0

     total cpu time spent up to now is       32.8 secs

     total energy              =   -1808.40440205 Ry
     Harris-Foulkes estimate   =   -1808.40887076 Ry
     estimated scf accuracy    <       0.03266099 Ry

     iteration # 13     ecut=    30.00 Ry     beta=0.70
     Davidson diagonalization with overlap
     ethr =  6.38E-06,  avg # of iterations =  9.0

     total cpu time spent up to now is       36.4 secs

     total energy              =   -1808.40600313 Ry
     Harris-Foulkes estimate   =   -1808.40758358 Ry
     estimated scf accuracy    <       0.01383196 Ry

     iteration # 14     ecut=    30.00 Ry     beta=0.70
     Davidson diagonalization with overlap
     ethr =  2.70E-06,  avg # of iterations =  1.0

     total cpu time spent up to now is       37.6 secs

     total energy              =   -1808.40668024 Ry
     Harris-Foulkes estimate   =   -1808.40703591 Ry
     estimated scf accuracy    <       0.00448054 Ry

     iteration # 15     ecut=    30.00 Ry     beta=0.70
     Davidson diagonalization with overlap
     ethr =  8.75E-07,  avg # of iterations =  1.0

     total cpu time spent up to now is       38.7 secs

     total energy              =   -1808.40677084 Ry
     Harris-Foulkes estimate   =   -1808.40683071 Ry
     estimated scf accuracy    <       0.00063822 Ry

     iteration # 16     ecut=    30.00 Ry     beta=0.70
     Davidson diagonalization with overlap
     ethr =  1.25E-07,  avg # of iterations =  1.0

     total cpu time spent up to now is       39.8 secs

     total energy              =   -1808.40679426 Ry
     Harris-Foulkes estimate   =   -1808.40679908 Ry
     estimated scf accuracy    <       0.00004947 Ry

     iteration # 17     ecut=    30.00 Ry     beta=0.70
     Davidson diagonalization with overlap
     ethr =  9.66E-09,  avg # of iterations =  2.0

     total cpu time spent up to now is       41.2 secs

     total energy              =   -1808.40679592 Ry
     Harris-Foulkes estimate   =   -1808.40679655 Ry
     estimated scf accuracy    <       0.00000375 Ry

     iteration # 18     ecut=    30.00 Ry     beta=0.70
     Davidson diagonalization with overlap
     ethr =  7.32E-10,  avg # of iterations =  2.0

     total cpu time spent up to now is       42.6 secs

     total energy              =   -1808.40679621 Ry
     Harris-Foulkes estimate   =   -1808.40679647 Ry
     estimated scf accuracy    <       0.00000158 Ry

     iteration # 19     ecut=    30.00 Ry     beta=0.70
     Davidson diagonalization with overlap
     ethr =  3.09E-10,  avg # of iterations =  2.0

     total cpu time spent up to now is       44.0 secs

     total energy              =   -1808.40679639 Ry
     Harris-Foulkes estimate   =   -1808.40679638 Ry
     estimated scf accuracy    <       0.00000012 Ry

     iteration # 20     ecut=    30.00 Ry     beta=0.70
     Davidson diagonalization with overlap
     ethr =  2.37E-11,  avg # of iterations =  3.0

     total cpu time spent up to now is       45.8 secs

     total energy              =   -1808.40679642 Ry
     Harris-Foulkes estimate   =   -1808.40679641 Ry
     estimated scf accuracy    <       0.00000002 Ry

     iteration # 21     ecut=    30.00 Ry     beta=0.70
     Davidson diagonalization with overlap
     ethr =  4.79E-12,  avg # of iterations =  3.0

     total cpu time spent up to now is       47.5 secs

     End of self-consistent calculation

          k = 0.0000 0.0000 0.0000 ( 22119 PWs)   bands (ev):

   -40.9411 -39.7373 -39.5940 -38.6022 -38.0729 -37.8426 -37.2507 -36.0225
   -35.2216 -34.8391 -34.5224 -33.9470 -33.8194 -33.5320 -33.3582 -32.7958
   -32.6222 -32.3720 -32.1809 -31.5633 -31.3472 -31.2772 -31.0568 -30.7625
   -30.5982 -30.4519 -30.1510 -30.0908 -30.0609 -29.6612 -29.4358 -29.3240
   -29.2854 -29.1416 -29.0830 -28.9722 -28.8926 -28.8215 -28.6712 -28.5372
   -28.4708 -28.3352 -28.1267 -27.9212 -27.7680 -27.5175 -27.5042 -27.3708
   -27.2208 -26.9231 -26.8136 -26.6672 -26.3518 -26.2088 -25.9753 -25.7834
   -25.6335 -25.5434 -25.2861 -25.1070 -25.0209 -24.9177 -24.7029 -24.3554
   -22.0958 -21.5176 -21.2525 -20.7492 -20.3793 -20.3271 -19.9418 -19.5414
   -19.3519 -19.1671 -19.0990 -18.7066 -18.4855 -18.1875 -17.8639 -17.5265
   -17.4804 -17.0995 -16.9602 -16.7737 -16.4430 -16.2957 -16.1413 -16.0385
   -15.9121 -15.8305 -15.7820 -15.6541 -15.5771 -15.5264 -15.4668 -15.3202
   -15.2869 -15.0868 -14.8999 -14.7427 -14.4823 -14.3324 -14.2427 -14.1275
   -14.0108 -13.9227 -13.8804 -13.7302 -13.5561 -13.4630 -13.3607 -13.0303
   -12.9537 -12.8157 -12.7317 -12.5980 -12.4048 -12.3603 -12.2198 -12.1464
   -11.6209 -11.5011 -11.4243 -11.0184 -10.8658 -10.6419 -10.5187 -10.1937
    -9.9050  -9.8102  -9.4985  -9.2837  -9.1615  -9.1255  -8.9656  -8.7398
    -8.5225  -8.3090  -8.1177  -7.9143  -7.7309  -7.6821  -7.4405  -7.2866
    -7.1168  -6.9151  -6.7925  -6.7540  -6.5867  -6.4892  -6.2473  -6.0842
    -5.9883  -5.8906  -5.7128  -5.6517  -5.5347  -5.4012  -5.2621  -5.1721
    -5.0936  -4.9249  -4.9061  -4.8606  -4.7048  -4.5573  -4.4636  -4.3728
    -4.2647  -4.1142  -3.9864  -3.9094  -3.8152  -3.7933  -3.7094  -3.6672
    -3.5749  -3.5234  -3.4640  -3.3973  -3.2767  -3.1284  -3.0591  -2.9419
    -2.8862  -2.7915  -2.6591  -2.5818  -2.5377  -2.3619  -2.3170  -2.1945
    -2.1146  -2.0219  -1.9581  -1.8801  -1.7888  -1.7341  -1.4827  -1.4654
    -1.3978  -1.2965  -1.2594  -1.1248  -1.0739  -0.9812  -0.9572  -0.7241
    -0.6192  -0.5392  -0.4082  -0.3436  -0.2727  -0.1719  -0.1055  -0.0236
     0.0391   0.1645   0.2807   0.3431   0.4151   0.5111   0.6735   0.7454
     0.8208   0.8996   1.0359   1.0986   1.1600   1.2421   1.3960   1.4945
     1.5598   1.6988   1.7395   1.8685   1.9706   2.2055   2.3012   2.5379
     2.5840   2.7305   2.8395   3.2475   3.2730   3.4665   3.6474   3.8824
     3.9730   4.0178   4.2730   4.7522   4.9695   5.1639   5.3304   5.3939
     5.5412   6.2288   6.4406   6.6243   6.9102   7.1684   7.2347   7.3788
     7.5895   7.7837   7.8504   7.9251   8.0327   8.4894   8.6467   8.7268
     8.8115   8.8788   9.0131   9.4375   9.4685   9.6292   9.7672  10.0081
    10.1596  10.1981  10.2444  10.4122  10.5668  10.6380  10.7178  10.8114
    10.9056  10.9801  11.1145  11.2546  11.3049  11.3293  11.5212  11.5627
    11.6386  11.6566  11.7602  11.8233  11.8884  11.9423  12.0001  12.0743
    12.1154  12.2099  12.2884

     the Fermi energy is     5.5237 ev

!    total energy              =   -1808.40679641 Ry
     Harris-Foulkes estimate   =   -1808.40679642 Ry
     estimated scf accuracy    <          4.5E-09 Ry

     The total energy is the sum of the following terms:

     one-electron contribution =  -13137.26420242 Ry
     hartree contribution      =    6743.12300323 Ry
     xc contribution           =    -632.96475576 Ry
     ewald contribution        =    5218.69947044 Ry
     smearing contrib. (-TS)   =      -0.00031190 Ry

     convergence has been achieved in  21 iterations

     Writing output data file pwscf.save
 
     init_run     :      0.55s CPU      0.61s WALL (       1 calls)
     electrons    :     45.43s CPU     46.82s WALL (       1 calls)

     Called by init_run:
     wfcinit      :      0.46s CPU      0.50s WALL (       1 calls)
     potinit      :      0.02s CPU      0.03s WALL (       1 calls)

     Called by electrons:
     c_bands      :     43.35s CPU     44.50s WALL (      21 calls)
     sum_band     :      1.71s CPU      1.76s WALL (      21 calls)
     v_of_rho     :      0.16s CPU      0.17s WALL (      22 calls)
     mix_rho      :      0.12s CPU      0.22s WALL (      21 calls)

     Called by c_bands:
     init_us_2    :      0.05s CPU      0.06s WALL (      43 calls)
     cegterg      :     43.22s CPU     44.31s WALL (      21 calls)

     Called by sum_band:

     Called by *egterg:
     h_psi        :      7.83s CPU      7.97s WALL (      91 calls)
     g_psi        :      0.06s CPU      0.06s WALL (      69 calls)
     cdiaghg      :     27.09s CPU     27.12s WALL (      90 calls)

     Called by h_psi:
     h_psi:pot    :      7.63s CPU      7.78s WALL (      91 calls)
     h_psi:calbec :      0.29s CPU      0.29s WALL (      91 calls)
     vloc_psi     :      7.10s CPU      7.23s WALL (      91 calls)
     add_vuspsi   :      0.25s CPU      0.26s WALL (      91 calls)

     General routines
     calbec       :      0.28s CPU      0.29s WALL (      91 calls)
     fft          :      0.09s CPU      0.10s WALL (     241 calls)
     fftw         :      7.93s CPU      8.08s WALL (   35925 calls)
     davcio       :      0.02s CPU      0.11s WALL (     328 calls)
 
     Parallel routines
     fft_scatter  :      2.70s CPU      2.77s WALL (   36166 calls)
 
     PWSCF        :    46.15s CPU        47.82s WALL

 
   This run was terminated on:  23: 1:14   2Feb2018            

=------------------------------------------------------------------------------=
   JOB DONE.
=------------------------------------------------------------------------------=
