
     Program PWSCF v.6.0 (svn rev. 13079) starts on  3Feb2018 at  1: 9:33 

     This program is part of the open-source Quantum ESPRESSO suite
     for quantum simulation of materials; please cite
         "P. Giannozzi et al., J. Phys.:Condens. Matter 21 395502 (2009);
          URL http://www.quantum-espresso.org", 
     in publications or presentations arising from this work. More details at
     http://www.quantum-espresso.org/quote

     Parallel version (MPI), running on    28 processors
     R & G space division:  proc/nbgrp/npool/nimage =      28
     Reading input from input/scf-bigwater-1/1262.in
Warning: card &IONS ignored
Warning: card     POT_EXTRAPOLATION='SECOND-ORDER' ignored
Warning: card     WFC_EXTRAPOLATION='SECOND-ORDER' ignored
Warning: card     ION_TEMPERATURE = 'ANDERSEN' ignored
Warning: card     TEMPW = 1000 ignored
Warning: card / ignored

     Current dimensions of program PWSCF are:
     Max number of different atomic species (ntypx) = 10
     Max number of k-points (npk) =  40000
     Max angular momentum in pseudopotentials (lmaxx) =  3

     Subspace diagonalization in iterative solution of the eigenvalue problem:
     a serial algorithm will be used

 
     Parallelization info
     --------------------
     sticks:   dense  smooth     PW     G-vecs:    dense   smooth      PW
     Min         136     136     33                 6338     6338     787
     Max         137     137     34                 6341     6341     792
     Sum        3809    3809    949               177509   177509   22119
 


     bravais-lattice index     =            1
     lattice parameter (alat)  =      20.0000  a.u.
     unit-cell volume          =    8000.0000 (a.u.)^3
     number of atoms/cell      =          192
     number of atomic types    =            2
     number of electrons       =       512.00
     number of Kohn-Sham states=          307
     kinetic-energy cutoff     =      30.0000  Ry
     charge density cutoff     =     120.0000  Ry
     convergence threshold     =      1.0E-08
     mixing beta               =       0.7000
     number of iterations used =            8  plain     mixing
     Exchange-correlation      = BLYP ( 1  3  1  3 0 0)

     celldm(1)=  20.000000  celldm(2)=   0.000000  celldm(3)=   0.000000
     celldm(4)=   0.000000  celldm(5)=   0.000000  celldm(6)=   0.000000

     crystal axes: (cart. coord. in units of alat)
               a(1) = (   1.000000   0.000000   0.000000 )  
               a(2) = (   0.000000   1.000000   0.000000 )  
               a(3) = (   0.000000   0.000000   1.000000 )  

     reciprocal axes: (cart. coord. in units 2 pi/alat)
               b(1) = (  1.000000  0.000000  0.000000 )  
               b(2) = (  0.000000  1.000000  0.000000 )  
               b(3) = (  0.000000  0.000000  1.000000 )  


     PseudoPot. # 1 for  H read from file:
     ./H.blyp-hgh.UPF
     MD5 check sum: c576e69559cde411e611be972c763230
     Pseudo is Norm-conserving, Zval =  1.0
     Generated in analytical, separable form
     Using radial grid of  929 points,  0 beta functions with: 

     PseudoPot. # 2 for  O read from file:
     ./O.blyp-hgh.UPF
     MD5 check sum: d0b7156309aa9befef28faac7bc56342
     Pseudo is Norm-conserving, Zval =  6.0
     Generated in analytical, separable form
     Using radial grid of 1095 points,  1 beta functions with: 
                l(1) =   0

     atomic species   valence    mass     pseudopotential
        H              1.00     1.01000      H( 1.00)
        O              6.00    16.00000      O( 1.00)

     No symmetry found



   Cartesian axes

     site n.     atom                  positions (alat units)
         1           O   tau(   1) = (  -0.2847611  -0.0831399  -0.0116745  )
         2           O   tau(   2) = (   0.1722103  -0.1084235   0.3162697  )
         3           O   tau(   3) = (  -0.2860848   0.3474512  -0.2893869  )
         4           O   tau(   4) = (   0.0980022   0.1316946  -0.0460788  )
         5           O   tau(   5) = (  -0.2464621   0.0533503   0.2216344  )
         6           O   tau(   6) = (   0.0183146   0.2986973   0.3118431  )
         7           O   tau(   7) = (  -0.0805604  -0.2900026  -0.1271069  )
         8           O   tau(   8) = (   0.1915724   0.0638104   0.2424951  )
         9           O   tau(   9) = (  -0.1325386  -0.3384296   0.2877316  )
        10           O   tau(  10) = (   0.0828743  -0.1248725   0.1759408  )
        11           O   tau(  11) = (   0.1221298  -0.2998899   0.1078359  )
        12           O   tau(  12) = (  -0.1473075  -0.1911389   0.2545125  )
        13           O   tau(  13) = (  -0.2058044  -0.3447828  -0.0006827  )
        14           O   tau(  14) = (  -0.1800903  -0.2010791  -0.2162223  )
        15           O   tau(  15) = (   0.1253627  -0.2247682  -0.0820956  )
        16           O   tau(  16) = (  -0.0716618   0.1532693  -0.0732210  )
        17           O   tau(  17) = (  -0.0614390  -0.1449031   0.0681843  )
        18           O   tau(  18) = (  -0.0034528  -0.2440632   0.1770940  )
        19           O   tau(  19) = (   0.2107661  -0.1997363  -0.2109617  )
        20           O   tau(  20) = (   0.2463884   0.2146742   0.1040824  )
        21           O   tau(  21) = (   0.2537615  -0.1981149   0.2144443  )
        22           O   tau(  22) = (  -0.1225935  -0.0827776  -0.1558840  )
        23           O   tau(  23) = (  -0.0590815   0.1634635  -0.2432494  )
        24           O   tau(  24) = (   0.2318161   0.0781990   0.0439198  )
        25           O   tau(  25) = (   0.1562247   0.0778096  -0.1792670  )
        26           O   tau(  26) = (  -0.2357699   0.1843385  -0.2844733  )
        27           O   tau(  27) = (   0.2384363  -0.2710293   0.0378875  )
        28           O   tau(  28) = (   0.0344190  -0.0377763  -0.3120038  )
        29           O   tau(  29) = (  -0.1422079   0.0305015  -0.2665875  )
        30           O   tau(  30) = (   0.0308454  -0.0482224   0.0891591  )
        31           O   tau(  31) = (   0.3104653  -0.1008492  -0.1747801  )
        32           O   tau(  32) = (   0.2049974  -0.0203451  -0.0682389  )
        33           O   tau(  33) = (  -0.0052803   0.2203025   0.1726123  )
        34           O   tau(  34) = (  -0.2419393  -0.0044252  -0.1483572  )
        35           O   tau(  35) = (  -0.0029718  -0.2106873  -0.0389968  )
        36           O   tau(  36) = (   0.2852168   0.1850207  -0.3912872  )
        37           O   tau(  37) = (   0.2037002   0.3127159   0.2694655  )
        38           O   tau(  38) = (  -0.3038324   0.2978071  -0.1131624  )
        39           O   tau(  39) = (   0.0026074   0.0595825  -0.1298901  )
        40           O   tau(  40) = (  -0.2289007  -0.2119496  -0.0353260  )
        41           O   tau(  41) = (  -0.1521640   0.3111118   0.1314788  )
        42           O   tau(  42) = (  -0.1324257   0.1462293   0.1805638  )
        43           O   tau(  43) = (  -0.1208074  -0.0356654  -0.0147346  )
        44           O   tau(  44) = (  -0.0854850  -0.0669596   0.2652815  )
        45           O   tau(  45) = (   0.0372631   0.1177417   0.2713373  )
        46           O   tau(  46) = (  -0.2305968   0.1364400   0.0918720  )
        47           O   tau(  47) = (   0.1768399   0.2651735  -0.0958496  )
        48           O   tau(  48) = (   0.0485194  -0.2886175  -0.1731072  )
        49           O   tau(  49) = (  -0.1819556   0.2303668  -0.1740290  )
        50           O   tau(  50) = (   0.2892877   0.0680215   0.3460765  )
        51           O   tau(  51) = (  -0.0663931   0.0641715   0.1101375  )
        52           O   tau(  52) = (   0.0148437  -0.0986419  -0.1771347  )
        53           O   tau(  53) = (   0.0048799  -0.1872860  -0.2772136  )
        54           O   tau(  54) = (   0.3558376  -0.3150752   0.2005857  )
        55           O   tau(  55) = (   0.1960238  -0.1438170   0.0705761  )
        56           O   tau(  56) = (   0.2946880  -0.0751076   0.1359026  )
        57           O   tau(  57) = (   0.0872820   0.2012726  -0.2086160  )
        58           O   tau(  58) = (  -0.0620675  -0.3907787   0.0289892  )
        59           O   tau(  59) = (  -0.2224289  -0.0673134  -0.3504122  )
        60           O   tau(  60) = (  -0.2313531   0.0713484  -0.0374347  )
        61           O   tau(  61) = (   0.2340701   0.1973942  -0.2494587  )
        62           O   tau(  62) = (   0.0768973  -0.0523538  -0.0436209  )
        63           O   tau(  63) = (  -0.2537027  -0.2074114   0.0979691  )
        64           O   tau(  64) = (   0.0931319   0.1302879   0.1066140  )
        65           H   tau(  65) = (  -0.2583795  -0.1217050  -0.0288857  )
        66           H   tau(  66) = (  -0.2967877  -0.0968144   0.0332378  )
        67           H   tau(  67) = (   0.1460146  -0.0678337   0.3225848  )
        68           H   tau(  68) = (   0.1644395  -0.1203439   0.2687383  )
        69           H   tau(  69) = (  -0.2921079   0.3206803  -0.2490152  )
        70           H   tau(  70) = (  -0.2578133   0.3809276  -0.2674757  )
        71           H   tau(  71) = (   0.1137633   0.1680421  -0.0753762  )
        72           H   tau(  72) = (   0.0507413   0.1425092  -0.0365683  )
        73           H   tau(  73) = (  -0.2707709   0.0115988   0.2248858  )
        74           H   tau(  74) = (  -0.1995564   0.0417653   0.2198342  )
        75           H   tau(  75) = (   0.0053671   0.3456887   0.3191684  )
        76           H   tau(  76) = (   0.0455745   0.2814030   0.3481014  )
        77           H   tau(  77) = (  -0.1252953  -0.3029595  -0.1407236  )
        78           H   tau(  78) = (  -0.0471323  -0.3256742  -0.1250326  )
        79           H   tau(  79) = (   0.1755559   0.0797894   0.1997215  )
        80           H   tau(  80) = (   0.2068310   0.0187956   0.2298211  )
        81           H   tau(  81) = (  -0.1615596  -0.3669541   0.3144434  )
        82           H   tau(  82) = (  -0.0872335  -0.3579696   0.2908812  )
        83           H   tau(  83) = (   0.0654894  -0.0824094   0.1554170  )
        84           H   tau(  84) = (   0.1167614  -0.1428379   0.1469469  )
        85           H   tau(  85) = (   0.0770098  -0.2868969   0.1233045  )
        86           H   tau(  86) = (   0.1214350  -0.2821966   0.0620902  )
        87           H   tau(  87) = (  -0.1452603  -0.2376906   0.2741416  )
        88           H   tau(  88) = (  -0.1431162  -0.2045221   0.2077734  )
        89           H   tau(  89) = (  -0.2259115  -0.3880563  -0.0117377  )
        90           H   tau(  90) = (  -0.2403106  -0.3098480  -0.0045170  )
        91           H   tau(  91) = (  -0.1787047  -0.1550829  -0.1986565  )
        92           H   tau(  92) = (  -0.1340141  -0.2178092  -0.2191304  )
        93           H   tau(  93) = (   0.1311144  -0.1853751  -0.1101065  )
        94           H   tau(  94) = (   0.0775450  -0.2236949  -0.0676628  )
        95           H   tau(  95) = (  -0.0671368   0.1670213  -0.1193255  )
        96           H   tau(  96) = (  -0.0827098   0.1953776  -0.0505621  )
        97           H   tau(  97) = (  -0.0924190  -0.1088893   0.0523435  )
        98           H   tau(  98) = (  -0.0198240  -0.1175275   0.0799114  )
        99           H   tau(  99) = (   0.0139137  -0.1999303   0.1920770  )
       100           H   tau( 100) = (  -0.0453306  -0.2356873   0.1526786  )
       101           H   tau( 101) = (   0.2472637  -0.2283628  -0.2281272  )
       102           H   tau( 102) = (   0.1973575  -0.1896918  -0.2561879  )
       103           H   tau( 103) = (   0.2218932   0.2580899   0.1073606  )
       104           H   tau( 104) = (   0.2926801   0.2286292   0.1059884  )
       105           H   tau( 105) = (   0.2550753  -0.1694514   0.2538826  )
       106           H   tau( 106) = (   0.2409102  -0.2394623   0.2393670  )
       107           H   tau( 107) = (  -0.0725491  -0.0844339  -0.1535672  )
       108           H   tau( 108) = (  -0.1280120  -0.0414430  -0.1826298  )
       109           H   tau( 109) = (  -0.0215492   0.1938877  -0.2370247  )
       110           H   tau( 110) = (  -0.0465542   0.1208894  -0.2241533  )
       111           H   tau( 111) = (   0.2666804   0.1113886   0.0524680  )
       112           H   tau( 112) = (   0.1950745   0.0962092   0.0708546  )
       113           H   tau( 113) = (   0.1549593   0.0584316  -0.1331047  )
       114           H   tau( 114) = (   0.1366549   0.1210496  -0.1676769  )
       115           H   tau( 115) = (  -0.2615539   0.1884740  -0.3270544  )
       116           H   tau( 116) = (  -0.2510167   0.1426476  -0.2628179  )
       117           H   tau( 117) = (   0.2390695  -0.3127713   0.0111705  )
       118           H   tau( 118) = (   0.2831512  -0.2544702   0.0263463  )
       119           H   tau( 119) = (  -0.0105479  -0.0506173  -0.3288638  )
       120           H   tau( 120) = (   0.0381037   0.0109427  -0.3072740  )
       121           H   tau( 121) = (  -0.1235801   0.0065610  -0.3044740  )
       122           H   tau( 122) = (  -0.1903837   0.0236581  -0.2677167  )
       123           H   tau( 123) = (  -0.0108696  -0.0225248   0.0975915  )
       124           H   tau( 124) = (   0.0424053  -0.0528682   0.0410477  )
       125           H   tau( 125) = (   0.2690239  -0.1057859  -0.1994535  )
       126           H   tau( 126) = (   0.3171403  -0.1487222  -0.1677676  )
       127           H   tau( 127) = (   0.2256165   0.0128311  -0.0384780  )
       128           H   tau( 128) = (   0.2397791  -0.0554595  -0.0724280  )
       129           H   tau( 129) = (   0.0043812   0.2630041   0.1953433  )
       130           H   tau( 130) = (  -0.0529880   0.2199995   0.1721818  )
       131           H   tau( 131) = (  -0.2057527  -0.0334674  -0.1314458  )
       132           H   tau( 132) = (  -0.2749118  -0.0402568  -0.1591290  )
       133           H   tau( 133) = (  -0.0406204  -0.2422909  -0.0423082  )
       134           H   tau( 134) = (  -0.0159625  -0.1807718  -0.0015292  )
       135           H   tau( 135) = (   0.2550760   0.2231830  -0.3899779  )
       136           H   tau( 136) = (   0.2754554   0.1739349  -0.4377578  )
       137           H   tau( 137) = (   0.1647103   0.3055041   0.2412892  )
       138           H   tau( 138) = (   0.2205699   0.2741586   0.2935256  )
       139           H   tau( 139) = (  -0.2964485   0.2558349  -0.1376448  )
       140           H   tau( 140) = (  -0.2671563   0.3174208  -0.1407277  )
       141           H   tau( 141) = (  -0.0181640   0.0749119  -0.0885982  )
       142           H   tau( 142) = (   0.0458619   0.0826561  -0.1295208  )
       143           H   tau( 143) = (  -0.1962775  -0.2294707  -0.0664551  )
       144           H   tau( 144) = (  -0.2117399  -0.2138676   0.0117325  )
       145           H   tau( 145) = (  -0.1728860   0.2953378   0.0889405  )
       146           H   tau( 146) = (  -0.1851910   0.3018449   0.1661695  )
       147           H   tau( 147) = (  -0.1729277   0.1727134   0.1778240  )
       148           H   tau( 148) = (  -0.1181233   0.1403083   0.2268130  )
       149           H   tau( 149) = (  -0.1283556  -0.0466824  -0.0624779  )
       150           H   tau( 150) = (  -0.1402510   0.0089203  -0.0076216  )
       151           H   tau( 151) = (  -0.0980173  -0.0474674   0.2218269  )
       152           H   tau( 152) = (  -0.1035131  -0.1135854   0.2599379  )
       153           H   tau( 153) = (   0.0384143   0.1139156   0.2220113  )
       154           H   tau( 154) = (  -0.0082210   0.1367649   0.2697306  )
       155           H   tau( 155) = (  -0.2358523   0.0941809   0.1172773  )
       156           H   tau( 156) = (  -0.2401911   0.1168764   0.0468769  )
       157           H   tau( 157) = (   0.1723967   0.3085106  -0.0726007  )
       158           H   tau( 158) = (   0.2176038   0.2648497  -0.1228089  )
       159           H   tau( 159) = (   0.0522875  -0.2578871  -0.2116673  )
       160           H   tau( 160) = (   0.0887476  -0.2790721  -0.1466365  )
       161           H   tau( 161) = (  -0.2138736   0.2208806  -0.2114530  )
       162           H   tau( 162) = (  -0.1404198   0.2221605  -0.1993243  )
       163           H   tau( 163) = (   0.2582225   0.0523876   0.3798689  )
       164           H   tau( 164) = (   0.2622841   0.0686232   0.3049682  )
       165           H   tau( 165) = (  -0.0907436   0.0896732   0.1436955  )
       166           H   tau( 166) = (  -0.0249751   0.0874674   0.0974070  )
       167           H   tau( 167) = (   0.0365925  -0.0901477  -0.1344831  )
       168           H   tau( 168) = (   0.0243608  -0.0623694  -0.2099546  )
       169           H   tau( 169) = (  -0.0183917  -0.1632684  -0.2409084  )
       170           H   tau( 170) = (  -0.0007143  -0.1650509  -0.3202259  )
       171           H   tau( 171) = (   0.3641460  -0.3117450   0.2492118  )
       172           H   tau( 172) = (   0.3232319  -0.2786246   0.1922132  )
       173           H   tau( 173) = (   0.1923192  -0.1922425   0.0672472  )
       174           H   tau( 174) = (   0.1913434  -0.1225601   0.0272293  )
       175           H   tau( 175) = (   0.3377333  -0.0540593   0.1450452  )
       176           H   tau( 176) = (   0.2873773  -0.0785208   0.0882102  )
       177           H   tau( 177) = (   0.1000647   0.2000434  -0.2560345  )
       178           H   tau( 178) = (   0.0999987   0.2487272  -0.1993852  )
       179           H   tau( 179) = (  -0.0368899  -0.4190249   0.0594886  )
       180           H   tau( 180) = (  -0.0752502  -0.3533038   0.0572905  )
       181           H   tau( 181) = (  -0.2337882  -0.0479552  -0.3067428  )
       182           H   tau( 182) = (  -0.2075868  -0.1128936  -0.3409634  )
       183           H   tau( 183) = (  -0.1994200   0.0923771  -0.0685960  )
       184           H   tau( 184) = (  -0.2447247   0.0329469  -0.0665626  )
       185           H   tau( 185) = (   0.2014245   0.1706886  -0.2246322  )
       186           H   tau( 186) = (   0.2723337   0.1666410  -0.2438139  )
       187           H   tau( 187) = (   0.1210341  -0.0322412  -0.0510094  )
       188           H   tau( 188) = (   0.0445497  -0.0196863  -0.0606168  )
       189           H   tau( 189) = (  -0.2381949  -0.2299514   0.1394104  )
       190           H   tau( 190) = (  -0.3006382  -0.2206483   0.1026987  )
       191           H   tau( 191) = (   0.0776796   0.1773597   0.1108014  )
       192           H   tau( 192) = (   0.1147118   0.1307843   0.0621739  )

     number of k points=     1  Marzari-Vanderbilt smearing, width (Ry)=  0.0250
                       cart. coord. in units 2pi/alat
        k(    1) = (   0.0000000   0.0000000   0.0000000), wk =   2.0000000

     Dense  grid:   177509 G-vectors     FFT dimensions: (  72,  72,  72)

     Estimated max dynamical RAM per process >      67.80Mb

     Estimated total allocated dynamical RAM >    1898.40Mb

     Initial potential from superposition of free atoms
     Check: negative starting charge=   -0.701723

     starting charge  511.99856, renormalised to  512.00000

     negative rho (up, down):  7.017E-01 0.000E+00
     Starting wfc are  384 randomized atomic wfcs

     total cpu time spent up to now is        0.8 secs

     per-process dynamical memory:    45.9 Mb

     Self-consistent Calculation

     iteration #  1     ecut=    30.00 Ry     beta=0.70
     Davidson diagonalization with overlap
     ethr =  1.00E-02,  avg # of iterations =  8.0

     negative rho (up, down):  1.654E-01 0.000E+00

     total cpu time spent up to now is        8.9 secs

     total energy              =   -1802.19064825 Ry
     Harris-Foulkes estimate   =   -1829.27564430 Ry
     estimated scf accuracy    <      42.35095598 Ry

     iteration #  2     ecut=    30.00 Ry     beta=0.70
     Davidson diagonalization with overlap
     ethr =  8.27E-03,  avg # of iterations =  4.0

     negative rho (up, down):  3.462E-03 0.000E+00

     total cpu time spent up to now is       12.0 secs

     total energy              =   -1781.98961276 Ry
     Harris-Foulkes estimate   =   -1814.98978124 Ry
     estimated scf accuracy    <      72.61569785 Ry

     iteration #  3     ecut=    30.00 Ry     beta=0.70
     Davidson diagonalization with overlap
     ethr =  8.27E-03,  avg # of iterations =  5.0

     negative rho (up, down):  7.258E-05 0.000E+00

     total cpu time spent up to now is       15.8 secs

     total energy              =   -1800.07983081 Ry
     Harris-Foulkes estimate   =   -1818.70117431 Ry
     estimated scf accuracy    <      64.50511413 Ry

     iteration #  4     ecut=    30.00 Ry     beta=0.70
     Davidson diagonalization with overlap
     ethr =  8.27E-03,  avg # of iterations =  3.0

     negative rho (up, down):  9.680E-08 0.000E+00

     total cpu time spent up to now is       17.6 secs

     total energy              =   -1809.73060902 Ry
     Harris-Foulkes estimate   =   -1811.88122088 Ry
     estimated scf accuracy    <       6.51317414 Ry

     iteration #  5     ecut=    30.00 Ry     beta=0.70
     Davidson diagonalization with overlap
     ethr =  1.27E-03,  avg # of iterations =  4.0

     total cpu time spent up to now is       19.8 secs

     total energy              =   -1809.50905333 Ry
     Harris-Foulkes estimate   =   -1810.11611487 Ry
     estimated scf accuracy    <       2.37220261 Ry

     iteration #  6     ecut=    30.00 Ry     beta=0.70
     Davidson diagonalization with overlap
     ethr =  4.63E-04,  avg # of iterations =  7.0

     total cpu time spent up to now is       22.9 secs

     total energy              =   -1809.31513593 Ry
     Harris-Foulkes estimate   =   -1809.60265023 Ry
     estimated scf accuracy    <       0.99462929 Ry

     iteration #  7     ecut=    30.00 Ry     beta=0.70
     Davidson diagonalization with overlap
     ethr =  1.94E-04,  avg # of iterations =  7.0

     total cpu time spent up to now is       26.0 secs

     total energy              =   -1809.29810119 Ry
     Harris-Foulkes estimate   =   -1809.37437683 Ry
     estimated scf accuracy    <       0.25049612 Ry

     iteration #  8     ecut=    30.00 Ry     beta=0.70
     Davidson diagonalization with overlap
     ethr =  4.89E-05,  avg # of iterations =  5.0

     total cpu time spent up to now is       28.6 secs

     total energy              =   -1809.31693824 Ry
     Harris-Foulkes estimate   =   -1809.32434961 Ry
     estimated scf accuracy    <       0.05592576 Ry

     iteration #  9     ecut=    30.00 Ry     beta=0.70
     Davidson diagonalization with overlap
     ethr =  1.09E-05,  avg # of iterations =  2.0

     total cpu time spent up to now is       30.0 secs

     total energy              =   -1809.31019349 Ry
     Harris-Foulkes estimate   =   -1809.32045287 Ry
     estimated scf accuracy    <       0.03655007 Ry

     iteration # 10     ecut=    30.00 Ry     beta=0.70
     Davidson diagonalization with overlap
     ethr =  7.14E-06,  avg # of iterations =  8.0

     total cpu time spent up to now is       33.5 secs

     total energy              =   -1809.30699766 Ry
     Harris-Foulkes estimate   =   -1809.32035314 Ry
     estimated scf accuracy    <       0.08312835 Ry

     iteration # 11     ecut=    30.00 Ry     beta=0.70
     Davidson diagonalization with overlap
     ethr =  7.14E-06,  avg # of iterations = 10.0

     total cpu time spent up to now is       37.5 secs

     total energy              =   -1809.30847263 Ry
     Harris-Foulkes estimate   =   -1809.31089437 Ry
     estimated scf accuracy    <       0.00805624 Ry

     iteration # 12     ecut=    30.00 Ry     beta=0.70
     Davidson diagonalization with overlap
     ethr =  1.57E-06,  avg # of iterations =  4.0

     total cpu time spent up to now is       39.9 secs

     total energy              =   -1809.30828378 Ry
     Harris-Foulkes estimate   =   -1809.31019615 Ry
     estimated scf accuracy    <       0.01148811 Ry

     iteration # 13     ecut=    30.00 Ry     beta=0.70
     Davidson diagonalization with overlap
     ethr =  1.57E-06,  avg # of iterations =  2.0

     total cpu time spent up to now is       41.4 secs

     total energy              =   -1809.30925994 Ry
     Harris-Foulkes estimate   =   -1809.30937555 Ry
     estimated scf accuracy    <       0.00047353 Ry

     iteration # 14     ecut=    30.00 Ry     beta=0.70
     Davidson diagonalization with overlap
     ethr =  9.25E-08,  avg # of iterations =  2.0

     total cpu time spent up to now is       42.9 secs

     total energy              =   -1809.30927219 Ry
     Harris-Foulkes estimate   =   -1809.30935202 Ry
     estimated scf accuracy    <       0.00038111 Ry

     iteration # 15     ecut=    30.00 Ry     beta=0.70
     Davidson diagonalization with overlap
     ethr =  7.44E-08,  avg # of iterations =  2.0

     total cpu time spent up to now is       44.3 secs

     total energy              =   -1809.30927839 Ry
     Harris-Foulkes estimate   =   -1809.30935260 Ry
     estimated scf accuracy    <       0.00042914 Ry

     iteration # 16     ecut=    30.00 Ry     beta=0.70
     Davidson diagonalization with overlap
     ethr =  7.44E-08,  avg # of iterations =  2.0

     total cpu time spent up to now is       45.7 secs

     total energy              =   -1809.30931478 Ry
     Harris-Foulkes estimate   =   -1809.30932055 Ry
     estimated scf accuracy    <       0.00004266 Ry

     iteration # 17     ecut=    30.00 Ry     beta=0.70
     Davidson diagonalization with overlap
     ethr =  8.33E-09,  avg # of iterations =  2.0

     total cpu time spent up to now is       47.1 secs

     total energy              =   -1809.30931778 Ry
     Harris-Foulkes estimate   =   -1809.30931796 Ry
     estimated scf accuracy    <       0.00000093 Ry

     iteration # 18     ecut=    30.00 Ry     beta=0.70
     Davidson diagonalization with overlap
     ethr =  1.81E-10,  avg # of iterations =  3.0

     total cpu time spent up to now is       49.0 secs

     total energy              =   -1809.30931786 Ry
     Harris-Foulkes estimate   =   -1809.30931795 Ry
     estimated scf accuracy    <       0.00000062 Ry

     iteration # 19     ecut=    30.00 Ry     beta=0.70
     Davidson diagonalization with overlap
     ethr =  1.21E-10,  avg # of iterations =  3.0

     total cpu time spent up to now is       50.7 secs

     total energy              =   -1809.30931790 Ry
     Harris-Foulkes estimate   =   -1809.30931791 Ry
     estimated scf accuracy    <       0.00000003 Ry

     iteration # 20     ecut=    30.00 Ry     beta=0.70
     Davidson diagonalization with overlap
     ethr =  5.67E-12,  avg # of iterations =  4.0

     total cpu time spent up to now is       53.1 secs

     End of self-consistent calculation

          k = 0.0000 0.0000 0.0000 ( 22119 PWs)   bands (ev):

   -40.4683 -39.5428 -38.8197 -37.9809 -36.7844 -35.7769 -35.6622 -35.2841
   -35.0112 -34.7800 -34.3951 -34.0250 -33.3824 -32.8292 -32.6906 -32.4133
   -32.3451 -32.2610 -31.9823 -31.7259 -31.0762 -30.9842 -30.7059 -30.5208
   -30.3302 -30.2714 -30.1990 -29.8197 -29.6654 -29.5825 -29.4175 -29.2840
   -29.0792 -28.7981 -28.7324 -28.6034 -28.4902 -28.3255 -28.0265 -27.9044
   -27.8460 -27.8412 -27.6623 -27.6117 -27.4537 -27.4098 -27.1958 -27.1708
   -27.1011 -26.9458 -26.7619 -26.7149 -26.5331 -26.4273 -26.1590 -25.9795
   -25.8611 -25.7267 -25.6356 -25.5093 -25.2561 -24.6657 -24.6633 -24.1204
   -22.2778 -20.6678 -20.0578 -19.8578 -19.6392 -19.4984 -19.3846 -19.0893
   -18.5407 -18.4846 -18.2390 -18.0669 -17.9424 -17.7520 -17.6589 -17.5143
   -17.2485 -17.1980 -17.1013 -16.7642 -16.3451 -16.2788 -16.1627 -16.0563
   -15.8738 -15.7125 -15.4479 -15.3733 -15.2890 -15.1784 -15.0681 -14.9343
   -14.7798 -14.5192 -14.3836 -14.1862 -14.1434 -14.1266 -13.9956 -13.9581
   -13.8513 -13.8297 -13.6252 -13.4171 -13.1872 -13.1281 -13.0747 -12.9405
   -12.7799 -12.6807 -12.6154 -12.5253 -12.4182 -12.0473 -11.9506 -11.8127
   -11.4766 -11.1251 -11.0410 -10.9442 -10.7093 -10.6711 -10.6219 -10.0461
    -9.8951  -9.7119  -9.4020  -9.2476  -8.8060  -8.5168  -8.2567  -7.8671
    -7.7858  -7.6387  -7.4732  -7.3908  -7.2297  -7.1189  -7.0285  -6.9543
    -6.8342  -6.6930  -6.5237  -6.2981  -6.1517  -6.0441  -5.8633  -5.8575
    -5.7909  -5.7043  -5.5443  -5.3277  -5.1287  -5.0212  -4.9827  -4.8904
    -4.7844  -4.7325  -4.6571  -4.5538  -4.4335  -4.3960  -4.1967  -4.1048
    -4.0416  -3.9347  -3.8174  -3.7944  -3.7603  -3.6755  -3.6322  -3.5237
    -3.4403  -3.2344  -3.2099  -3.1650  -3.1056  -3.0055  -2.8751  -2.7769
    -2.7053  -2.6156  -2.5219  -2.4707  -2.3626  -2.3290  -2.2164  -2.1872
    -2.0298  -1.9324  -1.8615  -1.7620  -1.6746  -1.5942  -1.4845  -1.4080
    -1.3133  -1.2584  -1.1722  -1.0792  -1.0264  -0.9192  -0.8350  -0.7198
    -0.6476  -0.5628  -0.5433  -0.4290  -0.2388  -0.1497  -0.0731   0.0109
     0.1697   0.2636   0.3825   0.4191   0.5156   0.5386   0.6309   0.7535
     0.8105   0.8728   0.9261   1.0965   1.1495   1.3307   1.3601   1.5425
     1.6890   1.8496   1.9974   2.1308   2.1556   2.2881   2.3977   2.4996
     2.5738   2.8367   2.9923   3.0978   3.1245   3.4352   3.6851   3.8030
     3.8654   4.0193   4.2298   4.3636   4.4985   5.1240   5.2599   5.4165
     5.6073   6.4422   6.4997   6.7561   6.8398   7.2068   7.4565   7.5049
     7.6502   7.7374   7.9239   7.9678   8.0978   8.4672   8.5524   8.8132
     8.9216   9.0382   9.1167   9.4288   9.5627   9.5729   9.9303   9.9469
    10.1817  10.2166  10.3477  10.5532  10.6437  10.6936  10.8515  10.9344
    10.9971  11.0439  11.1546  11.2862  11.4219  11.5297  11.5689  11.6253
    11.7109  11.7717  11.8344  11.9108  11.9559  12.0347  12.0674  12.1166
    12.2003  12.2822  12.3938

     the Fermi energy is     5.5441 ev

!    total energy              =   -1809.30931794 Ry
     Harris-Foulkes estimate   =   -1809.30931791 Ry
     estimated scf accuracy    <          3.8E-09 Ry

     The total energy is the sum of the following terms:

     one-electron contribution =  -12831.41367042 Ry
     hartree contribution      =    6594.09506582 Ry
     xc contribution           =    -632.63868418 Ry
     ewald contribution        =    5060.65123308 Ry
     smearing contrib. (-TS)   =      -0.00326224 Ry

     convergence has been achieved in  20 iterations

     Writing output data file pwscf.save
 
     init_run     :      0.55s CPU      0.64s WALL (       1 calls)
     electrons    :     51.05s CPU     52.34s WALL (       1 calls)

     Called by init_run:
     wfcinit      :      0.45s CPU      0.53s WALL (       1 calls)
     potinit      :      0.02s CPU      0.02s WALL (       1 calls)

     Called by electrons:
     c_bands      :     49.09s CPU     50.14s WALL (      20 calls)
     sum_band     :      1.62s CPU      1.66s WALL (      20 calls)
     v_of_rho     :      0.16s CPU      0.17s WALL (      21 calls)
     mix_rho      :      0.11s CPU      0.21s WALL (      20 calls)

     Called by c_bands:
     init_us_2    :      0.05s CPU      0.05s WALL (      41 calls)
     cegterg      :     48.97s CPU     49.96s WALL (      20 calls)

     Called by sum_band:

     Called by *egterg:
     h_psi        :      7.72s CPU      7.87s WALL (     108 calls)
     g_psi        :      0.07s CPU      0.07s WALL (      87 calls)
     cdiaghg      :     32.58s CPU     32.62s WALL (     107 calls)

     Called by h_psi:
     h_psi:pot    :      7.53s CPU      7.68s WALL (     108 calls)
     h_psi:calbec :      0.28s CPU      0.29s WALL (     108 calls)
     vloc_psi     :      7.00s CPU      7.14s WALL (     108 calls)
     add_vuspsi   :      0.25s CPU      0.25s WALL (     108 calls)

     General routines
     calbec       :      0.28s CPU      0.29s WALL (     108 calls)
     fft          :      0.09s CPU      0.10s WALL (     230 calls)
     fftw         :      7.74s CPU      7.90s WALL (   35228 calls)
     davcio       :      0.02s CPU      0.13s WALL (     308 calls)
 
     Parallel routines
     fft_scatter  :      2.92s CPU      2.99s WALL (   35458 calls)
 
     PWSCF        :    51.76s CPU        53.37s WALL

 
   This run was terminated on:   1:10:26   3Feb2018            

=------------------------------------------------------------------------------=
   JOB DONE.
=------------------------------------------------------------------------------=
