
     Program PWSCF v.6.0 (svn rev. 13079) starts on  2Feb2018 at  6:56:34 

     This program is part of the open-source Quantum ESPRESSO suite
     for quantum simulation of materials; please cite
         "P. Giannozzi et al., J. Phys.:Condens. Matter 21 395502 (2009);
          URL http://www.quantum-espresso.org", 
     in publications or presentations arising from this work. More details at
     http://www.quantum-espresso.org/quote

     Parallel version (MPI), running on    28 processors
     R & G space division:  proc/nbgrp/npool/nimage =      28
     Reading input from input/scf-bigwater-1/129.in
Warning: card &IONS ignored
Warning: card     POT_EXTRAPOLATION='SECOND-ORDER' ignored
Warning: card     WFC_EXTRAPOLATION='SECOND-ORDER' ignored
Warning: card     ION_TEMPERATURE = 'ANDERSEN' ignored
Warning: card     TEMPW = 1000 ignored
Warning: card / ignored

     Current dimensions of program PWSCF are:
     Max number of different atomic species (ntypx) = 10
     Max number of k-points (npk) =  40000
     Max angular momentum in pseudopotentials (lmaxx) =  3

     Subspace diagonalization in iterative solution of the eigenvalue problem:
     a serial algorithm will be used

 
     Parallelization info
     --------------------
     sticks:   dense  smooth     PW     G-vecs:    dense   smooth      PW
     Min         136     136     33                 6338     6338     787
     Max         137     137     34                 6341     6341     792
     Sum        3809    3809    949               177509   177509   22119
 


     bravais-lattice index     =            1
     lattice parameter (alat)  =      20.0000  a.u.
     unit-cell volume          =    8000.0000 (a.u.)^3
     number of atoms/cell      =          192
     number of atomic types    =            2
     number of electrons       =       512.00
     number of Kohn-Sham states=          307
     kinetic-energy cutoff     =      30.0000  Ry
     charge density cutoff     =     120.0000  Ry
     convergence threshold     =      1.0E-08
     mixing beta               =       0.7000
     number of iterations used =            8  plain     mixing
     Exchange-correlation      = BLYP ( 1  3  1  3 0 0)

     celldm(1)=  20.000000  celldm(2)=   0.000000  celldm(3)=   0.000000
     celldm(4)=   0.000000  celldm(5)=   0.000000  celldm(6)=   0.000000

     crystal axes: (cart. coord. in units of alat)
               a(1) = (   1.000000   0.000000   0.000000 )  
               a(2) = (   0.000000   1.000000   0.000000 )  
               a(3) = (   0.000000   0.000000   1.000000 )  

     reciprocal axes: (cart. coord. in units 2 pi/alat)
               b(1) = (  1.000000  0.000000  0.000000 )  
               b(2) = (  0.000000  1.000000  0.000000 )  
               b(3) = (  0.000000  0.000000  1.000000 )  


     PseudoPot. # 1 for  H read from file:
     ./H.blyp-hgh.UPF
     MD5 check sum: c576e69559cde411e611be972c763230
     Pseudo is Norm-conserving, Zval =  1.0
     Generated in analytical, separable form
     Using radial grid of  929 points,  0 beta functions with: 

     PseudoPot. # 2 for  O read from file:
     ./O.blyp-hgh.UPF
     MD5 check sum: d0b7156309aa9befef28faac7bc56342
     Pseudo is Norm-conserving, Zval =  6.0
     Generated in analytical, separable form
     Using radial grid of 1095 points,  1 beta functions with: 
                l(1) =   0

     atomic species   valence    mass     pseudopotential
        H              1.00     1.01000      H( 1.00)
        O              6.00    16.00000      O( 1.00)

     No symmetry found



   Cartesian axes

     site n.     atom                  positions (alat units)
         1           O   tau(   1) = (  -0.2629977  -0.0763154  -0.0767179  )
         2           O   tau(   2) = (   0.1964054  -0.1057803   0.2693882  )
         3           O   tau(   3) = (  -0.2870656   0.2711349  -0.2735183  )
         4           O   tau(   4) = (  -0.0089965   0.1886330  -0.0757868  )
         5           O   tau(   5) = (  -0.2362634   0.0383377   0.1955594  )
         6           O   tau(   6) = (  -0.0116437   0.2729715   0.2611254  )
         7           O   tau(   7) = (  -0.0064872  -0.2699037  -0.1701139  )
         8           O   tau(   8) = (   0.1212238   0.0078890   0.1802317  )
         9           O   tau(   9) = (  -0.1426440  -0.2647022   0.2825403  )
        10           O   tau(  10) = (   0.0979302  -0.1433708   0.0946928  )
        11           O   tau(  11) = (   0.1275923  -0.3050977   0.1453200  )
        12           O   tau(  12) = (  -0.2039194  -0.1509340   0.2235603  )
        13           O   tau(  13) = (  -0.2220311  -0.2932628   0.0361665  )
        14           O   tau(  14) = (  -0.1802067  -0.2850090  -0.1875127  )
        15           O   tau(  15) = (   0.1171845  -0.1380120  -0.1140556  )
        16           O   tau(  16) = (  -0.0984393   0.1217928   0.0542418  )
        17           O   tau(  17) = (  -0.0606394  -0.0850535   0.0924916  )
        18           O   tau(  18) = (   0.0106517  -0.2102806   0.1877178  )
        19           O   tau(  19) = (   0.2703256  -0.2145426  -0.2487836  )
        20           O   tau(  20) = (   0.2724901   0.2471433   0.1100038  )
        21           O   tau(  21) = (   0.2952552  -0.1494303   0.1631431  )
        22           O   tau(  22) = (  -0.1620774  -0.1456543  -0.1925407  )
        23           O   tau(  23) = (  -0.0444509   0.1321871  -0.2473549  )
        24           O   tau(  24) = (   0.1957755   0.1178608   0.1444184  )
        25           O   tau(  25) = (   0.1165150   0.0676349  -0.1551738  )
        26           O   tau(  26) = (  -0.2431535   0.1355603  -0.3110566  )
        27           O   tau(  27) = (   0.2239386  -0.2990761  -0.0621458  )
        28           O   tau(  28) = (   0.0997613  -0.0643843  -0.2309696  )
        29           O   tau(  29) = (  -0.1019280   0.0081987  -0.2414842  )
        30           O   tau(  30) = (   0.0458344  -0.0163083   0.0384437  )
        31           O   tau(  31) = (   0.2379338  -0.0869925  -0.1836639  )
        32           O   tau(  32) = (   0.2597751   0.0049297  -0.0065733  )
        33           O   tau(  33) = (  -0.0087087   0.2301550   0.0959465  )
        34           O   tau(  34) = (  -0.2525548   0.0364782  -0.2005797  )
        35           O   tau(  35) = (   0.0366428  -0.1913156  -0.0188397  )
        36           O   tau(  36) = (   0.2281002   0.1860381  -0.2232381  )
        37           O   tau(  37) = (   0.1714856   0.2729481   0.2928085  )
        38           O   tau(  38) = (  -0.2622311   0.1943873  -0.0980282  )
        39           O   tau(  39) = (  -0.0190839   0.0503220  -0.0861997  )
        40           O   tau(  40) = (  -0.1546578  -0.1733042  -0.0511013  )
        41           O   tau(  41) = (  -0.1324976   0.2742810   0.1656130  )
        42           O   tau(  42) = (  -0.0771065   0.1401201   0.2073790  )
        43           O   tau(  43) = (  -0.1302058  -0.0152934  -0.0355246  )
        44           O   tau(  44) = (  -0.0771287  -0.1077724   0.2432016  )
        45           O   tau(  45) = (   0.0322062   0.0930137   0.2480301  )
        46           O   tau(  46) = (  -0.2359745   0.1658912   0.0693626  )
        47           O   tau(  47) = (   0.1450294   0.1984698  -0.0319605  )
        48           O   tau(  48) = (   0.1350825  -0.3009615  -0.1816316  )
        49           O   tau(  49) = (  -0.1277518   0.2256279  -0.1162318  )
        50           O   tau(  50) = (   0.2721589   0.0312302   0.2683950  )
        51           O   tau(  51) = (  -0.1502491   0.0136933   0.0990463  )
        52           O   tau(  52) = (  -0.0338427  -0.1184513  -0.1205953  )
        53           O   tau(  53) = (   0.0007816  -0.1668938  -0.2740063  )
        54           O   tau(  54) = (   0.2874610  -0.2978109   0.2153062  )
        55           O   tau(  55) = (   0.2496802  -0.1563567  -0.0093264  )
        56           O   tau(  56) = (   0.2320935  -0.0359652   0.1226744  )
        57           O   tau(  57) = (   0.0587527   0.2162783  -0.2154215  )
        58           O   tau(  58) = (  -0.0347919  -0.2918508   0.0223446  )
        59           O   tau(  59) = (  -0.2763405  -0.0727612  -0.2863522  )
        60           O   tau(  60) = (  -0.2321702   0.0659604  -0.0420480  )
        61           O   tau(  61) = (   0.2590517   0.0746506  -0.1246140  )
        62           O   tau(  62) = (   0.1420974  -0.0145119  -0.0556955  )
        63           O   tau(  63) = (  -0.2637651  -0.0640678   0.0656060  )
        64           O   tau(  64) = (   0.0787439   0.1288312   0.0734502  )
        65           H   tau(  65) = (  -0.2631153  -0.0713159  -0.0277322  )
        66           H   tau(  66) = (  -0.2255175  -0.0465758  -0.0876766  )
        67           H   tau(  67) = (   0.1834772  -0.1444090   0.2964823  )
        68           H   tau(  68) = (   0.1602380  -0.0993498   0.2363972  )
        69           H   tau(  69) = (  -0.3229725   0.2488578  -0.2476647  )
        70           H   tau(  70) = (  -0.2754681   0.2375494  -0.3073414  )
        71           H   tau(  71) = (   0.0152585   0.1486558  -0.0582885  )
        72           H   tau(  72) = (   0.0262187   0.2161874  -0.0953549  )
        73           H   tau(  73) = (  -0.2821910   0.0207657   0.1920155  )
        74           H   tau(  74) = (  -0.2352462   0.0686822   0.2346971  )
        75           H   tau(  75) = (   0.0095283   0.3169679   0.2543483  )
        76           H   tau(  76) = (   0.0060066   0.2574962   0.3041385  )
        77           H   tau(  77) = (  -0.0237455  -0.2726272  -0.1245889  )
        78           H   tau(  78) = (  -0.0458640  -0.2821245  -0.1965405  )
        79           H   tau(  79) = (   0.1361002   0.0545872   0.1696166  )
        80           H   tau(  80) = (   0.0726923   0.0103098   0.1854021  )
        81           H   tau(  81) = (  -0.1718134  -0.2723399   0.3219183  )
        82           H   tau(  82) = (  -0.0975584  -0.2725825   0.3002798  )
        83           H   tau(  83) = (   0.1035084  -0.1014757   0.0688925  )
        84           H   tau(  84) = (   0.1439059  -0.1599955   0.0954355  )
        85           H   tau(  85) = (   0.1633630  -0.3242512   0.1176068  )
        86           H   tau(  86) = (   0.0856090  -0.3233999   0.1269651  )
        87           H   tau(  87) = (  -0.1627039  -0.1712426   0.2067859  )
        88           H   tau(  88) = (  -0.2283476  -0.1297859   0.1856987  )
        89           H   tau(  89) = (  -0.1956731  -0.3304170   0.0176338  )
        90           H   tau(  90) = (  -0.2083366  -0.2529048   0.0107712  )
        91           H   tau(  91) = (  -0.2223710  -0.2653795  -0.1725843  )
        92           H   tau(  92) = (  -0.1841223  -0.3333502  -0.1801446  )
        93           H   tau(  93) = (   0.1180978  -0.0890712  -0.1068982  )
        94           H   tau(  94) = (   0.0870463  -0.1553211  -0.0773324  )
        95           H   tau(  95) = (  -0.0557037   0.1450298   0.0501245  )
        96           H   tau(  96) = (  -0.0899276   0.0734402   0.0502384  )
        97           H   tau(  97) = (  -0.0221726  -0.0568527   0.0695451  )
        98           H   tau(  98) = (  -0.0433777  -0.0840632   0.1388658  )
        99           H   tau(  99) = (   0.0524991  -0.2039675   0.1616560  )
       100           H   tau( 100) = (  -0.0222566  -0.1961422   0.1541643  )
       101           H   tau( 101) = (   0.3116089  -0.2415034  -0.2489664  )
       102           H   tau( 102) = (   0.2783989  -0.1659016  -0.2436701  )
       103           H   tau( 103) = (   0.2852892   0.2652422   0.1552690  )
       104           H   tau( 104) = (   0.3147021   0.2486181   0.0855431  )
       105           H   tau( 105) = (   0.2741704  -0.1142486   0.1356136  )
       106           H   tau( 106) = (   0.3057055  -0.1857975   0.1321527  )
       107           H   tau( 107) = (  -0.1162470  -0.1359226  -0.2068972  )
       108           H   tau( 108) = (  -0.1857633  -0.1468769  -0.2352674  )
       109           H   tau( 109) = (  -0.0181780   0.1417150  -0.2070769  )
       110           H   tau( 110) = (  -0.0705544   0.0916720  -0.2364984  )
       111           H   tau( 111) = (   0.2407861   0.1327820   0.1566986  )
       112           H   tau( 112) = (   0.1740676   0.1584194   0.1277477  )
       113           H   tau( 113) = (   0.1398158   0.0512207  -0.1951769  )
       114           H   tau( 114) = (   0.0870899   0.1025732  -0.1734222  )
       115           H   tau( 115) = (  -0.2491335   0.1011327  -0.2758278  )
       116           H   tau( 116) = (  -0.1989931   0.1538843  -0.2997037  )
       117           H   tau( 117) = (   0.2037616  -0.2543915  -0.0676314  )
       118           H   tau( 118) = (   0.2701002  -0.2883554  -0.0502179  )
       119           H   tau( 119) = (   0.1380164  -0.0663264  -0.2624563  )
       120           H   tau( 120) = (   0.0634475  -0.0478370  -0.2594320  )
       121           H   tau( 121) = (  -0.0952416  -0.0241786  -0.2779819  )
       122           H   tau( 122) = (  -0.1463643   0.0267659  -0.2511343  )
       123           H   tau( 123) = (   0.0410478   0.0295633   0.0550285  )
       124           H   tau( 124) = (   0.0751524  -0.0144919  -0.0027676  )
       125           H   tau( 125) = (   0.1991257  -0.1099418  -0.1635156  )
       126           H   tau( 126) = (   0.2687915  -0.0809625  -0.1457427  )
       127           H   tau( 127) = (   0.2730847   0.0481226  -0.0266933  )
       128           H   tau( 128) = (   0.2921613  -0.0212839  -0.0334742  )
       129           H   tau( 129) = (  -0.0313587   0.1975254   0.1259007  )
       130           H   tau( 130) = (  -0.0387205   0.2675883   0.1070777  )
       131           H   tau( 131) = (  -0.2380463   0.0354366  -0.1535413  )
       132           H   tau( 132) = (  -0.3014636   0.0399508  -0.2024737  )
       133           H   tau( 133) = (   0.0202649  -0.2371187  -0.0246772  )
       134           H   tau( 134) = (   0.0640283  -0.1892079   0.0223882  )
       135           H   tau( 135) = (   0.1837523   0.2025776  -0.2362609  )
       136           H   tau( 136) = (   0.2334109   0.1431652  -0.2461638  )
       137           H   tau( 137) = (   0.1698347   0.2635657   0.2444056  )
       138           H   tau( 138) = (   0.1345329   0.3039267   0.3002263  )
       139           H   tau( 139) = (  -0.2798502   0.1909624  -0.0518433  )
       140           H   tau( 140) = (  -0.2305605   0.2314106  -0.0887022  )
       141           H   tau( 141) = (   0.0023699   0.0135815  -0.1102197  )
       142           H   tau( 142) = (  -0.0544384   0.0271254  -0.0579026  )
       143           H   tau( 143) = (  -0.1517737  -0.1466453  -0.0933000  )
       144           H   tau( 144) = (  -0.1207227  -0.2067945  -0.0617712  )
       145           H   tau( 145) = (  -0.1761321   0.2874827   0.1478621  )
       146           H   tau( 146) = (  -0.1358191   0.2880882   0.2133792  )
       147           H   tau( 147) = (  -0.0664532   0.1066653   0.1732372  )
       148           H   tau( 148) = (  -0.1071928   0.1701496   0.1825333  )
       149           H   tau( 149) = (  -0.1045577  -0.0563471  -0.0305811  )
       150           H   tau( 150) = (  -0.1543095  -0.0093913   0.0076863  )
       151           H   tau( 151) = (  -0.1253019  -0.1174426   0.2422016  )
       152           H   tau( 152) = (  -0.0523298  -0.1445177   0.2645364  )
       153           H   tau( 153) = (   0.0687535   0.0762126   0.2755054  )
       154           H   tau( 154) = (   0.0096179   0.1247686   0.2784372  )
       155           H   tau( 155) = (  -0.2543177   0.1785837   0.1127913  )
       156           H   tau( 156) = (  -0.1927210   0.1446139   0.0812829  )
       157           H   tau( 157) = (   0.1697172   0.2369914  -0.0135439  )
       158           H   tau( 158) = (   0.1431321   0.2088878  -0.0796102  )
       159           H   tau( 159) = (   0.1800342  -0.2817747  -0.1890661  )
       160           H   tau( 160) = (   0.1082627  -0.2600556  -0.1736276  )
       161           H   tau( 161) = (  -0.1230532   0.1975540  -0.1560467  )
       162           H   tau( 162) = (  -0.0883459   0.2119768  -0.0889383  )
       163           H   tau( 163) = (   0.2959265  -0.0115337   0.2743055  )
       164           H   tau( 164) = (   0.2265861   0.0139494   0.2650319  )
       165           H   tau( 165) = (  -0.1210255  -0.0267236   0.1026344  )
       166           H   tau( 166) = (  -0.1868586   0.0148284   0.1325362  )
       167           H   tau( 167) = (   0.0075663  -0.1441000  -0.1259809  )
       168           H   tau( 168) = (  -0.0328489  -0.1023098  -0.0749171  )
       169           H   tau( 169) = (   0.0138597  -0.1587498  -0.2271260  )
       170           H   tau( 170) = (   0.0381628  -0.1445251  -0.2962386  )
       171           H   tau( 171) = (   0.2500176  -0.2980245   0.2478164  )
       172           H   tau( 172) = (   0.3230739  -0.2774658   0.2419285  )
       173           H   tau( 173) = (   0.2946009  -0.1636615   0.0094670  )
       174           H   tau( 174) = (   0.2378162  -0.1138403   0.0122371  )
       175           H   tau( 175) = (   0.2400972  -0.0017549   0.0882116  )
       176           H   tau( 176) = (   0.1866903  -0.0283890   0.1432991  )
       177           H   tau( 177) = (   0.0638537   0.2010159  -0.2615665  )
       178           H   tau( 178) = (   0.0787841   0.2615941  -0.2174577  )
       179           H   tau( 179) = (  -0.0574650  -0.3353935   0.0180284  )
       180           H   tau( 180) = (  -0.0673036  -0.2556363   0.0174318  )
       181           H   tau( 181) = (  -0.2597847  -0.0966000  -0.3262974  )
       182           H   tau( 182) = (  -0.2355739  -0.0491385  -0.2729029  )
       183           H   tau( 183) = (  -0.2144118   0.1104257  -0.0527472  )
       184           H   tau( 184) = (  -0.2381169   0.0654790   0.0065155  )
       185           H   tau( 185) = (   0.2904228   0.1125384  -0.1244757  )
       186           H   tau( 186) = (   0.2151509   0.0968408  -0.1259243  )
       187           H   tau( 187) = (   0.1870798   0.0031334  -0.0427719  )
       188           H   tau( 188) = (   0.1239805   0.0142263  -0.0916923  )
       189           H   tau( 189) = (  -0.3086622  -0.0507348   0.0805050  )
       190           H   tau( 190) = (  -0.2413883  -0.0748506   0.1071668  )
       191           H   tau( 191) = (   0.0361206   0.1526630   0.0689008  )
       192           H   tau( 192) = (   0.1026935   0.1521788   0.0363043  )

     number of k points=     1  Marzari-Vanderbilt smearing, width (Ry)=  0.0250
                       cart. coord. in units 2pi/alat
        k(    1) = (   0.0000000   0.0000000   0.0000000), wk =   2.0000000

     Dense  grid:   177509 G-vectors     FFT dimensions: (  72,  72,  72)

     Estimated max dynamical RAM per process >      67.80Mb

     Estimated total allocated dynamical RAM >    1898.40Mb

     Initial potential from superposition of free atoms
     Check: negative starting charge=   -0.843257

     starting charge  511.99856, renormalised to  512.00000

     negative rho (up, down):  8.433E-01 0.000E+00
     Starting wfc are  384 randomized atomic wfcs

     total cpu time spent up to now is        0.8 secs

     per-process dynamical memory:    45.9 Mb

     Self-consistent Calculation

     iteration #  1     ecut=    30.00 Ry     beta=0.70
     Davidson diagonalization with overlap
     ethr =  1.00E-02,  avg # of iterations =  8.0

     negative rho (up, down):  2.047E-01 0.000E+00

     total cpu time spent up to now is        8.9 secs

     total energy              =   -1790.61963654 Ry
     Harris-Foulkes estimate   =   -1818.07316729 Ry
     estimated scf accuracy    <      41.91809108 Ry

     iteration #  2     ecut=    30.00 Ry     beta=0.70
     Davidson diagonalization with overlap
     ethr =  8.19E-03,  avg # of iterations =  4.0

     negative rho (up, down):  1.856E-03 0.000E+00

     total cpu time spent up to now is       12.1 secs

     total energy              =   -1762.24219887 Ry
     Harris-Foulkes estimate   =   -1806.71790162 Ry
     estimated scf accuracy    <     120.07828454 Ry

     iteration #  3     ecut=    30.00 Ry     beta=0.70
     Davidson diagonalization with overlap
     ethr =  8.19E-03,  avg # of iterations =  5.0

     negative rho (up, down):  9.067E-06 0.000E+00

     total cpu time spent up to now is       15.9 secs

     total energy              =   -1792.04776497 Ry
     Harris-Foulkes estimate   =   -1806.59959281 Ry
     estimated scf accuracy    <      49.62361091 Ry

     iteration #  4     ecut=    30.00 Ry     beta=0.70
     Davidson diagonalization with overlap
     ethr =  8.19E-03,  avg # of iterations =  3.0

     total cpu time spent up to now is       17.6 secs

     total energy              =   -1798.68432321 Ry
     Harris-Foulkes estimate   =   -1801.31372193 Ry
     estimated scf accuracy    <       8.58667576 Ry

     iteration #  5     ecut=    30.00 Ry     beta=0.70
     Davidson diagonalization with overlap
     ethr =  1.68E-03,  avg # of iterations =  5.0

     total cpu time spent up to now is       20.1 secs

     total energy              =   -1798.40641156 Ry
     Harris-Foulkes estimate   =   -1799.16169347 Ry
     estimated scf accuracy    <       3.60085355 Ry

     iteration #  6     ecut=    30.00 Ry     beta=0.70
     Davidson diagonalization with overlap
     ethr =  7.03E-04,  avg # of iterations =  6.0

     total cpu time spent up to now is       22.8 secs

     total energy              =   -1798.14591124 Ry
     Harris-Foulkes estimate   =   -1798.50681149 Ry
     estimated scf accuracy    <       1.94174343 Ry

     iteration #  7     ecut=    30.00 Ry     beta=0.70
     Davidson diagonalization with overlap
     ethr =  3.79E-04,  avg # of iterations =  6.0

     total cpu time spent up to now is       25.4 secs

     total energy              =   -1797.90832894 Ry
     Harris-Foulkes estimate   =   -1798.19796712 Ry
     estimated scf accuracy    <       1.00372123 Ry

     iteration #  8     ecut=    30.00 Ry     beta=0.70
     Davidson diagonalization with overlap
     ethr =  1.96E-04,  avg # of iterations =  6.0

     total cpu time spent up to now is       28.3 secs

     total energy              =   -1797.95908518 Ry
     Harris-Foulkes estimate   =   -1798.00810755 Ry
     estimated scf accuracy    <       0.25981464 Ry

     iteration #  9     ecut=    30.00 Ry     beta=0.70
     Davidson diagonalization with overlap
     ethr =  5.07E-05,  avg # of iterations =  6.0

     total cpu time spent up to now is       30.9 secs

     total energy              =   -1797.95668900 Ry
     Harris-Foulkes estimate   =   -1797.98284696 Ry
     estimated scf accuracy    <       0.11085502 Ry

     iteration # 10     ecut=    30.00 Ry     beta=0.70
     Davidson diagonalization with overlap
     ethr =  2.17E-05,  avg # of iterations =  6.0

     total cpu time spent up to now is       33.5 secs

     total energy              =   -1797.94884482 Ry
     Harris-Foulkes estimate   =   -1797.97456322 Ry
     estimated scf accuracy    <       0.15935749 Ry

     iteration # 11     ecut=    30.00 Ry     beta=0.70
     Davidson diagonalization with overlap
     ethr =  2.17E-05,  avg # of iterations =  3.0

     total cpu time spent up to now is       35.3 secs

     total energy              =   -1797.95248522 Ry
     Harris-Foulkes estimate   =   -1797.96993819 Ry
     estimated scf accuracy    <       0.09979513 Ry

     iteration # 12     ecut=    30.00 Ry     beta=0.70
     Davidson diagonalization with overlap
     ethr =  1.95E-05,  avg # of iterations =  3.0

     total cpu time spent up to now is       37.0 secs

     total energy              =   -1797.95647327 Ry
     Harris-Foulkes estimate   =   -1797.96180853 Ry
     estimated scf accuracy    <       0.02346284 Ry

     iteration # 13     ecut=    30.00 Ry     beta=0.70
     Davidson diagonalization with overlap
     ethr =  4.58E-06,  avg # of iterations =  4.0

     total cpu time spent up to now is       39.2 secs

     total energy              =   -1797.95887621 Ry
     Harris-Foulkes estimate   =   -1797.96042155 Ry
     estimated scf accuracy    <       0.00760680 Ry

     iteration # 14     ecut=    30.00 Ry     beta=0.70
     Davidson diagonalization with overlap
     ethr =  1.49E-06,  avg # of iterations =  3.0

     total cpu time spent up to now is       40.9 secs

     total energy              =   -1797.95921164 Ry
     Harris-Foulkes estimate   =   -1797.95970845 Ry
     estimated scf accuracy    <       0.00209535 Ry

     iteration # 15     ecut=    30.00 Ry     beta=0.70
     Davidson diagonalization with overlap
     ethr =  4.09E-07,  avg # of iterations =  2.0

     total cpu time spent up to now is       42.3 secs

     total energy              =   -1797.95944540 Ry
     Harris-Foulkes estimate   =   -1797.95971911 Ry
     estimated scf accuracy    <       0.00246339 Ry

     iteration # 16     ecut=    30.00 Ry     beta=0.70
     Davidson diagonalization with overlap
     ethr =  4.09E-07,  avg # of iterations =  1.0

     total cpu time spent up to now is       43.5 secs

     total energy              =   -1797.95956056 Ry
     Harris-Foulkes estimate   =   -1797.95957109 Ry
     estimated scf accuracy    <       0.00005674 Ry

     iteration # 17     ecut=    30.00 Ry     beta=0.70
     Davidson diagonalization with overlap
     ethr =  1.11E-08,  avg # of iterations =  2.0

     total cpu time spent up to now is       45.0 secs

     total energy              =   -1797.95956800 Ry
     Harris-Foulkes estimate   =   -1797.95957016 Ry
     estimated scf accuracy    <       0.00001124 Ry

     iteration # 18     ecut=    30.00 Ry     beta=0.70
     Davidson diagonalization with overlap
     ethr =  2.19E-09,  avg # of iterations =  2.0

     total cpu time spent up to now is       46.4 secs

     total energy              =   -1797.95956994 Ry
     Harris-Foulkes estimate   =   -1797.95956977 Ry
     estimated scf accuracy    <       0.00000092 Ry

     iteration # 19     ecut=    30.00 Ry     beta=0.70
     Davidson diagonalization with overlap
     ethr =  1.80E-10,  avg # of iterations =  3.0

     total cpu time spent up to now is       48.4 secs

     total energy              =   -1797.95957019 Ry
     Harris-Foulkes estimate   =   -1797.95957014 Ry
     estimated scf accuracy    <       0.00000015 Ry

     iteration # 20     ecut=    30.00 Ry     beta=0.70
     Davidson diagonalization with overlap
     ethr =  3.01E-11,  avg # of iterations =  3.0

     total cpu time spent up to now is       50.5 secs

     total energy              =   -1797.95957025 Ry
     Harris-Foulkes estimate   =   -1797.95957025 Ry
     estimated scf accuracy    <       0.00000010 Ry

     iteration # 21     ecut=    30.00 Ry     beta=0.70
     Davidson diagonalization with overlap
     ethr =  1.96E-11,  avg # of iterations =  3.0

     total cpu time spent up to now is       52.5 secs

     total energy              =   -1797.95957025 Ry
     Harris-Foulkes estimate   =   -1797.95957032 Ry
     estimated scf accuracy    <       0.00000059 Ry

     iteration # 22     ecut=    30.00 Ry     beta=0.70
     Davidson diagonalization with overlap
     ethr =  1.96E-11,  avg # of iterations =  2.0

     total cpu time spent up to now is       54.0 secs

     total energy              =   -1797.95957031 Ry
     Harris-Foulkes estimate   =   -1797.95957030 Ry
     estimated scf accuracy    <       0.00000002 Ry

     iteration # 23     ecut=    30.00 Ry     beta=0.70
     Davidson diagonalization with overlap
     ethr =  4.49E-12,  avg # of iterations =  3.0

     total cpu time spent up to now is       55.8 secs

     End of self-consistent calculation

          k = 0.0000 0.0000 0.0000 ( 22119 PWs)   bands (ev):

   -43.0010 -42.0481 -40.1740 -39.5440 -38.7342 -37.7941 -37.6259 -36.6328
   -36.5224 -36.3258 -35.5644 -35.4155 -35.2049 -34.6954 -34.5536 -34.3904
   -33.8360 -33.7544 -33.4046 -32.9831 -32.5743 -32.3996 -32.3429 -31.9745
   -31.8385 -31.4888 -31.0312 -30.8945 -30.7880 -30.6699 -30.4663 -30.3077
   -29.9324 -29.7574 -29.6660 -29.3963 -29.3856 -29.1856 -28.9815 -28.7713
   -28.6760 -28.5684 -28.5378 -28.2861 -27.9343 -27.7556 -27.7038 -27.6034
   -27.5037 -27.3278 -27.2955 -27.2177 -27.1494 -27.0044 -26.9366 -26.8115
   -26.6923 -26.5153 -26.3144 -26.1798 -25.9460 -25.6460 -25.3512 -25.0928
   -23.8227 -23.1017 -22.5127 -22.0831 -21.8157 -21.4578 -21.2936 -20.8250
   -20.2535 -20.1015 -19.8163 -19.5682 -19.1771 -19.1539 -18.9528 -18.8837
   -18.7011 -18.2469 -18.1605 -17.9239 -17.7415 -17.6655 -17.2222 -17.1040
   -16.9046 -16.7598 -16.6557 -16.3894 -16.3357 -16.2892 -15.9232 -15.8058
   -15.6994 -15.4418 -15.2174 -15.0644 -14.9288 -14.8630 -14.8103 -14.6807
   -14.5360 -14.4676 -14.4068 -14.1613 -14.1060 -14.0253 -13.9447 -13.7125
   -13.5578 -13.4406 -13.3948 -13.1744 -13.1181 -13.0110 -12.8136 -12.6152
   -12.3543 -12.3011 -11.9680 -11.7247 -11.4236 -11.3190 -11.1383 -10.9329
   -10.6463 -10.4243 -10.2645  -9.9630  -9.8226  -9.6975  -9.3507  -9.1695
    -8.7487  -8.4862  -8.1577  -8.1141  -7.9155  -7.7665  -7.6814  -7.6047
    -7.4077  -7.2450  -7.1877  -7.0406  -6.8450  -6.6243  -6.5155  -6.4266
    -6.3383  -6.1520  -6.1031  -5.9907  -5.9456  -5.7497  -5.6093  -5.4329
    -5.3890  -5.2756  -5.2603  -5.0750  -4.9493  -4.8638  -4.7884  -4.6102
    -4.5885  -4.5266  -4.4876  -4.4207  -4.2552  -4.1626  -4.1226  -3.9243
    -3.8385  -3.7717  -3.6573  -3.5688  -3.5141  -3.3761  -3.2126  -3.1809
    -3.0470  -3.0334  -2.9613  -2.8004  -2.7351  -2.6252  -2.4809  -2.4036
    -2.3598  -2.2494  -2.1570  -2.1384  -1.9444  -1.8605  -1.7521  -1.6923
    -1.5993  -1.4414  -1.3299  -1.2650  -1.1749  -1.1160  -0.9760  -0.9072
    -0.8276  -0.7703  -0.6405  -0.6110  -0.4244  -0.2839  -0.1271  -0.0721
    -0.0267   0.0867   0.2221   0.3346   0.4629   0.5092   0.7442   0.9668
     1.1093   1.1654   1.3735   1.4414   1.6725   1.7860   1.8808   1.9389
     2.0831   2.2416   2.4008   2.5229   2.5759   2.6041   2.7635   2.8702
     2.9624   3.0440   3.1488   3.3534   3.4397   3.7415   3.9582   3.9899
     4.0999   4.2975   4.4204   4.7634   5.1153   5.1976   5.3248   5.3996
     5.6391   6.2178   6.2566   6.5533   6.7211   7.1426   7.3029   7.3575
     7.3991   7.5139   7.6939   7.7571   8.1757   8.3128   8.5375   8.7653
     8.8287   8.8957   9.1580   9.4371   9.6033   9.6704   9.8501   9.8939
     9.9829  10.0603  10.3679  10.4450  10.4920  10.6416  10.6841  10.7740
    10.8700  10.9085  11.0152  11.2082  11.3017  11.4246  11.5372  11.6035
    11.6346  11.6926  11.7540  11.8603  11.9782  12.0494  12.1739  12.2401
    12.2657  12.3232  12.4193

     the Fermi energy is     5.5540 ev

!    total energy              =   -1797.95957032 Ry
     Harris-Foulkes estimate   =   -1797.95957031 Ry
     estimated scf accuracy    <          4.0E-09 Ry

     The total energy is the sum of the following terms:

     one-electron contribution =  -16095.74750095 Ry
     hartree contribution      =    8217.59370755 Ry
     xc contribution           =    -638.96690845 Ry
     ewald contribution        =    6719.15748721 Ry
     smearing contrib. (-TS)   =       0.00364431 Ry

     convergence has been achieved in  23 iterations

     Writing output data file pwscf.save
 
     init_run     :      0.58s CPU      0.63s WALL (       1 calls)
     electrons    :     53.63s CPU     55.12s WALL (       1 calls)

     Called by init_run:
     wfcinit      :      0.48s CPU      0.53s WALL (       1 calls)
     potinit      :      0.02s CPU      0.03s WALL (       1 calls)

     Called by electrons:
     c_bands      :     51.32s CPU     52.52s WALL (      23 calls)
     sum_band     :      1.94s CPU      1.99s WALL (      23 calls)
     v_of_rho     :      0.19s CPU      0.20s WALL (      24 calls)
     mix_rho      :      0.12s CPU      0.27s WALL (      23 calls)

     Called by c_bands:
     init_us_2    :      0.06s CPU      0.07s WALL (      47 calls)
     cegterg      :     51.19s CPU     52.33s WALL (      23 calls)

     Called by sum_band:

     Called by *egterg:
     h_psi        :      8.93s CPU      9.07s WALL (     113 calls)
     g_psi        :      0.08s CPU      0.08s WALL (      89 calls)
     cdiaghg      :     32.62s CPU     32.65s WALL (     112 calls)

     Called by h_psi:
     h_psi:pot    :      8.70s CPU      8.85s WALL (     113 calls)
     h_psi:calbec :      0.34s CPU      0.34s WALL (     113 calls)
     vloc_psi     :      8.08s CPU      8.22s WALL (     113 calls)
     add_vuspsi   :      0.28s CPU      0.29s WALL (     113 calls)

     General routines
     calbec       :      0.34s CPU      0.34s WALL (     113 calls)
     fft          :      0.11s CPU      0.11s WALL (     263 calls)
     fftw         :      8.93s CPU      9.10s WALL (   39801 calls)
     davcio       :      0.02s CPU      0.15s WALL (     368 calls)
 
     Parallel routines
     fft_scatter  :      3.14s CPU      3.21s WALL (   40064 calls)
 
     PWSCF        :    54.38s CPU        56.09s WALL

 
   This run was terminated on:   6:57:30   2Feb2018            

=------------------------------------------------------------------------------=
   JOB DONE.
=------------------------------------------------------------------------------=
