
     Program PWSCF v.6.0 (svn rev. 13079) starts on  3Feb2018 at  2:28: 8 

     This program is part of the open-source Quantum ESPRESSO suite
     for quantum simulation of materials; please cite
         "P. Giannozzi et al., J. Phys.:Condens. Matter 21 395502 (2009);
          URL http://www.quantum-espresso.org", 
     in publications or presentations arising from this work. More details at
     http://www.quantum-espresso.org/quote

     Parallel version (MPI), running on    28 processors
     R & G space division:  proc/nbgrp/npool/nimage =      28
     Reading input from input/scf-bigwater-1/1346.in
Warning: card &IONS ignored
Warning: card     POT_EXTRAPOLATION='SECOND-ORDER' ignored
Warning: card     WFC_EXTRAPOLATION='SECOND-ORDER' ignored
Warning: card     ION_TEMPERATURE = 'ANDERSEN' ignored
Warning: card     TEMPW = 1000 ignored
Warning: card / ignored

     Current dimensions of program PWSCF are:
     Max number of different atomic species (ntypx) = 10
     Max number of k-points (npk) =  40000
     Max angular momentum in pseudopotentials (lmaxx) =  3

     Subspace diagonalization in iterative solution of the eigenvalue problem:
     a serial algorithm will be used

 
     Parallelization info
     --------------------
     sticks:   dense  smooth     PW     G-vecs:    dense   smooth      PW
     Min         136     136     33                 6338     6338     787
     Max         137     137     34                 6341     6341     792
     Sum        3809    3809    949               177509   177509   22119
 


     bravais-lattice index     =            1
     lattice parameter (alat)  =      20.0000  a.u.
     unit-cell volume          =    8000.0000 (a.u.)^3
     number of atoms/cell      =          192
     number of atomic types    =            2
     number of electrons       =       512.00
     number of Kohn-Sham states=          307
     kinetic-energy cutoff     =      30.0000  Ry
     charge density cutoff     =     120.0000  Ry
     convergence threshold     =      1.0E-08
     mixing beta               =       0.7000
     number of iterations used =            8  plain     mixing
     Exchange-correlation      = BLYP ( 1  3  1  3 0 0)

     celldm(1)=  20.000000  celldm(2)=   0.000000  celldm(3)=   0.000000
     celldm(4)=   0.000000  celldm(5)=   0.000000  celldm(6)=   0.000000

     crystal axes: (cart. coord. in units of alat)
               a(1) = (   1.000000   0.000000   0.000000 )  
               a(2) = (   0.000000   1.000000   0.000000 )  
               a(3) = (   0.000000   0.000000   1.000000 )  

     reciprocal axes: (cart. coord. in units 2 pi/alat)
               b(1) = (  1.000000  0.000000  0.000000 )  
               b(2) = (  0.000000  1.000000  0.000000 )  
               b(3) = (  0.000000  0.000000  1.000000 )  


     PseudoPot. # 1 for  H read from file:
     ./H.blyp-hgh.UPF
     MD5 check sum: c576e69559cde411e611be972c763230
     Pseudo is Norm-conserving, Zval =  1.0
     Generated in analytical, separable form
     Using radial grid of  929 points,  0 beta functions with: 

     PseudoPot. # 2 for  O read from file:
     ./O.blyp-hgh.UPF
     MD5 check sum: d0b7156309aa9befef28faac7bc56342
     Pseudo is Norm-conserving, Zval =  6.0
     Generated in analytical, separable form
     Using radial grid of 1095 points,  1 beta functions with: 
                l(1) =   0

     atomic species   valence    mass     pseudopotential
        H              1.00     1.01000      H( 1.00)
        O              6.00    16.00000      O( 1.00)

     No symmetry found



   Cartesian axes

     site n.     atom                  positions (alat units)
         1           O   tau(   1) = (  -0.2881833  -0.0873113  -0.0047972  )
         2           O   tau(   2) = (   0.1818318  -0.0969025   0.3108589  )
         3           O   tau(   3) = (  -0.2841199   0.3535050  -0.2872179  )
         4           O   tau(   4) = (   0.1019402   0.1347619  -0.0407612  )
         5           O   tau(   5) = (  -0.2449609   0.0604477   0.2211126  )
         6           O   tau(   6) = (   0.0183474   0.2980836   0.3165969  )
         7           O   tau(   7) = (  -0.0895654  -0.2858997  -0.1284253  )
         8           O   tau(   8) = (   0.2068275   0.0566641   0.2435061  )
         9           O   tau(   9) = (  -0.1225214  -0.3380038   0.2997103  )
        10           O   tau(  10) = (   0.0839848  -0.1316891   0.1760172  )
        11           O   tau(  11) = (   0.1123389  -0.2892924   0.1048352  )
        12           O   tau(  12) = (  -0.1425600  -0.2027643   0.2622727  )
        13           O   tau(  13) = (  -0.1950460  -0.3421701   0.0045526  )
        14           O   tau(  14) = (  -0.1771532  -0.1957303  -0.2217664  )
        15           O   tau(  15) = (   0.1251709  -0.2329105  -0.0704233  )
        16           O   tau(  16) = (  -0.0633595   0.1502199  -0.0772501  )
        17           O   tau(  17) = (  -0.0645714  -0.1454377   0.0613452  )
        18           O   tau(  18) = (  -0.0063580  -0.2435414   0.1747891  )
        19           O   tau(  19) = (   0.2089089  -0.1952249  -0.1990015  )
        20           O   tau(  20) = (   0.2532650   0.2132045   0.0950533  )
        21           O   tau(  21) = (   0.2528669  -0.1997190   0.2215947  )
        22           O   tau(  22) = (  -0.1211056  -0.0689201  -0.1617041  )
        23           O   tau(  23) = (  -0.0641672   0.1644653  -0.2448685  )
        24           O   tau(  24) = (   0.2394012   0.0709778   0.0280411  )
        25           O   tau(  25) = (   0.1634246   0.0764158  -0.1792576  )
        26           O   tau(  26) = (  -0.2471134   0.1856842  -0.2991433  )
        27           O   tau(  27) = (   0.2414093  -0.2721844   0.0433344  )
        28           O   tau(  28) = (   0.0406300  -0.0303329  -0.3096808  )
        29           O   tau(  29) = (  -0.1450886   0.0321911  -0.2677561  )
        30           O   tau(  30) = (   0.0261921  -0.0470365   0.0897895  )
        31           O   tau(  31) = (   0.3063250  -0.1121703  -0.1708649  )
        32           O   tau(  32) = (   0.2021046  -0.0242073  -0.0632047  )
        33           O   tau(  33) = (  -0.0178540   0.2242351   0.1565819  )
        34           O   tau(  34) = (  -0.2398391  -0.0083091  -0.1399898  )
        35           O   tau(  35) = (  -0.0030094  -0.2160769  -0.0375926  )
        36           O   tau(  36) = (   0.2910506   0.1684688  -0.3924238  )
        37           O   tau(  37) = (   0.2036602   0.2951513   0.2683994  )
        38           O   tau(  38) = (  -0.3130485   0.3007894  -0.1239552  )
        39           O   tau(  39) = (   0.0063357   0.0531037  -0.1259619  )
        40           O   tau(  40) = (  -0.2346880  -0.2125663  -0.0310476  )
        41           O   tau(  41) = (  -0.1513745   0.3215178   0.1250158  )
        42           O   tau(  42) = (  -0.1237009   0.1506511   0.1901049  )
        43           O   tau(  43) = (  -0.1277282  -0.0179341  -0.0076171  )
        44           O   tau(  44) = (  -0.0832116  -0.0648774   0.2579739  )
        45           O   tau(  45) = (   0.0480696   0.1113026   0.2698086  )
        46           O   tau(  46) = (  -0.2434148   0.1236993   0.0906199  )
        47           O   tau(  47) = (   0.1716592   0.2694334  -0.0921184  )
        48           O   tau(  48) = (   0.0467456  -0.2937774  -0.1712203  )
        49           O   tau(  49) = (  -0.1978485   0.2307205  -0.1841162  )
        50           O   tau(  50) = (   0.2950193   0.0723381   0.3561756  )
        51           O   tau(  51) = (  -0.0575160   0.0693057   0.1059825  )
        52           O   tau(  52) = (   0.0152976  -0.1046825  -0.1728003  )
        53           O   tau(  53) = (  -0.0025592  -0.1910172  -0.2772209  )
        54           O   tau(  54) = (   0.3490979  -0.3019275   0.2025576  )
        55           O   tau(  55) = (   0.1956681  -0.1435877   0.0739421  )
        56           O   tau(  56) = (   0.2917735  -0.0749548   0.1369093  )
        57           O   tau(  57) = (   0.0888299   0.2024835  -0.2162090  )
        58           O   tau(  58) = (  -0.0444205  -0.3973161   0.0235835  )
        59           O   tau(  59) = (  -0.2242593  -0.0718441  -0.3467033  )
        60           O   tau(  60) = (  -0.2341932   0.0750206  -0.0383894  )
        61           O   tau(  61) = (   0.2175180   0.2044667  -0.2570429  )
        62           O   tau(  62) = (   0.0749324  -0.0464983  -0.0357785  )
        63           O   tau(  63) = (  -0.2591944  -0.2086798   0.0978740  )
        64           O   tau(  64) = (   0.0961289   0.1260836   0.1004194  )
        65           H   tau(  65) = (  -0.2629395  -0.1134022  -0.0377195  )
        66           H   tau(  66) = (  -0.2968871  -0.1208466   0.0291439  )
        67           H   tau(  67) = (   0.1414880  -0.0686035   0.3149340  )
        68           H   tau(  68) = (   0.1722136  -0.1211525   0.2695507  )
        69           H   tau(  69) = (  -0.3032941   0.3257382  -0.2515811  )
        70           H   tau(  70) = (  -0.2412096   0.3732201  -0.2682132  )
        71           H   tau(  71) = (   0.1323243   0.1729079  -0.0488579  )
        72           H   tau(  72) = (   0.0567433   0.1517361  -0.0399105  )
        73           H   tau(  73) = (  -0.2624461   0.0169527   0.2377542  )
        74           H   tau(  74) = (  -0.1994365   0.0432248   0.2113044  )
        75           H   tau(  75) = (   0.0007631   0.3435163   0.3234080  )
        76           H   tau(  76) = (   0.0437004   0.2845968   0.3560967  )
        77           H   tau(  77) = (  -0.1310309  -0.2940926  -0.1533732  )
        78           H   tau(  78) = (  -0.0754283  -0.3267319  -0.1055352  )
        79           H   tau(  79) = (   0.1707657   0.0836939   0.2240114  )
        80           H   tau(  80) = (   0.2092100   0.0108870   0.2266608  )
        81           H   tau(  81) = (  -0.1517095  -0.3723025   0.3183072  )
        82           H   tau(  82) = (  -0.0783661  -0.3551968   0.2885956  )
        83           H   tau(  83) = (   0.0667568  -0.0926051   0.1525829  )
        84           H   tau(  84) = (   0.1225782  -0.1431421   0.1463116  )
        85           H   tau(  85) = (   0.0682018  -0.2970425   0.1241982  )
        86           H   tau(  86) = (   0.1048746  -0.2664287   0.0626946  )
        87           H   tau(  87) = (  -0.1194870  -0.2344909   0.2909920  )
        88           H   tau(  88) = (  -0.1208933  -0.2177134   0.2207785  )
        89           H   tau(  89) = (  -0.2079686  -0.3873981  -0.0067269  )
        90           H   tau(  90) = (  -0.2271754  -0.3109211  -0.0155580  )
        91           H   tau(  91) = (  -0.1641810  -0.1488958  -0.2142069  )
        92           H   tau(  92) = (  -0.1361782  -0.2191708  -0.2345050  )
        93           H   tau(  93) = (   0.1397874  -0.2071474  -0.1096132  )
        94           H   tau(  94) = (   0.0791976  -0.2218225  -0.0525986  )
        95           H   tau(  95) = (  -0.0730129   0.1679843  -0.1225642  )
        96           H   tau(  96) = (  -0.0715836   0.1801274  -0.0384292  )
        97           H   tau(  97) = (  -0.0964664  -0.1160194   0.0387541  )
        98           H   tau(  98) = (  -0.0408563  -0.1097837   0.0844533  )
        99           H   tau(  99) = (   0.0100199  -0.1991462   0.1885072  )
       100           H   tau( 100) = (  -0.0443659  -0.2326497   0.1460694  )
       101           H   tau( 101) = (   0.2432949  -0.2150461  -0.2277334  )
       102           H   tau( 102) = (   0.1859088  -0.1585237  -0.2239066  )
       103           H   tau( 103) = (   0.2399925   0.2579492   0.1087945  )
       104           H   tau( 104) = (   0.3015966   0.2133064   0.1034669  )
       105           H   tau( 105) = (   0.2671593  -0.1669353   0.2546599  )
       106           H   tau( 106) = (   0.2165100  -0.2270071   0.2404606  )
       107           H   tau( 107) = (  -0.0736821  -0.0821291  -0.1543095  )
       108           H   tau( 108) = (  -0.1150816  -0.0308072  -0.1925661  )
       109           H   tau( 109) = (  -0.0260366   0.1943471  -0.2342190  )
       110           H   tau( 110) = (  -0.0474041   0.1226317  -0.2234245  )
       111           H   tau( 111) = (   0.2759250   0.1027516   0.0295187  )
       112           H   tau( 112) = (   0.2170596   0.0717886   0.0714764  )
       113           H   tau( 113) = (   0.2031302   0.0743137  -0.1515529  )
       114           H   tau( 114) = (   0.1398485   0.1193731  -0.1804402  )
       115           H   tau( 115) = (  -0.2790687   0.1770610  -0.3372424  )
       116           H   tau( 116) = (  -0.2219222   0.1437173  -0.2938852  )
       117           H   tau( 117) = (   0.2172902  -0.2929334   0.0055667  )
       118           H   tau( 118) = (   0.2636353  -0.2363253   0.0178545  )
       119           H   tau( 119) = (  -0.0020019  -0.0542404  -0.3156487  )
       120           H   tau( 120) = (   0.0292762   0.0102443  -0.3343701  )
       121           H   tau( 121) = (  -0.1269004  -0.0032781  -0.2977509  )
       122           H   tau( 122) = (  -0.1920635   0.0216508  -0.2575327  )
       123           H   tau( 123) = (   0.0183138   0.0005445   0.0820463  )
       124           H   tau( 124) = (   0.0550755  -0.0531165   0.0487308  )
       125           H   tau( 125) = (   0.2730335  -0.1015954  -0.2059154  )
       126           H   tau( 126) = (   0.3111513  -0.1605495  -0.1705677  )
       127           H   tau( 127) = (   0.2138194   0.0081773  -0.0270566  )
       128           H   tau( 128) = (   0.2401274  -0.0535891  -0.0667349  )
       129           H   tau( 129) = (  -0.0028919   0.2628421   0.1837183  )
       130           H   tau( 130) = (  -0.0669535   0.2244967   0.1680887  )
       131           H   tau( 131) = (  -0.2072262  -0.0407361  -0.1567480  )
       132           H   tau( 132) = (  -0.2814951  -0.0307020  -0.1523105  )
       133           H   tau( 133) = (  -0.0126721  -0.2635998  -0.0363673  )
       134           H   tau( 134) = (  -0.0206929  -0.1951837   0.0042511  )
       135           H   tau( 135) = (   0.2713332   0.2111130  -0.4068791  )
       136           H   tau( 136) = (   0.3002213   0.1389923  -0.4305023  )
       137           H   tau( 137) = (   0.1578349   0.2974798   0.2506258  )
       138           H   tau( 138) = (   0.1939137   0.2626805   0.3050784  )
       139           H   tau( 139) = (  -0.2872403   0.2589490  -0.1223088  )
       140           H   tau( 140) = (  -0.2837811   0.3373478  -0.1337590  )
       141           H   tau( 141) = (  -0.0171861   0.0864525  -0.0966222  )
       142           H   tau( 142) = (   0.0468259   0.0746037  -0.1432670  )
       143           H   tau( 143) = (  -0.1921690  -0.2322227  -0.0451148  )
       144           H   tau( 144) = (  -0.2369567  -0.1972218   0.0167188  )
       145           H   tau( 145) = (  -0.1718425   0.3060417   0.0828363  )
       146           H   tau( 146) = (  -0.1822527   0.3056954   0.1608283  )
       147           H   tau( 147) = (  -0.1733599   0.1517594   0.1956003  )
       148           H   tau( 148) = (  -0.1054822   0.1480648   0.2354275  )
       149           H   tau( 149) = (  -0.1409296  -0.0347022  -0.0513265  )
       150           H   tau( 150) = (  -0.1723928   0.0009940   0.0019127  )
       151           H   tau( 151) = (  -0.0842864  -0.0277467   0.2267169  )
       152           H   tau( 152) = (  -0.1230158  -0.0930445   0.2521108  )
       153           H   tau( 153) = (   0.0432921   0.1041386   0.2220024  )
       154           H   tau( 154) = (   0.0192133   0.1488646   0.2833601  )
       155           H   tau( 155) = (  -0.2660906   0.0848302   0.1085550  )
       156           H   tau( 156) = (  -0.2541789   0.1263491   0.0427843  )
       157           H   tau( 157) = (   0.1530483   0.3117301  -0.1068255  )
       158           H   tau( 158) = (   0.2189381   0.2748126  -0.1037568  )
       159           H   tau( 159) = (   0.0536662  -0.2705769  -0.2145503  )
       160           H   tau( 160) = (   0.0803607  -0.2670501  -0.1464071  )
       161           H   tau( 161) = (  -0.2191758   0.2249205  -0.2287235  )
       162           H   tau( 162) = (  -0.1512982   0.2174174  -0.1842573  )
       163           H   tau( 163) = (   0.2475407   0.0733764   0.3722275  )
       164           H   tau( 164) = (   0.2846931   0.0809315   0.3082926  )
       165           H   tau( 165) = (  -0.0936183   0.0897779   0.1355138  )
       166           H   tau( 166) = (  -0.0180379   0.0892149   0.1244709  )
       167           H   tau( 167) = (   0.0334861  -0.0917338  -0.1285440  )
       168           H   tau( 168) = (   0.0431575  -0.0813991  -0.2052104  )
       169           H   tau( 169) = (  -0.0105317  -0.1526204  -0.2482988  )
       170           H   tau( 170) = (   0.0070139  -0.1720876  -0.3213160  )
       171           H   tau( 171) = (   0.3515577  -0.3078759   0.2509892  )
       172           H   tau( 172) = (   0.3111269  -0.2720098   0.1954894  )
       173           H   tau( 173) = (   0.1977827  -0.1931043   0.0693063  )
       174           H   tau( 174) = (   0.1751718  -0.1274506   0.0327039  )
       175           H   tau( 175) = (   0.3378425  -0.0726153   0.1206838  )
       176           H   tau( 176) = (   0.2666892  -0.0492425   0.1042709  )
       177           H   tau( 177) = (   0.1152186   0.2041850  -0.2573575  )
       178           H   tau( 178) = (   0.0907408   0.2443726  -0.1907580  )
       179           H   tau( 179) = (  -0.0245916  -0.4384019   0.0414354  )
       180           H   tau( 180) = (  -0.0517835  -0.3683832   0.0625745  )
       181           H   tau( 181) = (  -0.2205665  -0.0640037  -0.2987776  )
       182           H   tau( 182) = (  -0.2254327  -0.1210015  -0.3510977  )
       183           H   tau( 183) = (  -0.1882020   0.0802501  -0.0533047  )
       184           H   tau( 184) = (  -0.2562468   0.0447287  -0.0701174  )
       185           H   tau( 185) = (   0.2151302   0.1796173  -0.2143286  )
       186           H   tau( 186) = (   0.2626181   0.1908885  -0.2715156  )
       187           H   tau( 187) = (   0.1227167  -0.0370240  -0.0512448  )
       188           H   tau( 188) = (   0.0486706  -0.0161928  -0.0654694  )
       189           H   tau( 189) = (  -0.2255595  -0.2448040   0.0969809  )
       190           H   tau( 190) = (  -0.3016641  -0.2333169   0.0951539  )
       191           H   tau( 191) = (   0.0641195   0.1541961   0.1238120  )
       192           H   tau( 192) = (   0.0966503   0.1326352   0.0512307  )

     number of k points=     1  Marzari-Vanderbilt smearing, width (Ry)=  0.0250
                       cart. coord. in units 2pi/alat
        k(    1) = (   0.0000000   0.0000000   0.0000000), wk =   2.0000000

     Dense  grid:   177509 G-vectors     FFT dimensions: (  72,  72,  72)

     Estimated max dynamical RAM per process >      67.80Mb

     Estimated total allocated dynamical RAM >    1898.40Mb

     Initial potential from superposition of free atoms
     Check: negative starting charge=   -0.684322

     starting charge  511.99856, renormalised to  512.00000

     negative rho (up, down):  6.843E-01 0.000E+00
     Starting wfc are  384 randomized atomic wfcs

     total cpu time spent up to now is        0.8 secs

     per-process dynamical memory:    45.9 Mb

     Self-consistent Calculation

     iteration #  1     ecut=    30.00 Ry     beta=0.70
     Davidson diagonalization with overlap
     ethr =  1.00E-02,  avg # of iterations =  7.0

     negative rho (up, down):  1.587E-01 0.000E+00

     total cpu time spent up to now is        8.0 secs

     total energy              =   -1802.21155401 Ry
     Harris-Foulkes estimate   =   -1829.11230699 Ry
     estimated scf accuracy    <      42.23881244 Ry

     iteration #  2     ecut=    30.00 Ry     beta=0.70
     Davidson diagonalization with overlap
     ethr =  8.25E-03,  avg # of iterations =  4.0

     negative rho (up, down):  2.206E-03 0.000E+00

     total cpu time spent up to now is       11.2 secs

     total energy              =   -1781.59155879 Ry
     Harris-Foulkes estimate   =   -1815.34301422 Ry
     estimated scf accuracy    <      75.22063555 Ry

     iteration #  3     ecut=    30.00 Ry     beta=0.70
     Davidson diagonalization with overlap
     ethr =  8.25E-03,  avg # of iterations =  4.0

     negative rho (up, down):  1.608E-05 0.000E+00

     total cpu time spent up to now is       14.4 secs

     total energy              =   -1798.86938848 Ry
     Harris-Foulkes estimate   =   -1818.96735982 Ry
     estimated scf accuracy    <      71.55765376 Ry

     iteration #  4     ecut=    30.00 Ry     beta=0.70
     Davidson diagonalization with overlap
     ethr =  8.25E-03,  avg # of iterations =  3.0

     total cpu time spent up to now is       16.3 secs

     total energy              =   -1809.79116527 Ry
     Harris-Foulkes estimate   =   -1812.15846306 Ry
     estimated scf accuracy    <       6.96144762 Ry

     iteration #  5     ecut=    30.00 Ry     beta=0.70
     Davidson diagonalization with overlap
     ethr =  1.36E-03,  avg # of iterations =  5.0

     total cpu time spent up to now is       18.8 secs

     total energy              =   -1809.61827869 Ry
     Harris-Foulkes estimate   =   -1810.22223206 Ry
     estimated scf accuracy    <       2.36016592 Ry

     iteration #  6     ecut=    30.00 Ry     beta=0.70
     Davidson diagonalization with overlap
     ethr =  4.61E-04,  avg # of iterations =  5.0

     total cpu time spent up to now is       21.2 secs

     total energy              =   -1809.49585610 Ry
     Harris-Foulkes estimate   =   -1809.70414560 Ry
     estimated scf accuracy    <       1.08100984 Ry

     iteration #  7     ecut=    30.00 Ry     beta=0.70
     Davidson diagonalization with overlap
     ethr =  2.11E-04,  avg # of iterations =  4.0

     total cpu time spent up to now is       23.2 secs

     total energy              =   -1809.40702906 Ry
     Harris-Foulkes estimate   =   -1809.56882593 Ry
     estimated scf accuracy    <       0.54548658 Ry

     iteration #  8     ecut=    30.00 Ry     beta=0.70
     Davidson diagonalization with overlap
     ethr =  1.07E-04,  avg # of iterations =  5.0

     total cpu time spent up to now is       25.8 secs

     total energy              =   -1809.43509970 Ry
     Harris-Foulkes estimate   =   -1809.53022450 Ry
     estimated scf accuracy    <       1.48350234 Ry

     iteration #  9     ecut=    30.00 Ry     beta=0.70
     Davidson diagonalization with overlap
     ethr =  1.07E-04,  avg # of iterations =  1.0

     total cpu time spent up to now is       26.9 secs

     total energy              =   -1809.42355392 Ry
     Harris-Foulkes estimate   =   -1809.46060192 Ry
     estimated scf accuracy    <       0.24954488 Ry

     iteration # 10     ecut=    30.00 Ry     beta=0.70
     Davidson diagonalization with overlap
     ethr =  4.87E-05,  avg # of iterations =  4.0

     total cpu time spent up to now is       28.9 secs

     total energy              =   -1809.41682335 Ry
     Harris-Foulkes estimate   =   -1809.45005180 Ry
     estimated scf accuracy    <       0.19664429 Ry

     iteration # 11     ecut=    30.00 Ry     beta=0.70
     Davidson diagonalization with overlap
     ethr =  3.84E-05,  avg # of iterations =  4.0

     total cpu time spent up to now is       30.9 secs

     total energy              =   -1809.41055436 Ry
     Harris-Foulkes estimate   =   -1809.43156822 Ry
     estimated scf accuracy    <       0.08566948 Ry

     iteration # 12     ecut=    30.00 Ry     beta=0.70
     Davidson diagonalization with overlap
     ethr =  1.67E-05,  avg # of iterations =  5.0

     total cpu time spent up to now is       33.3 secs

     total energy              =   -1809.40409321 Ry
     Harris-Foulkes estimate   =   -1809.42098117 Ry
     estimated scf accuracy    <       0.08426786 Ry

     iteration # 13     ecut=    30.00 Ry     beta=0.70
     Davidson diagonalization with overlap
     ethr =  1.65E-05,  avg # of iterations =  5.0

     total cpu time spent up to now is       35.9 secs

     total energy              =   -1809.40327494 Ry
     Harris-Foulkes estimate   =   -1809.43694254 Ry
     estimated scf accuracy    <       0.44038800 Ry

     iteration # 14     ecut=    30.00 Ry     beta=0.70
     Davidson diagonalization with overlap
     ethr =  1.65E-05,  avg # of iterations =  1.0

     total cpu time spent up to now is       37.0 secs

     total energy              =   -1809.40724360 Ry
     Harris-Foulkes estimate   =   -1809.41416067 Ry
     estimated scf accuracy    <       0.04071446 Ry

     iteration # 15     ecut=    30.00 Ry     beta=0.70
     Davidson diagonalization with overlap
     ethr =  7.95E-06,  avg # of iterations =  4.0

     total cpu time spent up to now is       39.0 secs

     total energy              =   -1809.41051253 Ry
     Harris-Foulkes estimate   =   -1809.41254640 Ry
     estimated scf accuracy    <       0.01657441 Ry

     iteration # 16     ecut=    30.00 Ry     beta=0.70
     Davidson diagonalization with overlap
     ethr =  3.24E-06,  avg # of iterations =  2.0

     total cpu time spent up to now is       40.4 secs

     total energy              =   -1809.41144317 Ry
     Harris-Foulkes estimate   =   -1809.41152112 Ry
     estimated scf accuracy    <       0.00054134 Ry

     iteration # 17     ecut=    30.00 Ry     beta=0.70
     Davidson diagonalization with overlap
     ethr =  1.06E-07,  avg # of iterations =  2.0

     total cpu time spent up to now is       41.9 secs

     total energy              =   -1809.41147915 Ry
     Harris-Foulkes estimate   =   -1809.41148824 Ry
     estimated scf accuracy    <       0.00004579 Ry

     iteration # 18     ecut=    30.00 Ry     beta=0.70
     Davidson diagonalization with overlap
     ethr =  8.94E-09,  avg # of iterations =  3.0

     total cpu time spent up to now is       43.7 secs

     total energy              =   -1809.41148576 Ry
     Harris-Foulkes estimate   =   -1809.41148690 Ry
     estimated scf accuracy    <       0.00000962 Ry

     iteration # 19     ecut=    30.00 Ry     beta=0.70
     Davidson diagonalization with overlap
     ethr =  1.88E-09,  avg # of iterations =  3.0

     total cpu time spent up to now is       45.4 secs

     total energy              =   -1809.41148666 Ry
     Harris-Foulkes estimate   =   -1809.41148731 Ry
     estimated scf accuracy    <       0.00000485 Ry

     iteration # 20     ecut=    30.00 Ry     beta=0.70
     Davidson diagonalization with overlap
     ethr =  9.48E-10,  avg # of iterations =  2.0

     total cpu time spent up to now is       46.8 secs

     total energy              =   -1809.41148707 Ry
     Harris-Foulkes estimate   =   -1809.41148727 Ry
     estimated scf accuracy    <       0.00000208 Ry

     iteration # 21     ecut=    30.00 Ry     beta=0.70
     Davidson diagonalization with overlap
     ethr =  4.06E-10,  avg # of iterations =  2.0

     total cpu time spent up to now is       48.2 secs

     total energy              =   -1809.41148720 Ry
     Harris-Foulkes estimate   =   -1809.41148724 Ry
     estimated scf accuracy    <       0.00000057 Ry

     iteration # 22     ecut=    30.00 Ry     beta=0.70
     Davidson diagonalization with overlap
     ethr =  1.12E-10,  avg # of iterations =  3.0

     total cpu time spent up to now is       49.9 secs

     total energy              =   -1809.41148722 Ry
     Harris-Foulkes estimate   =   -1809.41148723 Ry
     estimated scf accuracy    <       0.00000006 Ry

     iteration # 23     ecut=    30.00 Ry     beta=0.70
     Davidson diagonalization with overlap
     ethr =  1.19E-11,  avg # of iterations =  4.0

     total cpu time spent up to now is       52.2 secs

     total energy              =   -1809.41148723 Ry
     Harris-Foulkes estimate   =   -1809.41148724 Ry
     estimated scf accuracy    <       0.00000006 Ry

     iteration # 24     ecut=    30.00 Ry     beta=0.70
     Davidson diagonalization with overlap
     ethr =  1.19E-11,  avg # of iterations =  2.0

     total cpu time spent up to now is       53.7 secs

     End of self-consistent calculation

          k = 0.0000 0.0000 0.0000 ( 22119 PWs)   bands (ev):

   -39.3592 -38.5028 -38.2607 -37.6760 -37.1449 -36.5037 -36.2085 -35.5656
   -35.5065 -35.3172 -34.9314 -34.7295 -33.6687 -33.2941 -32.9593 -32.4896
   -32.1380 -31.8899 -31.7998 -31.5839 -31.3868 -31.0982 -30.7952 -30.6872
   -30.6045 -30.3310 -30.1765 -29.9031 -29.6837 -29.5933 -29.3325 -29.1945
   -29.1262 -28.9987 -28.7688 -28.7016 -28.6473 -28.6009 -28.5090 -28.2129
   -27.9903 -27.9606 -27.8285 -27.6957 -27.4778 -27.3265 -27.3058 -27.0670
   -27.0212 -26.9794 -26.7732 -26.2509 -26.2027 -26.0004 -25.8493 -25.7394
   -25.5120 -25.3173 -25.2736 -25.1776 -25.1111 -24.7525 -24.6867 -24.0375
   -21.0235 -20.9151 -20.3491 -20.0002 -19.7962 -19.2610 -18.9013 -18.8573
   -18.7385 -18.6468 -18.4934 -18.2134 -18.0464 -17.9190 -17.7086 -17.5264
   -17.3971 -17.1140 -16.9655 -16.7595 -16.5636 -16.5237 -16.4358 -16.2222
   -16.1082 -16.0414 -15.9294 -15.7430 -15.6686 -15.5362 -15.2507 -15.0756
   -15.0612 -14.7812 -14.7426 -14.6875 -14.5874 -14.4195 -14.1475 -14.0152
   -13.9454 -13.7649 -13.6725 -13.5513 -13.5055 -13.3011 -13.2449 -13.1463
   -13.0221 -12.9788 -12.8916 -12.6692 -12.5960 -12.3492 -12.1473 -12.0050
   -11.8415 -11.6389 -11.5770 -11.4575 -11.3657 -11.1609 -11.0999 -10.9277
   -10.4969 -10.0759  -9.7721  -9.4270  -8.8812  -8.5422  -8.3214  -8.0261
    -7.8253  -7.7772  -7.5560  -7.5325  -7.3804  -7.2971  -7.2014  -7.0759
    -7.0332  -6.6858  -6.6272  -6.4768  -6.3234  -6.2007  -6.1343  -6.0698
    -6.0260  -5.7483  -5.6913  -5.6203  -5.5246  -5.4030  -5.2210  -5.1125
    -4.9980  -4.9800  -4.9259  -4.7524  -4.6816  -4.6066  -4.5403  -4.4467
    -4.3461  -4.1634  -4.0447  -3.9633  -3.8886  -3.7164  -3.6453  -3.5867
    -3.5423  -3.4535  -3.4044  -3.2619  -3.2035  -3.0870  -2.9625  -2.9104
    -2.8427  -2.7663  -2.6671  -2.5892  -2.5434  -2.4613  -2.3745  -2.3291
    -2.1439  -2.0359  -2.0199  -1.9447  -1.8400  -1.6630  -1.6189  -1.4046
    -1.3402  -1.3080  -1.1026  -1.0686  -0.9616  -0.8971  -0.8434  -0.6974
    -0.6398  -0.6081  -0.4625  -0.3280  -0.2701  -0.1716  -0.1122  -0.0786
     0.0330   0.0836   0.2240   0.3320   0.3790   0.6021   0.6382   0.7696
     0.8186   0.9110   1.1864   1.2264   1.3306   1.3562   1.4440   1.6950
     1.7965   2.0633   2.1962   2.2553   2.4023   2.5118   2.6018   2.7544
     2.8370   2.9358   3.0261   3.1319   3.2318   3.5674   3.8336   3.9093
     4.1383   4.2484   4.5065   4.6742   5.0945   5.1598   5.3097   5.3492
     5.6225   6.5007   6.5258   6.7712   6.8078   7.1682   7.3729   7.6271
     7.7053   7.7493   7.8502   7.9749   8.0798   8.4689   8.6205   8.8500
     8.9023   9.0503   9.1625   9.4443   9.5864   9.6902   9.8327   9.9685
    10.1062  10.2309  10.3341  10.4857  10.5802  10.6230  10.7444  10.8961
    10.9792  11.0532  11.1630  11.3058  11.3753  11.4395  11.5206  11.6147
    11.7003  11.7852  11.8207  11.8371  11.9476  12.0188  12.0990  12.1434
    12.2709  12.2746  12.3779

     the Fermi energy is     5.5253 ev

!    total energy              =   -1809.41148723 Ry
     Harris-Foulkes estimate   =   -1809.41148723 Ry
     estimated scf accuracy    <          8.7E-09 Ry

     The total energy is the sum of the following terms:

     one-electron contribution =  -12726.52048107 Ry
     hartree contribution      =    6539.69933520 Ry
     xc contribution           =    -632.09617117 Ry
     ewald contribution        =    5009.50207819 Ry
     smearing contrib. (-TS)   =       0.00375162 Ry

     convergence has been achieved in  24 iterations

     Writing output data file pwscf.save
 
     init_run     :      0.56s CPU      0.63s WALL (       1 calls)
     electrons    :     51.29s CPU     52.92s WALL (       1 calls)

     Called by init_run:
     wfcinit      :      0.46s CPU      0.52s WALL (       1 calls)
     potinit      :      0.02s CPU      0.02s WALL (       1 calls)

     Called by electrons:
     c_bands      :     48.95s CPU     50.28s WALL (      24 calls)
     sum_band     :      1.94s CPU      1.99s WALL (      24 calls)
     v_of_rho     :      0.19s CPU      0.21s WALL (      25 calls)
     mix_rho      :      0.15s CPU      0.27s WALL (      24 calls)

     Called by c_bands:
     init_us_2    :      0.07s CPU      0.07s WALL (      49 calls)
     cegterg      :     48.80s CPU     50.04s WALL (      24 calls)

     Called by sum_band:

     Called by *egterg:
     h_psi        :      8.95s CPU      9.14s WALL (     109 calls)
     g_psi        :      0.07s CPU      0.07s WALL (      84 calls)
     cdiaghg      :     30.27s CPU     30.31s WALL (     108 calls)

     Called by h_psi:
     h_psi:pot    :      8.73s CPU      8.92s WALL (     109 calls)
     h_psi:calbec :      0.33s CPU      0.33s WALL (     109 calls)
     vloc_psi     :      8.12s CPU      8.30s WALL (     109 calls)
     add_vuspsi   :      0.28s CPU      0.29s WALL (     109 calls)

     General routines
     calbec       :      0.33s CPU      0.33s WALL (     109 calls)
     fft          :      0.11s CPU      0.12s WALL (     274 calls)
     fftw         :      9.03s CPU      9.24s WALL (   41020 calls)
     davcio       :      0.02s CPU      0.13s WALL (     388 calls)
 
     Parallel routines
     fft_scatter  :      3.39s CPU      3.50s WALL (   41294 calls)
 
     PWSCF        :    52.00s CPU        53.97s WALL

 
   This run was terminated on:   2:29: 2   3Feb2018            

=------------------------------------------------------------------------------=
   JOB DONE.
=------------------------------------------------------------------------------=
