
     Program PWSCF v.6.0 (svn rev. 13079) starts on  3Feb2018 at  2:43:53 

     This program is part of the open-source Quantum ESPRESSO suite
     for quantum simulation of materials; please cite
         "P. Giannozzi et al., J. Phys.:Condens. Matter 21 395502 (2009);
          URL http://www.quantum-espresso.org", 
     in publications or presentations arising from this work. More details at
     http://www.quantum-espresso.org/quote

     Parallel version (MPI), running on    28 processors
     R & G space division:  proc/nbgrp/npool/nimage =      28
     Reading input from input/scf-bigwater-1/1364.in
Warning: card &IONS ignored
Warning: card     POT_EXTRAPOLATION='SECOND-ORDER' ignored
Warning: card     WFC_EXTRAPOLATION='SECOND-ORDER' ignored
Warning: card     ION_TEMPERATURE = 'ANDERSEN' ignored
Warning: card     TEMPW = 1000 ignored
Warning: card / ignored

     Current dimensions of program PWSCF are:
     Max number of different atomic species (ntypx) = 10
     Max number of k-points (npk) =  40000
     Max angular momentum in pseudopotentials (lmaxx) =  3

     Subspace diagonalization in iterative solution of the eigenvalue problem:
     a serial algorithm will be used

 
     Parallelization info
     --------------------
     sticks:   dense  smooth     PW     G-vecs:    dense   smooth      PW
     Min         136     136     33                 6338     6338     787
     Max         137     137     34                 6341     6341     792
     Sum        3809    3809    949               177509   177509   22119
 


     bravais-lattice index     =            1
     lattice parameter (alat)  =      20.0000  a.u.
     unit-cell volume          =    8000.0000 (a.u.)^3
     number of atoms/cell      =          192
     number of atomic types    =            2
     number of electrons       =       512.00
     number of Kohn-Sham states=          307
     kinetic-energy cutoff     =      30.0000  Ry
     charge density cutoff     =     120.0000  Ry
     convergence threshold     =      1.0E-08
     mixing beta               =       0.7000
     number of iterations used =            8  plain     mixing
     Exchange-correlation      = BLYP ( 1  3  1  3 0 0)

     celldm(1)=  20.000000  celldm(2)=   0.000000  celldm(3)=   0.000000
     celldm(4)=   0.000000  celldm(5)=   0.000000  celldm(6)=   0.000000

     crystal axes: (cart. coord. in units of alat)
               a(1) = (   1.000000   0.000000   0.000000 )  
               a(2) = (   0.000000   1.000000   0.000000 )  
               a(3) = (   0.000000   0.000000   1.000000 )  

     reciprocal axes: (cart. coord. in units 2 pi/alat)
               b(1) = (  1.000000  0.000000  0.000000 )  
               b(2) = (  0.000000  1.000000  0.000000 )  
               b(3) = (  0.000000  0.000000  1.000000 )  


     PseudoPot. # 1 for  H read from file:
     ./H.blyp-hgh.UPF
     MD5 check sum: c576e69559cde411e611be972c763230
     Pseudo is Norm-conserving, Zval =  1.0
     Generated in analytical, separable form
     Using radial grid of  929 points,  0 beta functions with: 

     PseudoPot. # 2 for  O read from file:
     ./O.blyp-hgh.UPF
     MD5 check sum: d0b7156309aa9befef28faac7bc56342
     Pseudo is Norm-conserving, Zval =  6.0
     Generated in analytical, separable form
     Using radial grid of 1095 points,  1 beta functions with: 
                l(1) =   0

     atomic species   valence    mass     pseudopotential
        H              1.00     1.01000      H( 1.00)
        O              6.00    16.00000      O( 1.00)

     No symmetry found



   Cartesian axes

     site n.     atom                  positions (alat units)
         1           O   tau(   1) = (  -0.2890254  -0.0886123  -0.0035340  )
         2           O   tau(   2) = (   0.1832982  -0.0941837   0.3094483  )
         3           O   tau(   3) = (  -0.2838360   0.3552398  -0.2867591  )
         4           O   tau(   4) = (   0.1028992   0.1362781  -0.0393490  )
         5           O   tau(   5) = (  -0.2444314   0.0612892   0.2206957  )
         6           O   tau(   6) = (   0.0184220   0.2976564   0.3166726  )
         7           O   tau(   7) = (  -0.0925742  -0.2859174  -0.1288789  )
         8           O   tau(   8) = (   0.2101105   0.0548793   0.2434006  )
         9           O   tau(   9) = (  -0.1205294  -0.3377445   0.3021322  )
        10           O   tau(  10) = (   0.0852263  -0.1334010   0.1763962  )
        11           O   tau(  11) = (   0.1103790  -0.2876118   0.1043798  )
        12           O   tau(  12) = (  -0.1410220  -0.2046489   0.2634187  )
        13           O   tau(  13) = (  -0.1933211  -0.3415853   0.0055093  )
        14           O   tau(  14) = (  -0.1761918  -0.1943836  -0.2231374  )
        15           O   tau(  15) = (   0.1249340  -0.2342207  -0.0682366  )
        16           O   tau(  16) = (  -0.0618835   0.1490418  -0.0783412  )
        17           O   tau(  17) = (  -0.0657394  -0.1455855   0.0604773  )
        18           O   tau(  18) = (  -0.0077742  -0.2437854   0.1747458  )
        19           O   tau(  19) = (   0.2075347  -0.1946115  -0.1958994  )
        20           O   tau(  20) = (   0.2550981   0.2125348   0.0931093  )
        21           O   tau(  21) = (   0.2522283  -0.2001729   0.2221947  )
        22           O   tau(  22) = (  -0.1205931  -0.0655787  -0.1635485  )
        23           O   tau(  23) = (  -0.0645976   0.1648327  -0.2445007  )
        24           O   tau(  24) = (   0.2407612   0.0688272   0.0248560  )
        25           O   tau(  25) = (   0.1652109   0.0756334  -0.1797479  )
        26           O   tau(  26) = (  -0.2488564   0.1854546  -0.3024718  )
        27           O   tau(  27) = (   0.2425294  -0.2720245   0.0428878  )
        28           O   tau(  28) = (   0.0417750  -0.0285713  -0.3088671  )
        29           O   tau(  29) = (  -0.1453934   0.0322527  -0.2678350  )
        30           O   tau(  30) = (   0.0257375  -0.0455763   0.0888011  )
        31           O   tau(  31) = (   0.3054104  -0.1138128  -0.1704399  )
        32           O   tau(  32) = (   0.2020469  -0.0244067  -0.0620938  )
        33           O   tau(  33) = (  -0.0204457   0.2252734   0.1536163  )
        34           O   tau(  34) = (  -0.2393257  -0.0085219  -0.1389409  )
        35           O   tau(  35) = (  -0.0021948  -0.2174914  -0.0365764  )
        36           O   tau(  36) = (   0.2921910   0.1651713  -0.3921301  )
        37           O   tau(  37) = (   0.2021016   0.2902196   0.2682701  )
        38           O   tau(  38) = (  -0.3158167   0.3007319  -0.1262387  )
        39           O   tau(  39) = (   0.0072288   0.0510876  -0.1253444  )
        40           O   tau(  40) = (  -0.2353431  -0.2130069  -0.0306586  )
        41           O   tau(  41) = (  -0.1512188   0.3237771   0.1236820  )
        42           O   tau(  42) = (  -0.1227137   0.1518805   0.1934888  )
        43           O   tau(  43) = (  -0.1298941  -0.0143009  -0.0060849  )
        44           O   tau(  44) = (  -0.0824885  -0.0641699   0.2566773  )
        45           O   tau(  45) = (   0.0509096   0.1090437   0.2702723  )
        46           O   tau(  46) = (  -0.2466207   0.1219531   0.0908642  )
        47           O   tau(  47) = (   0.1710760   0.2699049  -0.0914399  )
        48           O   tau(  48) = (   0.0476229  -0.2951132  -0.1711500  )
        49           O   tau(  49) = (  -0.2010671   0.2316740  -0.1858440  )
        50           O   tau(  50) = (   0.2956365   0.0729168   0.3582679  )
        51           O   tau(  51) = (  -0.0549481   0.0702561   0.1054792  )
        52           O   tau(  52) = (   0.0158196  -0.1053414  -0.1715735  )
        53           O   tau(  53) = (  -0.0044457  -0.1916964  -0.2781095  )
        54           O   tau(  54) = (   0.3471576  -0.2998578   0.2031114  )
        55           O   tau(  55) = (   0.1946015  -0.1437765   0.0737934  )
        56           O   tau(  56) = (   0.2916175  -0.0741365   0.1376988  )
        57           O   tau(  57) = (   0.0881843   0.2012914  -0.2175588  )
        58           O   tau(  58) = (  -0.0402375  -0.3984118   0.0224901  )
        59           O   tau(  59) = (  -0.2249381  -0.0735085  -0.3459619  )
        60           O   tau(  60) = (  -0.2349321   0.0766226  -0.0378868  )
        61           O   tau(  61) = (   0.2144840   0.2064910  -0.2583849  )
        62           O   tau(  62) = (   0.0740102  -0.0453633  -0.0349845  )
        63           O   tau(  63) = (  -0.2598006  -0.2089229   0.0972983  )
        64           O   tau(  64) = (   0.0962871   0.1248686   0.0993981  )
        65           H   tau(  65) = (  -0.2642502  -0.1091972  -0.0409331  )
        66           H   tau(  66) = (  -0.2983698  -0.1233368   0.0296337  )
        67           H   tau(  67) = (   0.1411298  -0.0692055   0.3152231  )
        68           H   tau(  68) = (   0.1740309  -0.1227353   0.2695510  )
        69           H   tau(  69) = (  -0.3005379   0.3272301  -0.2501260  )
        70           H   tau(  70) = (  -0.2412965   0.3670812  -0.2640678  )
        71           H   tau(  71) = (   0.1356229   0.1732633  -0.0409521  )
        72           H   tau(  72) = (   0.0572688   0.1542177  -0.0441407  )
        73           H   tau(  73) = (  -0.2621810   0.0196463   0.2402219  )
        74           H   tau(  74) = (  -0.1997976   0.0459971   0.2087905  )
        75           H   tau(  75) = (  -0.0009345   0.3421687   0.3240730  )
        76           H   tau(  76) = (   0.0411052   0.2795389   0.3560794  )
        77           H   tau(  77) = (  -0.1332553  -0.2904902  -0.1541117  )
        78           H   tau(  78) = (  -0.0791127  -0.3233435  -0.1016201  )
        79           H   tau(  79) = (   0.1721966   0.0818537   0.2305403  )
        80           H   tau(  80) = (   0.2065051   0.0094283   0.2254165  )
        81           H   tau(  81) = (  -0.1499105  -0.3734865   0.3159401  )
        82           H   tau(  82) = (  -0.0750810  -0.3530451   0.2923634  )
        83           H   tau(  83) = (   0.0628941  -0.0933983   0.1528174  )
        84           H   tau(  84) = (   0.1234378  -0.1463084   0.1488327  )
        85           H   tau(  85) = (   0.0659827  -0.2935900   0.1237053  )
        86           H   tau(  86) = (   0.1004157  -0.2634282   0.0630315  )
        87           H   tau(  87) = (  -0.1169329  -0.2354746   0.2933714  )
        88           H   tau(  88) = (  -0.1205737  -0.2214120   0.2229177  )
        89           H   tau(  89) = (  -0.2018795  -0.3887345  -0.0047843  )
        90           H   tau(  90) = (  -0.2243665  -0.3107659  -0.0183898  )
        91           H   tau(  91) = (  -0.1625710  -0.1481066  -0.2125970  )
        92           H   tau(  92) = (  -0.1379106  -0.2221281  -0.2356286  )
        93           H   tau(  93) = (   0.1431290  -0.2081617  -0.1053956  )
        94           H   tau(  94) = (   0.0796759  -0.2180706  -0.0511416  )
        95           H   tau(  95) = (  -0.0759617   0.1702545  -0.1195775  )
        96           H   tau(  96) = (  -0.0695505   0.1800747  -0.0398212  )
        97           H   tau(  97) = (  -0.0965013  -0.1177642   0.0328728  )
        98           H   tau(  98) = (  -0.0428275  -0.1074571   0.0826044  )
        99           H   tau(  99) = (   0.0157691  -0.1993789   0.1802533  )
       100           H   tau( 100) = (  -0.0434922  -0.2322550   0.1425869  )
       101           H   tau( 101) = (   0.2369306  -0.2109710  -0.2333827  )
       102           H   tau( 102) = (   0.1894431  -0.1550488  -0.2207715  )
       103           H   tau( 103) = (   0.2431271   0.2587471   0.1064773  )
       104           H   tau( 104) = (   0.3023087   0.2115108   0.1026627  )
       105           H   tau( 105) = (   0.2691768  -0.1687085   0.2553685  )
       106           H   tau( 106) = (   0.2154911  -0.2221249   0.2463202  )
       107           H   tau( 107) = (  -0.0747219  -0.0841347  -0.1570303  )
       108           H   tau( 108) = (  -0.1102102  -0.0281021  -0.1940682  )
       109           H   tau( 109) = (  -0.0262788   0.1943081  -0.2356648  )
       110           H   tau( 110) = (  -0.0506428   0.1221119  -0.2253397  )
       111           H   tau( 111) = (   0.2764165   0.1019816   0.0244795  )
       112           H   tau( 112) = (   0.2212210   0.0693175   0.0695366  )
       113           H   tau( 113) = (   0.2069145   0.0808848  -0.1540477  )
       114           H   tau( 114) = (   0.1440420   0.1196406  -0.1805040  )
       115           H   tau( 115) = (  -0.2820445   0.1774944  -0.3411928  )
       116           H   tau( 116) = (  -0.2190213   0.1468684  -0.2998061  )
       117           H   tau( 117) = (   0.2104216  -0.2911392   0.0096465  )
       118           H   tau( 118) = (   0.2582353  -0.2341688   0.0157381  )
       119           H   tau( 119) = (   0.0017037  -0.0551539  -0.3155978  )
       120           H   tau( 120) = (   0.0331626   0.0113040  -0.3360342  )
       121           H   tau( 121) = (  -0.1293839  -0.0057947  -0.2946313  )
       122           H   tau( 122) = (  -0.1921667   0.0262937  -0.2541497  )
       123           H   tau( 123) = (   0.0196686   0.0026249   0.0841175  )
       124           H   tau( 124) = (   0.0559020  -0.0559972   0.0511361  )
       125           H   tau( 125) = (   0.2738645  -0.1066235  -0.2060185  )
       126           H   tau( 126) = (   0.3071650  -0.1625945  -0.1710070  )
       127           H   tau( 127) = (   0.2120722   0.0063692  -0.0254126  )
       128           H   tau( 128) = (   0.2408151  -0.0544043  -0.0633193  )
       129           H   tau( 129) = (  -0.0068479   0.2635325   0.1806143  )
       130           H   tau( 130) = (  -0.0659670   0.2245300   0.1657112  )
       131           H   tau( 131) = (  -0.2070061  -0.0414253  -0.1550800  )
       132           H   tau( 132) = (  -0.2822031  -0.0301559  -0.1488727  )
       133           H   tau( 133) = (  -0.0087040  -0.2655172  -0.0371978  )
       134           H   tau( 134) = (  -0.0238891  -0.1963859   0.0031534  )
       135           H   tau( 135) = (   0.2767413   0.2066475  -0.4133018  )
       136           H   tau( 136) = (   0.3046496   0.1343254  -0.4272564  )
       137           H   tau( 137) = (   0.1579363   0.2982789   0.2490934  )
       138           H   tau( 138) = (   0.1945216   0.2650912   0.3096348  )
       139           H   tau( 139) = (  -0.2799129   0.2663998  -0.1219667  )
       140           H   tau( 140) = (  -0.2832766   0.3383007  -0.1299386  )
       141           H   tau( 141) = (  -0.0174635   0.0876743  -0.1024093  )
       142           H   tau( 142) = (   0.0480996   0.0705220  -0.1441762  )
       143           H   tau( 143) = (  -0.1904523  -0.2273200  -0.0405773  )
       144           H   tau( 144) = (  -0.2448386  -0.1974108   0.0159801  )
       145           H   tau( 145) = (  -0.1668104   0.3021696   0.0811044  )
       146           H   tau( 146) = (  -0.1823287   0.3099399   0.1589601  )
       147           H   tau( 147) = (  -0.1713032   0.1467803   0.1955941  )
       148           H   tau( 148) = (  -0.1038493   0.1502373   0.2388139  )
       149           H   tau( 149) = (  -0.1403226  -0.0332956  -0.0505243  )
       150           H   tau( 150) = (  -0.1760966  -0.0029094   0.0061076  )
       151           H   tau( 151) = (  -0.0818437  -0.0277585   0.2238634  )
       152           H   tau( 152) = (  -0.1257267  -0.0872706   0.2506423  )
       153           H   tau( 153) = (   0.0406570   0.1090726   0.2213351  )
       154           H   tau( 154) = (   0.0244605   0.1500655   0.2802088  )
       155           H   tau( 155) = (  -0.2716431   0.0820786   0.1050533  )
       156           H   tau( 156) = (  -0.2517790   0.1202503   0.0415363  )
       157           H   tau( 157) = (   0.1472538   0.3085504  -0.1090618  )
       158           H   tau( 158) = (   0.2188239   0.2775803  -0.0994436  )
       159           H   tau( 159) = (   0.0507610  -0.2662007  -0.2111910  )
       160           H   tau( 160) = (   0.0750880  -0.2653495  -0.1427068  )
       161           H   tau( 161) = (  -0.2195120   0.2220449  -0.2303277  )
       162           H   tau( 162) = (  -0.1563182   0.2129894  -0.1833122  )
       163           H   tau( 163) = (   0.2482223   0.0767140   0.3705465  )
       164           H   tau( 164) = (   0.2891596   0.0839394   0.3108190  )
       165           H   tau( 165) = (  -0.0943685   0.0906827   0.1270844  )
       166           H   tau( 166) = (  -0.0160961   0.0890312   0.1284750  )
       167           H   tau( 167) = (   0.0332086  -0.0956654  -0.1270370  )
       168           H   tau( 168) = (   0.0453394  -0.0827866  -0.2035606  )
       169           H   tau( 169) = (  -0.0063806  -0.1548327  -0.2448909  )
       170           H   tau( 170) = (   0.0094970  -0.1733061  -0.3212970  )
       171           H   tau( 171) = (   0.3513271  -0.3060259   0.2517766  )
       172           H   tau( 172) = (   0.3114912  -0.2664768   0.1957829  )
       173           H   tau( 173) = (   0.2008243  -0.1929183   0.0732654  )
       174           H   tau( 174) = (   0.1709041  -0.1269879   0.0347373  )
       175           H   tau( 175) = (   0.3344999  -0.0761286   0.1138056  )
       176           H   tau( 176) = (   0.2643617  -0.0438057   0.1105003  )
       177           H   tau( 177) = (   0.1210907   0.2093357  -0.2539591  )
       178           H   tau( 178) = (   0.0911116   0.2447106  -0.1923315  )
       179           H   tau( 179) = (  -0.0233631  -0.4407279   0.0401726  )
       180           H   tau( 180) = (  -0.0487679  -0.3734494   0.0638657  )
       181           H   tau( 181) = (  -0.2204858  -0.0704792  -0.2970515  )
       182           H   tau( 182) = (  -0.2300537  -0.1216341  -0.3540722  )
       183           H   tau( 183) = (  -0.1878797   0.0788828  -0.0515711  )
       184           H   tau( 184) = (  -0.2534567   0.0467847  -0.0732205  )
       185           H   tau( 185) = (   0.2198374   0.1827671  -0.2163670  )
       186           H   tau( 186) = (   0.2577909   0.1921596  -0.2765753  )
       187           H   tau( 187) = (   0.1221482  -0.0409445  -0.0499325  )
       188           H   tau( 188) = (   0.0506118  -0.0111408  -0.0624442  )
       189           H   tau( 189) = (  -0.2243202  -0.2431517   0.0929999  )
       190           H   tau( 190) = (  -0.3008980  -0.2349024   0.0990378  )
       191           H   tau( 191) = (   0.0643940   0.1523344   0.1248358  )
       192           H   tau( 192) = (   0.0934388   0.1327278   0.0501730  )

     number of k points=     1  Marzari-Vanderbilt smearing, width (Ry)=  0.0250
                       cart. coord. in units 2pi/alat
        k(    1) = (   0.0000000   0.0000000   0.0000000), wk =   2.0000000

     Dense  grid:   177509 G-vectors     FFT dimensions: (  72,  72,  72)

     Estimated max dynamical RAM per process >      67.80Mb

     Estimated total allocated dynamical RAM >    1898.40Mb

     Initial potential from superposition of free atoms
     Check: negative starting charge=   -0.688750

     starting charge  511.99856, renormalised to  512.00000

     negative rho (up, down):  6.888E-01 0.000E+00
     Starting wfc are  384 randomized atomic wfcs

     total cpu time spent up to now is        0.8 secs

     per-process dynamical memory:    45.9 Mb

     Self-consistent Calculation

     iteration #  1     ecut=    30.00 Ry     beta=0.70
     Davidson diagonalization with overlap
     ethr =  1.00E-02,  avg # of iterations =  7.0

     negative rho (up, down):  1.603E-01 0.000E+00

     total cpu time spent up to now is        7.9 secs

     total energy              =   -1802.13158956 Ry
     Harris-Foulkes estimate   =   -1829.07417212 Ry
     estimated scf accuracy    <      42.23156107 Ry

     iteration #  2     ecut=    30.00 Ry     beta=0.70
     Davidson diagonalization with overlap
     ethr =  8.25E-03,  avg # of iterations =  4.0

     negative rho (up, down):  2.664E-03 0.000E+00

     total cpu time spent up to now is       11.1 secs

     total energy              =   -1783.76593304 Ry
     Harris-Foulkes estimate   =   -1814.82698482 Ry
     estimated scf accuracy    <      66.22280190 Ry

     iteration #  3     ecut=    30.00 Ry     beta=0.70
     Davidson diagonalization with overlap
     ethr =  8.25E-03,  avg # of iterations =  4.0

     negative rho (up, down):  4.975E-05 0.000E+00

     total cpu time spent up to now is       14.3 secs

     total energy              =   -1798.49579094 Ry
     Harris-Foulkes estimate   =   -1818.69839757 Ry
     estimated scf accuracy    <      71.63513469 Ry

     iteration #  4     ecut=    30.00 Ry     beta=0.70
     Davidson diagonalization with overlap
     ethr =  8.25E-03,  avg # of iterations =  3.0

     total cpu time spent up to now is       16.2 secs

     total energy              =   -1809.60613421 Ry
     Harris-Foulkes estimate   =   -1811.92930305 Ry
     estimated scf accuracy    <       6.61472389 Ry

     iteration #  5     ecut=    30.00 Ry     beta=0.70
     Davidson diagonalization with overlap
     ethr =  1.29E-03,  avg # of iterations =  5.0

     total cpu time spent up to now is       18.7 secs

     total energy              =   -1809.49565612 Ry
     Harris-Foulkes estimate   =   -1810.04316301 Ry
     estimated scf accuracy    <       2.21451378 Ry

     iteration #  6     ecut=    30.00 Ry     beta=0.70
     Davidson diagonalization with overlap
     ethr =  4.33E-04,  avg # of iterations =  6.0

     total cpu time spent up to now is       21.5 secs

     total energy              =   -1809.36657473 Ry
     Harris-Foulkes estimate   =   -1809.59967403 Ry
     estimated scf accuracy    <       1.00171500 Ry

     iteration #  7     ecut=    30.00 Ry     beta=0.70
     Davidson diagonalization with overlap
     ethr =  1.96E-04,  avg # of iterations =  8.0

     total cpu time spent up to now is       24.8 secs

     total energy              =   -1809.31288926 Ry
     Harris-Foulkes estimate   =   -1809.41392218 Ry
     estimated scf accuracy    <       0.41344810 Ry

     iteration #  8     ecut=    30.00 Ry     beta=0.70
     Davidson diagonalization with overlap
     ethr =  8.08E-05,  avg # of iterations =  4.0

     total cpu time spent up to now is       26.9 secs

     total energy              =   -1809.30848865 Ry
     Harris-Foulkes estimate   =   -1809.35967956 Ry
     estimated scf accuracy    <       0.40869658 Ry

     iteration #  9     ecut=    30.00 Ry     beta=0.70
     Davidson diagonalization with overlap
     ethr =  7.98E-05,  avg # of iterations =  1.0

     total cpu time spent up to now is       28.1 secs

     total energy              =   -1809.27798623 Ry
     Harris-Foulkes estimate   =   -1809.33812480 Ry
     estimated scf accuracy    <       0.25110004 Ry

     iteration # 10     ecut=    30.00 Ry     beta=0.70
     Davidson diagonalization with overlap
     ethr =  4.90E-05,  avg # of iterations =  4.0

     total cpu time spent up to now is       30.1 secs

     total energy              =   -1809.31495653 Ry
     Harris-Foulkes estimate   =   -1809.33462470 Ry
     estimated scf accuracy    <       0.25532501 Ry

     iteration # 11     ecut=    30.00 Ry     beta=0.70
     Davidson diagonalization with overlap
     ethr =  4.90E-05,  avg # of iterations =  1.0

     total cpu time spent up to now is       31.2 secs

     total energy              =   -1809.31342351 Ry
     Harris-Foulkes estimate   =   -1809.32507784 Ry
     estimated scf accuracy    <       0.08409074 Ry

     iteration # 12     ecut=    30.00 Ry     beta=0.70
     Davidson diagonalization with overlap
     ethr =  1.64E-05,  avg # of iterations =  4.0

     total cpu time spent up to now is       33.2 secs

     total energy              =   -1809.30971497 Ry
     Harris-Foulkes estimate   =   -1809.31902631 Ry
     estimated scf accuracy    <       0.04207366 Ry

     iteration # 13     ecut=    30.00 Ry     beta=0.70
     Davidson diagonalization with overlap
     ethr =  8.22E-06,  avg # of iterations =  5.0

     total cpu time spent up to now is       35.8 secs

     total energy              =   -1809.30299384 Ry
     Harris-Foulkes estimate   =   -1809.31281433 Ry
     estimated scf accuracy    <       0.05683894 Ry

     iteration # 14     ecut=    30.00 Ry     beta=0.70
     Davidson diagonalization with overlap
     ethr =  8.22E-06,  avg # of iterations =  3.0

     total cpu time spent up to now is       37.5 secs

     total energy              =   -1809.30243098 Ry
     Harris-Foulkes estimate   =   -1809.31528656 Ry
     estimated scf accuracy    <       0.16390541 Ry

     iteration # 15     ecut=    30.00 Ry     beta=0.70
     Davidson diagonalization with overlap
     ethr =  8.22E-06,  avg # of iterations =  1.0

     total cpu time spent up to now is       38.6 secs

     total energy              =   -1809.30794508 Ry
     Harris-Foulkes estimate   =   -1809.30856088 Ry
     estimated scf accuracy    <       0.00388192 Ry

     iteration # 16     ecut=    30.00 Ry     beta=0.70
     Davidson diagonalization with overlap
     ethr =  7.58E-07,  avg # of iterations =  4.0

     total cpu time spent up to now is       40.6 secs

     total energy              =   -1809.30816748 Ry
     Harris-Foulkes estimate   =   -1809.30830364 Ry
     estimated scf accuracy    <       0.00125737 Ry

     iteration # 17     ecut=    30.00 Ry     beta=0.70
     Davidson diagonalization with overlap
     ethr =  2.46E-07,  avg # of iterations =  2.0

     total cpu time spent up to now is       42.0 secs

     total energy              =   -1809.30821836 Ry
     Harris-Foulkes estimate   =   -1809.30825193 Ry
     estimated scf accuracy    <       0.00025346 Ry

     iteration # 18     ecut=    30.00 Ry     beta=0.70
     Davidson diagonalization with overlap
     ethr =  4.95E-08,  avg # of iterations =  2.0

     total cpu time spent up to now is       43.4 secs

     total energy              =   -1809.30823610 Ry
     Harris-Foulkes estimate   =   -1809.30823874 Ry
     estimated scf accuracy    <       0.00003285 Ry

     iteration # 19     ecut=    30.00 Ry     beta=0.70
     Davidson diagonalization with overlap
     ethr =  6.42E-09,  avg # of iterations =  2.0

     total cpu time spent up to now is       44.8 secs

     total energy              =   -1809.30823775 Ry
     Harris-Foulkes estimate   =   -1809.30823822 Ry
     estimated scf accuracy    <       0.00000313 Ry

     iteration # 20     ecut=    30.00 Ry     beta=0.70
     Davidson diagonalization with overlap
     ethr =  6.12E-10,  avg # of iterations =  2.0

     total cpu time spent up to now is       46.2 secs

     total energy              =   -1809.30823802 Ry
     Harris-Foulkes estimate   =   -1809.30823808 Ry
     estimated scf accuracy    <       0.00000084 Ry

     iteration # 21     ecut=    30.00 Ry     beta=0.70
     Davidson diagonalization with overlap
     ethr =  1.63E-10,  avg # of iterations =  3.0

     total cpu time spent up to now is       48.0 secs

     total energy              =   -1809.30823809 Ry
     Harris-Foulkes estimate   =   -1809.30823817 Ry
     estimated scf accuracy    <       0.00000046 Ry

     iteration # 22     ecut=    30.00 Ry     beta=0.70
     Davidson diagonalization with overlap
     ethr =  9.01E-11,  avg # of iterations =  2.0

     total cpu time spent up to now is       49.4 secs

     total energy              =   -1809.30823812 Ry
     Harris-Foulkes estimate   =   -1809.30823814 Ry
     estimated scf accuracy    <       0.00000003 Ry

     iteration # 23     ecut=    30.00 Ry     beta=0.70
     Davidson diagonalization with overlap
     ethr =  5.04E-12,  avg # of iterations =  3.0

     total cpu time spent up to now is       51.4 secs

     End of self-consistent calculation

          k = 0.0000 0.0000 0.0000 ( 22119 PWs)   bands (ev):

   -39.3468 -38.7117 -38.3498 -37.6671 -37.1653 -36.4621 -36.3836 -36.1832
   -35.7377 -35.5349 -35.4426 -34.6386 -33.6975 -33.3902 -33.2507 -32.5278
   -32.3032 -32.1047 -31.8696 -31.5413 -31.2255 -31.1881 -30.8951 -30.7694
   -30.5387 -30.4382 -30.3060 -29.8770 -29.7106 -29.5439 -29.4603 -29.4288
   -29.1652 -29.0037 -28.9267 -28.8570 -28.7219 -28.6023 -28.4105 -28.2750
   -28.1443 -28.1052 -27.9761 -27.9390 -27.5428 -27.4192 -27.2695 -27.0653
   -26.9800 -26.8892 -26.7800 -26.6966 -26.3378 -26.2088 -26.0073 -25.8501
   -25.7042 -25.6285 -25.3501 -25.1879 -25.1230 -24.6613 -24.5819 -24.1745
   -21.3366 -20.9556 -20.7159 -20.1676 -19.9497 -19.3178 -18.9269 -18.8781
   -18.7197 -18.5939 -18.5174 -18.1664 -17.9948 -17.8495 -17.7436 -17.6186
   -17.4543 -17.1430 -16.9143 -16.7568 -16.6163 -16.4348 -16.2956 -16.1158
   -16.0450 -15.9108 -15.8249 -15.7736 -15.6402 -15.3112 -14.9718 -14.9438
   -14.8931 -14.8055 -14.7084 -14.6398 -14.4859 -14.4573 -14.0682 -14.0247
   -13.8808 -13.7728 -13.7338 -13.6391 -13.5863 -13.4690 -13.3420 -13.1107
   -12.9822 -12.9460 -12.7167 -12.6141 -12.3630 -12.2782 -12.0630 -11.9003
   -11.8637 -11.8255 -11.7728 -11.6510 -11.5456 -11.2835 -11.0425 -10.4638
   -10.3801 -10.0419  -9.7788  -9.4223  -8.7918  -8.4278  -8.2002  -8.1201
    -7.8617  -7.7368  -7.6665  -7.5538  -7.4322  -7.2604  -7.1889  -7.1093
    -6.9992  -6.8482  -6.6961  -6.4536  -6.3283  -6.1860  -6.0966  -6.0411
    -5.9981  -5.9171  -5.7882  -5.7261  -5.6080  -5.4777  -5.4494  -5.1952
    -5.1883  -5.0106  -4.8494  -4.8149  -4.6866  -4.5912  -4.5235  -4.4011
    -4.3746  -4.2430  -4.1192  -4.0666  -3.9574  -3.8566  -3.7128  -3.6854
    -3.6167  -3.5333  -3.4247  -3.2888  -3.2079  -3.1363  -3.0134  -2.9538
    -2.9044  -2.7535  -2.6797  -2.6010  -2.5206  -2.4748  -2.4262  -2.3102
    -2.2737  -2.1872  -2.1455  -2.0678  -1.8965  -1.7254  -1.6843  -1.5870
    -1.4720  -1.3003  -1.1808  -1.1383  -1.0708  -0.9815  -0.9148  -0.8496
    -0.6747  -0.6129  -0.5297  -0.4380  -0.2572  -0.2051  -0.1569  -0.0685
     0.0386   0.0938   0.1560   0.2098   0.3991   0.5193   0.5691   0.7342
     0.8658   1.0592   1.1245   1.1735   1.2702   1.4044   1.4977   1.5793
     1.7908   1.9021   2.0421   2.2271   2.3981   2.4651   2.5262   2.7968
     2.9419   2.9545   3.0845   3.2583   3.2954   3.5335   3.8421   3.9089
     4.0206   4.1159   4.4198   4.6919   5.0651   5.2017   5.2810   5.3842
     5.6367   6.5086   6.5519   6.7615   6.8044   7.1756   7.3670   7.6599
     7.7122   7.7498   7.8639   8.0012   8.0451   8.4318   8.6259   8.8028
     8.9008   9.0449   9.1770   9.4312   9.6085   9.6987   9.8584   9.9863
    10.1006  10.2348  10.3569  10.5030  10.5862  10.6328  10.7673  10.8897
    10.9780  11.0519  11.1835  11.2818  11.3508  11.4477  11.5405  11.6106
    11.7110  11.7447  11.8062  11.8488  11.9361  12.0348  12.0859  12.1607
    12.2569  12.2767  12.3553

     the Fermi energy is     5.5375 ev

!    total energy              =   -1809.30823813 Ry
     Harris-Foulkes estimate   =   -1809.30823813 Ry
     estimated scf accuracy    <          8.3E-09 Ry

     The total energy is the sum of the following terms:

     one-electron contribution =  -12719.23618840 Ry
     hartree contribution      =    6535.31132692 Ry
     xc contribution           =    -632.08404115 Ry
     ewald contribution        =    5006.69658901 Ry
     smearing contrib. (-TS)   =       0.00407548 Ry

     convergence has been achieved in  23 iterations

     Writing output data file pwscf.save
 
     init_run     :      0.57s CPU      0.64s WALL (       1 calls)
     electrons    :     49.10s CPU     50.65s WALL (       1 calls)

     Called by init_run:
     wfcinit      :      0.47s CPU      0.54s WALL (       1 calls)
     potinit      :      0.02s CPU      0.02s WALL (       1 calls)

     Called by electrons:
     c_bands      :     46.83s CPU     48.09s WALL (      23 calls)
     sum_band     :      1.89s CPU      1.95s WALL (      23 calls)
     v_of_rho     :      0.18s CPU      0.20s WALL (      24 calls)
     mix_rho      :      0.14s CPU      0.26s WALL (      23 calls)

     Called by c_bands:
     init_us_2    :      0.06s CPU      0.06s WALL (      47 calls)
     cegterg      :     46.68s CPU     47.88s WALL (      23 calls)

     Called by sum_band:

     Called by *egterg:
     h_psi        :      8.54s CPU      8.73s WALL (     104 calls)
     g_psi        :      0.07s CPU      0.07s WALL (      80 calls)
     cdiaghg      :     28.73s CPU     28.77s WALL (     103 calls)

     Called by h_psi:
     h_psi:pot    :      8.33s CPU      8.52s WALL (     104 calls)
     h_psi:calbec :      0.32s CPU      0.32s WALL (     104 calls)
     vloc_psi     :      7.74s CPU      7.92s WALL (     104 calls)
     add_vuspsi   :      0.27s CPU      0.28s WALL (     104 calls)

     General routines
     calbec       :      0.32s CPU      0.32s WALL (     104 calls)
     fft          :      0.11s CPU      0.11s WALL (     263 calls)
     fftw         :      8.67s CPU      8.88s WALL (   39235 calls)
     davcio       :      0.03s CPU      0.13s WALL (     368 calls)
 
     Parallel routines
     fft_scatter  :      3.00s CPU      3.10s WALL (   39498 calls)
 
     PWSCF        :    49.83s CPU        51.69s WALL

 
   This run was terminated on:   2:44:45   3Feb2018            

=------------------------------------------------------------------------------=
   JOB DONE.
=------------------------------------------------------------------------------=
