
     Program PWSCF v.6.0 (svn rev. 13079) starts on  2Feb2018 at  7: 6:15 

     This program is part of the open-source Quantum ESPRESSO suite
     for quantum simulation of materials; please cite
         "P. Giannozzi et al., J. Phys.:Condens. Matter 21 395502 (2009);
          URL http://www.quantum-espresso.org", 
     in publications or presentations arising from this work. More details at
     http://www.quantum-espresso.org/quote

     Parallel version (MPI), running on    28 processors
     R & G space division:  proc/nbgrp/npool/nimage =      28
     Reading input from input/scf-bigwater-1/139.in
Warning: card &IONS ignored
Warning: card     POT_EXTRAPOLATION='SECOND-ORDER' ignored
Warning: card     WFC_EXTRAPOLATION='SECOND-ORDER' ignored
Warning: card     ION_TEMPERATURE = 'ANDERSEN' ignored
Warning: card     TEMPW = 1000 ignored
Warning: card / ignored

     Current dimensions of program PWSCF are:
     Max number of different atomic species (ntypx) = 10
     Max number of k-points (npk) =  40000
     Max angular momentum in pseudopotentials (lmaxx) =  3

     Subspace diagonalization in iterative solution of the eigenvalue problem:
     a serial algorithm will be used

 
     Parallelization info
     --------------------
     sticks:   dense  smooth     PW     G-vecs:    dense   smooth      PW
     Min         136     136     33                 6338     6338     787
     Max         137     137     34                 6341     6341     792
     Sum        3809    3809    949               177509   177509   22119
 


     bravais-lattice index     =            1
     lattice parameter (alat)  =      20.0000  a.u.
     unit-cell volume          =    8000.0000 (a.u.)^3
     number of atoms/cell      =          192
     number of atomic types    =            2
     number of electrons       =       512.00
     number of Kohn-Sham states=          307
     kinetic-energy cutoff     =      30.0000  Ry
     charge density cutoff     =     120.0000  Ry
     convergence threshold     =      1.0E-08
     mixing beta               =       0.7000
     number of iterations used =            8  plain     mixing
     Exchange-correlation      = BLYP ( 1  3  1  3 0 0)

     celldm(1)=  20.000000  celldm(2)=   0.000000  celldm(3)=   0.000000
     celldm(4)=   0.000000  celldm(5)=   0.000000  celldm(6)=   0.000000

     crystal axes: (cart. coord. in units of alat)
               a(1) = (   1.000000   0.000000   0.000000 )  
               a(2) = (   0.000000   1.000000   0.000000 )  
               a(3) = (   0.000000   0.000000   1.000000 )  

     reciprocal axes: (cart. coord. in units 2 pi/alat)
               b(1) = (  1.000000  0.000000  0.000000 )  
               b(2) = (  0.000000  1.000000  0.000000 )  
               b(3) = (  0.000000  0.000000  1.000000 )  


     PseudoPot. # 1 for  H read from file:
     ./H.blyp-hgh.UPF
     MD5 check sum: c576e69559cde411e611be972c763230
     Pseudo is Norm-conserving, Zval =  1.0
     Generated in analytical, separable form
     Using radial grid of  929 points,  0 beta functions with: 

     PseudoPot. # 2 for  O read from file:
     ./O.blyp-hgh.UPF
     MD5 check sum: d0b7156309aa9befef28faac7bc56342
     Pseudo is Norm-conserving, Zval =  6.0
     Generated in analytical, separable form
     Using radial grid of 1095 points,  1 beta functions with: 
                l(1) =   0

     atomic species   valence    mass     pseudopotential
        H              1.00     1.01000      H( 1.00)
        O              6.00    16.00000      O( 1.00)

     No symmetry found



   Cartesian axes

     site n.     atom                  positions (alat units)
         1           O   tau(   1) = (  -0.2629994  -0.0756703  -0.0784278  )
         2           O   tau(   2) = (   0.1957065  -0.1049049   0.2693595  )
         3           O   tau(   3) = (  -0.2871480   0.2723657  -0.2728820  )
         4           O   tau(   4) = (  -0.0088096   0.1899770  -0.0751216  )
         5           O   tau(   5) = (  -0.2363861   0.0385211   0.1960723  )
         6           O   tau(   6) = (  -0.0115565   0.2733521   0.2615163  )
         7           O   tau(   7) = (  -0.0065758  -0.2701307  -0.1699809  )
         8           O   tau(   8) = (   0.1220489   0.0068891   0.1798899  )
         9           O   tau(   9) = (  -0.1426843  -0.2648137   0.2828644  )
        10           O   tau(  10) = (   0.0987559  -0.1423480   0.0962075  )
        11           O   tau(  11) = (   0.1279583  -0.3053676   0.1452751  )
        12           O   tau(  12) = (  -0.2029860  -0.1504908   0.2244296  )
        13           O   tau(  13) = (  -0.2220348  -0.2925964   0.0361057  )
        14           O   tau(  14) = (  -0.1804264  -0.2852374  -0.1884510  )
        15           O   tau(  15) = (   0.1187413  -0.1384230  -0.1148142  )
        16           O   tau(  16) = (  -0.0993433   0.1216687   0.0517838  )
        17           O   tau(  17) = (  -0.0608411  -0.0869960   0.0937199  )
        18           O   tau(  18) = (   0.0107888  -0.2098650   0.1882135  )
        19           O   tau(  19) = (   0.2698773  -0.2157651  -0.2489690  )
        20           O   tau(  20) = (   0.2719931   0.2481394   0.1103150  )
        21           O   tau(  21) = (   0.2946182  -0.1496204   0.1631998  )
        22           O   tau(  22) = (  -0.1620159  -0.1446786  -0.1929355  )
        23           O   tau(  23) = (  -0.0444074   0.1327354  -0.2474012  )
        24           O   tau(  24) = (   0.1961634   0.1179723   0.1448802  )
        25           O   tau(  25) = (   0.1165822   0.0685045  -0.1554395  )
        26           O   tau(  26) = (  -0.2425711   0.1343999  -0.3117491  )
        27           O   tau(  27) = (   0.2242891  -0.2993104  -0.0620774  )
        28           O   tau(  28) = (   0.1001583  -0.0640343  -0.2315836  )
        29           O   tau(  29) = (  -0.1022661   0.0075157  -0.2415416  )
        30           O   tau(  30) = (   0.0462813  -0.0164029   0.0393800  )
        31           O   tau(  31) = (   0.2376912  -0.0869187  -0.1827316  )
        32           O   tau(  32) = (   0.2602502   0.0055363  -0.0071747  )
        33           O   tau(  33) = (  -0.0082290   0.2308492   0.0969353  )
        34           O   tau(  34) = (  -0.2506962   0.0366862  -0.2008976  )
        35           O   tau(  35) = (   0.0368748  -0.1913156  -0.0190661  )
        36           O   tau(  36) = (   0.2276127   0.1877213  -0.2241554  )
        37           O   tau(  37) = (   0.1704854   0.2727001   0.2928718  )
        38           O   tau(  38) = (  -0.2635518   0.1966255  -0.0987581  )
        39           O   tau(  39) = (  -0.0194324   0.0496854  -0.0870606  )
        40           O   tau(  40) = (  -0.1551300  -0.1748428  -0.0501007  )
        41           O   tau(  41) = (  -0.1331725   0.2745185   0.1651262  )
        42           O   tau(  42) = (  -0.0778091   0.1401259   0.2088455  )
        43           O   tau(  43) = (  -0.1297492  -0.0160713  -0.0359560  )
        44           O   tau(  44) = (  -0.0772195  -0.1070134   0.2426877  )
        45           O   tau(  45) = (   0.0317764   0.0935186   0.2487261  )
        46           O   tau(  46) = (  -0.2351191   0.1652644   0.0688843  )
        47           O   tau(  47) = (   0.1459539   0.1991102  -0.0326155  )
        48           O   tau(  48) = (   0.1352519  -0.3007635  -0.1824441  )
        49           O   tau(  49) = (  -0.1269768   0.2250031  -0.1162953  )
        50           O   tau(  50) = (   0.2702944   0.0313796   0.2693513  )
        51           O   tau(  51) = (  -0.1492665   0.0143284   0.0988715  )
        52           O   tau(  52) = (  -0.0341544  -0.1179038  -0.1218139  )
        53           O   tau(  53) = (   0.0010442  -0.1677625  -0.2737369  )
        54           O   tau(  54) = (   0.2880242  -0.2975097   0.2144254  )
        55           O   tau(  55) = (   0.2486165  -0.1573750  -0.0084931  )
        56           O   tau(  56) = (   0.2316977  -0.0362034   0.1227699  )
        57           O   tau(  57) = (   0.0598344   0.2163862  -0.2154641  )
        58           O   tau(  58) = (  -0.0357049  -0.2923895   0.0219371  )
        59           O   tau(  59) = (  -0.2759362  -0.0736638  -0.2863358  )
        60           O   tau(  60) = (  -0.2323701   0.0651438  -0.0413884  )
        61           O   tau(  61) = (   0.2586970   0.0736789  -0.1224802  )
        62           O   tau(  62) = (   0.1426700  -0.0147468  -0.0570462  )
        63           O   tau(  63) = (  -0.2636404  -0.0647598   0.0661687  )
        64           O   tau(  64) = (   0.0791522   0.1278272   0.0732487  )
        65           H   tau(  65) = (  -0.2655165  -0.0731157  -0.0290967  )
        66           H   tau(  66) = (  -0.2265085  -0.0440080  -0.0872504  )
        67           H   tau(  67) = (   0.1853682  -0.1440061   0.2970746  )
        68           H   tau(  68) = (   0.1601875  -0.1032747   0.2351753  )
        69           H   tau(  69) = (  -0.3244319   0.2495890  -0.2492221  )
        70           H   tau(  70) = (  -0.2728912   0.2381330  -0.3049637  )
        71           H   tau(  71) = (   0.0129964   0.1467466  -0.0624369  )
        72           H   tau(  72) = (   0.0265560   0.2174203  -0.0947643  )
        73           H   tau(  73) = (  -0.2841956   0.0257081   0.1937304  )
        74           H   tau(  74) = (  -0.2326416   0.0691328   0.2350006  )
        75           H   tau(  75) = (   0.0092374   0.3173141   0.2532681  )
        76           H   tau(  76) = (   0.0072296   0.2580480   0.3040426  )
        77           H   tau(  77) = (  -0.0243995  -0.2716237  -0.1246266  )
        78           H   tau(  78) = (  -0.0466730  -0.2800796  -0.1962798  )
        79           H   tau(  79) = (   0.1389724   0.0535473   0.1707207  )
        80           H   tau(  80) = (   0.0738209   0.0110851   0.1870189  )
        81           H   tau(  81) = (  -0.1707390  -0.2709711   0.3233502  )
        82           H   tau(  82) = (  -0.0971270  -0.2738618   0.2989542  )
        83           H   tau(  83) = (   0.1029202  -0.1008824   0.0691655  )
        84           H   tau(  84) = (   0.1448807  -0.1590714   0.0973359  )
        85           H   tau(  85) = (   0.1632692  -0.3257684   0.1177793  )
        86           H   tau(  86) = (   0.0854226  -0.3229527   0.1276267  )
        87           H   tau(  87) = (  -0.1621271  -0.1718365   0.2079804  )
        88           H   tau(  88) = (  -0.2302161  -0.1360542   0.1849221  )
        89           H   tau(  89) = (  -0.1997985  -0.3321508   0.0170310  )
        90           H   tau(  90) = (  -0.2058030  -0.2536800   0.0099588  )
        91           H   tau(  91) = (  -0.2215323  -0.2631620  -0.1741745  )
        92           H   tau(  92) = (  -0.1858930  -0.3326527  -0.1768389  )
        93           H   tau(  93) = (   0.1209246  -0.0893896  -0.1074862  )
        94           H   tau(  94) = (   0.0844750  -0.1563359  -0.0823711  )
        95           H   tau(  95) = (  -0.0552936   0.1427337   0.0514290  )
        96           H   tau(  96) = (  -0.0942948   0.0727988   0.0495788  )
        97           H   tau(  97) = (  -0.0276530  -0.0521243   0.0719958  )
        98           H   tau(  98) = (  -0.0450340  -0.0853962   0.1406389  )
        99           H   tau(  99) = (   0.0507678  -0.2090864   0.1587491  )
       100           H   tau( 100) = (  -0.0234728  -0.1980128   0.1552374  )
       101           H   tau( 101) = (   0.3128900  -0.2393586  -0.2452441  )
       102           H   tau( 102) = (   0.2752936  -0.1667103  -0.2463385  )
       103           H   tau( 103) = (   0.2823151   0.2639044   0.1574995  )
       104           H   tau( 104) = (   0.3139900   0.2479077   0.0853427  )
       105           H   tau( 105) = (   0.2745908  -0.1129112   0.1369171  )
       106           H   tau( 106) = (   0.3014053  -0.1863906   0.1315280  )
       107           H   tau( 107) = (  -0.1157562  -0.1351271  -0.2057270  )
       108           H   tau( 108) = (  -0.1849876  -0.1468685  -0.2359990  )
       109           H   tau( 109) = (  -0.0186671   0.1407180  -0.2064543  )
       110           H   tau( 110) = (  -0.0722459   0.0929314  -0.2366025  )
       111           H   tau( 111) = (   0.2412107   0.1336942   0.1554898  )
       112           H   tau( 112) = (   0.1740904   0.1572702   0.1258347  )
       113           H   tau( 113) = (   0.1386520   0.0497985  -0.1951307  )
       114           H   tau( 114) = (   0.0847109   0.1009103  -0.1743416  )
       115           H   tau( 115) = (  -0.2489731   0.0990359  -0.2774630  )
       116           H   tau( 116) = (  -0.1992460   0.1532441  -0.2983657  )
       117           H   tau( 117) = (   0.2030887  -0.2550484  -0.0655008  )
       118           H   tau( 118) = (   0.2699845  -0.2876895  -0.0491145  )
       119           H   tau( 119) = (   0.1381882  -0.0677508  -0.2632299  )
       120           H   tau( 120) = (   0.0637535  -0.0467118  -0.2594050  )
       121           H   tau( 121) = (  -0.0926880  -0.0231194  -0.2789999  )
       122           H   tau( 122) = (  -0.1474016   0.0238541  -0.2516563  )
       123           H   tau( 123) = (   0.0391440   0.0287042   0.0566955  )
       124           H   tau( 124) = (   0.0790073  -0.0115928   0.0003395  )
       125           H   tau( 125) = (   0.1992507  -0.1101259  -0.1619821  )
       126           H   tau( 126) = (   0.2689662  -0.0804900  -0.1452367  )
       127           H   tau( 127) = (   0.2747322   0.0475507  -0.0295462  )
       128           H   tau( 128) = (   0.2900382  -0.0235501  -0.0364452  )
       129           H   tau( 129) = (  -0.0286799   0.1969074   0.1278547  )
       130           H   tau( 130) = (  -0.0396328   0.2674789   0.1076953  )
       131           H   tau( 131) = (  -0.2408179   0.0328845  -0.1526174  )
       132           H   tau( 132) = (  -0.2996299   0.0413995  -0.2047566  )
       133           H   tau( 133) = (   0.0192158  -0.2373466  -0.0207545  )
       134           H   tau( 134) = (   0.0662046  -0.1882828   0.0205461  )
       135           H   tau( 135) = (   0.1849480   0.2053622  -0.2413410  )
       136           H   tau( 136) = (   0.2340879   0.1444411  -0.2457370  )
       137           H   tau( 137) = (   0.1700602   0.2664959   0.2439673  )
       138           H   tau( 138) = (   0.1338631   0.3041253   0.3001473  )
       139           H   tau( 139) = (  -0.2785429   0.1884991  -0.0521763  )
       140           H   tau( 140) = (  -0.2282253   0.2299356  -0.0883315  )
       141           H   tau( 141) = (   0.0028358   0.0135348  -0.1110459  )
       142           H   tau( 142) = (  -0.0490864   0.0262538  -0.0543641  )
       143           H   tau( 143) = (  -0.1546695  -0.1444525  -0.0904049  )
       144           H   tau( 144) = (  -0.1187723  -0.2052613  -0.0629932  )
       145           H   tau( 145) = (  -0.1772553   0.2867555   0.1476096  )
       146           H   tau( 146) = (  -0.1354169   0.2868027   0.2136620  )
       147           H   tau( 147) = (  -0.0648047   0.1087018   0.1738014  )
       148           H   tau( 148) = (  -0.1062957   0.1733878   0.1860381  )
       149           H   tau( 149) = (  -0.1047865  -0.0577167  -0.0312873  )
       150           H   tau( 150) = (  -0.1543679  -0.0125947   0.0072423  )
       151           H   tau( 151) = (  -0.1247596  -0.1187002   0.2402163  )
       152           H   tau( 152) = (  -0.0518900  -0.1419359   0.2661854  )
       153           H   tau( 153) = (   0.0670402   0.0753928   0.2773506  )
       154           H   tau( 154) = (   0.0083538   0.1246630   0.2790296  )
       155           H   tau( 155) = (  -0.2525688   0.1777807   0.1129052  )
       156           H   tau( 156) = (  -0.1919807   0.1433770   0.0804508  )
       157           H   tau( 157) = (   0.1701722   0.2383192  -0.0151085  )
       158           H   tau( 158) = (   0.1439070   0.2096582  -0.0803278  )
       159           H   tau( 159) = (   0.1799128  -0.2806843  -0.1887299  )
       160           H   tau( 160) = (   0.1077792  -0.2617792  -0.1688247  )
       161           H   tau( 161) = (  -0.1224481   0.1977928  -0.1567741  )
       162           H   tau( 162) = (  -0.0854280   0.2114130  -0.0914246  )
       163           H   tau( 163) = (   0.2958057  -0.0116025   0.2722811  )
       164           H   tau( 164) = (   0.2246738   0.0142268   0.2646403  )
       165           H   tau( 165) = (  -0.1180324  -0.0252559   0.1004598  )
       166           H   tau( 166) = (  -0.1849074   0.0132751   0.1341914  )
       167           H   tau( 167) = (   0.0093551  -0.1402456  -0.1263009  )
       168           H   tau( 168) = (  -0.0347123  -0.1034884  -0.0753679  )
       169           H   tau( 169) = (   0.0115843  -0.1577862  -0.2267987  )
       170           H   tau( 170) = (   0.0373675  -0.1431887  -0.2955511  )
       171           H   tau( 171) = (   0.2513615  -0.3022082   0.2475689  )
       172           H   tau( 172) = (   0.3224295  -0.2761462   0.2417619  )
       173           H   tau( 173) = (   0.2954181  -0.1617055   0.0063419  )
       174           H   tau( 174) = (   0.2377859  -0.1129412   0.0094737  )
       175           H   tau( 175) = (   0.2399903   0.0010408   0.0914870  )
       176           H   tau( 176) = (   0.1840881  -0.0306418   0.1391813  )
       177           H   tau( 177) = (   0.0623249   0.2017595  -0.2621262  )
       178           H   tau( 178) = (   0.0793157   0.2632908  -0.2152164  )
       179           H   tau( 179) = (  -0.0590239  -0.3357043   0.0216274  )
       180           H   tau( 180) = (  -0.0679397  -0.2563094   0.0149889  )
       181           H   tau( 181) = (  -0.2578397  -0.0971043  -0.3258259  )
       182           H   tau( 182) = (  -0.2364247  -0.0484347  -0.2716382  )
       183           H   tau( 183) = (  -0.2183343   0.1108867  -0.0527422  )
       184           H   tau( 184) = (  -0.2372828   0.0648253   0.0072409  )
       185           H   tau( 185) = (   0.2900352   0.1115596  -0.1221578  )
       186           H   tau( 186) = (   0.2149588   0.0959272  -0.1277507  )
       187           H   tau( 187) = (   0.1869022   0.0060763  -0.0452603  )
       188           H   tau( 188) = (   0.1215584   0.0138006  -0.0918197  )
       189           H   tau( 189) = (  -0.3090234  -0.0532003   0.0811566  )
       190           H   tau( 190) = (  -0.2402086  -0.0743870   0.1077621  )
       191           H   tau( 191) = (   0.0344394   0.1487927   0.0703285  )
       192           H   tau( 192) = (   0.1002673   0.1532808   0.0357948  )

     number of k points=     1  Marzari-Vanderbilt smearing, width (Ry)=  0.0250
                       cart. coord. in units 2pi/alat
        k(    1) = (   0.0000000   0.0000000   0.0000000), wk =   2.0000000

     Dense  grid:   177509 G-vectors     FFT dimensions: (  72,  72,  72)

     Estimated max dynamical RAM per process >      67.80Mb

     Estimated total allocated dynamical RAM >    1898.40Mb

     Initial potential from superposition of free atoms
     Check: negative starting charge=   -0.842888

     starting charge  511.99856, renormalised to  512.00000

     negative rho (up, down):  8.429E-01 0.000E+00
     Starting wfc are  384 randomized atomic wfcs

     total cpu time spent up to now is        0.8 secs

     per-process dynamical memory:    45.9 Mb

     Self-consistent Calculation

     iteration #  1     ecut=    30.00 Ry     beta=0.70
     Davidson diagonalization with overlap
     ethr =  1.00E-02,  avg # of iterations =  8.0

     negative rho (up, down):  2.051E-01 0.000E+00

     total cpu time spent up to now is        9.0 secs

     total energy              =   -1792.72073672 Ry
     Harris-Foulkes estimate   =   -1819.94389260 Ry
     estimated scf accuracy    <      41.66320522 Ry

     iteration #  2     ecut=    30.00 Ry     beta=0.70
     Davidson diagonalization with overlap
     ethr =  8.14E-03,  avg # of iterations =  4.0

     negative rho (up, down):  1.492E-03 0.000E+00

     total cpu time spent up to now is       12.1 secs

     total energy              =   -1765.88126367 Ry
     Harris-Foulkes estimate   =   -1808.40219979 Ry
     estimated scf accuracy    <     111.50711240 Ry

     iteration #  3     ecut=    30.00 Ry     beta=0.70
     Davidson diagonalization with overlap
     ethr =  8.14E-03,  avg # of iterations =  5.0

     negative rho (up, down):  2.855E-06 0.000E+00

     total cpu time spent up to now is       15.9 secs

     total energy              =   -1795.33212465 Ry
     Harris-Foulkes estimate   =   -1808.37664458 Ry
     estimated scf accuracy    <      43.05959572 Ry

     iteration #  4     ecut=    30.00 Ry     beta=0.70
     Davidson diagonalization with overlap
     ethr =  8.14E-03,  avg # of iterations =  3.0

     total cpu time spent up to now is       17.7 secs

     total energy              =   -1800.67606673 Ry
     Harris-Foulkes estimate   =   -1803.10750983 Ry
     estimated scf accuracy    <       8.05838181 Ry

     iteration #  5     ecut=    30.00 Ry     beta=0.70
     Davidson diagonalization with overlap
     ethr =  1.57E-03,  avg # of iterations =  5.0

     total cpu time spent up to now is       20.2 secs

     total energy              =   -1800.41240384 Ry
     Harris-Foulkes estimate   =   -1801.13430795 Ry
     estimated scf accuracy    <       3.47099236 Ry

     iteration #  6     ecut=    30.00 Ry     beta=0.70
     Davidson diagonalization with overlap
     ethr =  6.78E-04,  avg # of iterations =  6.0

     total cpu time spent up to now is       22.9 secs

     total energy              =   -1800.04277478 Ry
     Harris-Foulkes estimate   =   -1800.49336006 Ry
     estimated scf accuracy    <       1.85319713 Ry

     iteration #  7     ecut=    30.00 Ry     beta=0.70
     Davidson diagonalization with overlap
     ethr =  3.62E-04,  avg # of iterations =  6.0

     total cpu time spent up to now is       25.7 secs

     total energy              =   -1800.00399983 Ry
     Harris-Foulkes estimate   =   -1800.13186120 Ry
     estimated scf accuracy    <       0.67420052 Ry

     iteration #  8     ecut=    30.00 Ry     beta=0.70
     Davidson diagonalization with overlap
     ethr =  1.32E-04,  avg # of iterations =  3.0

     total cpu time spent up to now is       27.4 secs

     total energy              =   -1799.96387746 Ry
     Harris-Foulkes estimate   =   -1800.05031250 Ry
     estimated scf accuracy    <       0.46055691 Ry

     iteration #  9     ecut=    30.00 Ry     beta=0.70
     Davidson diagonalization with overlap
     ethr =  9.00E-05,  avg # of iterations =  8.0

     total cpu time spent up to now is       30.5 secs

     total energy              =   -1799.98477677 Ry
     Harris-Foulkes estimate   =   -1800.00995183 Ry
     estimated scf accuracy    <       0.12814185 Ry

     iteration # 10     ecut=    30.00 Ry     beta=0.70
     Davidson diagonalization with overlap
     ethr =  2.50E-05,  avg # of iterations =  7.0

     total cpu time spent up to now is       33.5 secs

     total energy              =   -1799.97571805 Ry
     Harris-Foulkes estimate   =   -1799.99776868 Ry
     estimated scf accuracy    <       0.10288056 Ry

     iteration # 11     ecut=    30.00 Ry     beta=0.70
     Davidson diagonalization with overlap
     ethr =  2.01E-05,  avg # of iterations =  4.0

     total cpu time spent up to now is       35.6 secs

     total energy              =   -1799.97585664 Ry
     Harris-Foulkes estimate   =   -1799.98760576 Ry
     estimated scf accuracy    <       0.06118065 Ry

     iteration # 12     ecut=    30.00 Ry     beta=0.70
     Davidson diagonalization with overlap
     ethr =  1.19E-05,  avg # of iterations =  4.0

     total cpu time spent up to now is       37.7 secs

     total energy              =   -1799.97730353 Ry
     Harris-Foulkes estimate   =   -1799.98554532 Ry
     estimated scf accuracy    <       0.04091965 Ry

     iteration # 13     ecut=    30.00 Ry     beta=0.70
     Davidson diagonalization with overlap
     ethr =  7.99E-06,  avg # of iterations =  2.0

     total cpu time spent up to now is       39.1 secs

     total energy              =   -1799.98153736 Ry
     Harris-Foulkes estimate   =   -1799.98251802 Ry
     estimated scf accuracy    <       0.00625173 Ry

     iteration # 14     ecut=    30.00 Ry     beta=0.70
     Davidson diagonalization with overlap
     ethr =  1.22E-06,  avg # of iterations =  7.0

     total cpu time spent up to now is       42.1 secs

     total energy              =   -1799.98180180 Ry
     Harris-Foulkes estimate   =   -1799.98216661 Ry
     estimated scf accuracy    <       0.00177279 Ry

     iteration # 15     ecut=    30.00 Ry     beta=0.70
     Davidson diagonalization with overlap
     ethr =  3.46E-07,  avg # of iterations =  2.0

     total cpu time spent up to now is       43.5 secs

     total energy              =   -1799.98191183 Ry
     Harris-Foulkes estimate   =   -1799.98213140 Ry
     estimated scf accuracy    <       0.00148498 Ry

     iteration # 16     ecut=    30.00 Ry     beta=0.70
     Davidson diagonalization with overlap
     ethr =  2.90E-07,  avg # of iterations =  1.0

     total cpu time spent up to now is       44.7 secs

     total energy              =   -1799.98202428 Ry
     Harris-Foulkes estimate   =   -1799.98204087 Ry
     estimated scf accuracy    <       0.00016986 Ry

     iteration # 17     ecut=    30.00 Ry     beta=0.70
     Davidson diagonalization with overlap
     ethr =  3.32E-08,  avg # of iterations =  2.0

     total cpu time spent up to now is       46.1 secs

     total energy              =   -1799.98203504 Ry
     Harris-Foulkes estimate   =   -1799.98203663 Ry
     estimated scf accuracy    <       0.00001172 Ry

     iteration # 18     ecut=    30.00 Ry     beta=0.70
     Davidson diagonalization with overlap
     ethr =  2.29E-09,  avg # of iterations =  2.0

     total cpu time spent up to now is       47.5 secs

     total energy              =   -1799.98203670 Ry
     Harris-Foulkes estimate   =   -1799.98203662 Ry
     estimated scf accuracy    <       0.00000188 Ry

     iteration # 19     ecut=    30.00 Ry     beta=0.70
     Davidson diagonalization with overlap
     ethr =  3.66E-10,  avg # of iterations =  3.0

     total cpu time spent up to now is       49.3 secs

     total energy              =   -1799.98203696 Ry
     Harris-Foulkes estimate   =   -1799.98203698 Ry
     estimated scf accuracy    <       0.00000023 Ry

     iteration # 20     ecut=    30.00 Ry     beta=0.70
     Davidson diagonalization with overlap
     ethr =  4.48E-11,  avg # of iterations =  3.0

     total cpu time spent up to now is       51.3 secs

     total energy              =   -1799.98203701 Ry
     Harris-Foulkes estimate   =   -1799.98203705 Ry
     estimated scf accuracy    <       0.00000039 Ry

     iteration # 21     ecut=    30.00 Ry     beta=0.70
     Davidson diagonalization with overlap
     ethr =  4.48E-11,  avg # of iterations =  2.0

     total cpu time spent up to now is       52.8 secs

     total energy              =   -1799.98203708 Ry
     Harris-Foulkes estimate   =   -1799.98203707 Ry
     estimated scf accuracy    <       0.00000009 Ry

     iteration # 22     ecut=    30.00 Ry     beta=0.70
     Davidson diagonalization with overlap
     ethr =  1.73E-11,  avg # of iterations =  3.0

     total cpu time spent up to now is       54.5 secs

     End of self-consistent calculation

          k = 0.0000 0.0000 0.0000 ( 22119 PWs)   bands (ev):

   -43.0544 -42.1759 -40.0565 -39.4152 -38.8954 -37.8145 -37.6850 -36.7124
   -36.6707 -36.2909 -35.5350 -35.3454 -35.1838 -34.7404 -34.4283 -34.2785
   -33.8951 -33.7232 -33.4507 -32.9556 -32.6176 -32.3684 -32.3416 -31.9456
   -31.8408 -31.4632 -31.0401 -30.9183 -30.7123 -30.5514 -30.4487 -30.2911
   -29.8801 -29.7921 -29.6706 -29.4083 -29.3498 -29.1384 -28.9024 -28.7669
   -28.6953 -28.4911 -28.4724 -28.2067 -27.9467 -27.7268 -27.6685 -27.6155
   -27.3519 -27.3054 -27.2399 -27.1869 -27.1347 -26.9625 -26.8191 -26.7945
   -26.6512 -26.4838 -26.3565 -26.1384 -25.8931 -25.6304 -25.3798 -25.1027
   -23.7215 -22.9890 -22.2957 -22.0919 -21.7286 -21.4607 -21.1474 -20.6794
   -20.2387 -20.0327 -19.8221 -19.4378 -19.1471 -19.1334 -18.9781 -18.9280
   -18.7958 -18.2037 -18.1337 -17.9812 -17.7631 -17.5138 -17.3042 -17.1185
   -16.8905 -16.8212 -16.7180 -16.4218 -16.2687 -16.1147 -16.0224 -15.8148
   -15.5630 -15.3614 -15.1630 -15.0083 -14.9705 -14.8381 -14.7784 -14.6378
   -14.5562 -14.4935 -14.3619 -14.2218 -14.1135 -13.9710 -13.8668 -13.7362
   -13.5532 -13.5007 -13.3546 -13.1315 -13.0671 -12.9868 -12.7782 -12.6083
   -12.4318 -12.3034 -12.0423 -11.8203 -11.4325 -11.2205 -11.0586 -10.9577
   -10.5180 -10.3990 -10.0654  -9.9273  -9.8478  -9.7278  -9.3544  -9.2141
    -8.7063  -8.3425  -8.2028  -7.9910  -7.8948  -7.6912  -7.5837  -7.5305
    -7.3887  -7.0950  -7.0334  -7.0044  -6.7024  -6.6529  -6.5737  -6.3731
    -6.2875  -6.2346  -6.0815  -5.9893  -5.9200  -5.7229  -5.5866  -5.4397
    -5.3386  -5.2789  -5.2350  -5.0489  -4.9284  -4.8752  -4.7548  -4.6382
    -4.6178  -4.5080  -4.4710  -4.3529  -4.2510  -4.1176  -4.0804  -3.9269
    -3.8499  -3.7888  -3.6967  -3.5791  -3.5664  -3.4452  -3.2364  -3.1900
    -3.1121  -3.0589  -2.9816  -2.8975  -2.7915  -2.5898  -2.5351  -2.4915
    -2.3562  -2.3074  -2.1454  -2.1114  -1.9790  -1.8910  -1.7809  -1.7736
    -1.6695  -1.4241  -1.3350  -1.2447  -1.2225  -1.1121  -1.0485  -1.0113
    -0.9649  -0.8307  -0.7701  -0.6393  -0.4688  -0.3525  -0.1775  -0.0698
    -0.0530   0.0827   0.1521   0.2600   0.4234   0.5197   0.6132   0.8935
     0.9575   1.1331   1.2853   1.3675   1.5406   1.7119   1.8133   1.8981
     1.9386   2.0952   2.3357   2.3789   2.5177   2.5978   2.6670   2.7088
     2.7791   2.9665   3.0423   3.2639   3.3552   3.6386   3.9471   4.0085
     4.1355   4.1925   4.4897   4.7163   5.1704   5.2142   5.3179   5.4091
     5.6363   6.1762   6.2438   6.5414   6.7309   7.1416   7.2886   7.3608
     7.4026   7.5111   7.6905   7.7645   8.1742   8.3203   8.5286   8.7721
     8.8240   8.9406   9.1803   9.4147   9.6018   9.6556   9.8779   9.8972
     9.9978  10.0950  10.3543  10.4301  10.4815  10.6319  10.6890  10.7720
    10.8791  10.9211  10.9996  11.2039  11.3055  11.4153  11.5432  11.6056
    11.6360  11.6863  11.7702  11.8662  11.9900  12.0631  12.1886  12.2390
    12.2666  12.3357  12.4259

     the Fermi energy is     5.5606 ev

!    total energy              =   -1799.98203710 Ry
     Harris-Foulkes estimate   =   -1799.98203710 Ry
     estimated scf accuracy    <          5.9E-09 Ry

     The total energy is the sum of the following terms:

     one-electron contribution =  -16065.14285071 Ry
     hartree contribution      =    8202.08116016 Ry
     xc contribution           =    -638.63031454 Ry
     ewald contribution        =    6701.70814332 Ry
     smearing contrib. (-TS)   =       0.00182467 Ry

     convergence has been achieved in  22 iterations

     Writing output data file pwscf.save
 
     init_run     :      0.60s CPU      0.66s WALL (       1 calls)
     electrons    :     52.25s CPU     53.79s WALL (       1 calls)

     Called by init_run:
     wfcinit      :      0.50s CPU      0.56s WALL (       1 calls)
     potinit      :      0.02s CPU      0.03s WALL (       1 calls)

     Called by electrons:
     c_bands      :     50.02s CPU     51.30s WALL (      22 calls)
     sum_band     :      1.85s CPU      1.90s WALL (      22 calls)
     v_of_rho     :      0.18s CPU      0.20s WALL (      23 calls)
     mix_rho      :      0.14s CPU      0.27s WALL (      22 calls)

     Called by c_bands:
     init_us_2    :      0.06s CPU      0.06s WALL (      45 calls)
     cegterg      :     49.88s CPU     51.10s WALL (      22 calls)

     Called by sum_band:

     Called by *egterg:
     h_psi        :      8.44s CPU      8.59s WALL (     113 calls)
     g_psi        :      0.07s CPU      0.07s WALL (      90 calls)
     cdiaghg      :     32.41s CPU     32.45s WALL (     112 calls)

     Called by h_psi:
     h_psi:pot    :      8.23s CPU      8.38s WALL (     113 calls)
     h_psi:calbec :      0.31s CPU      0.31s WALL (     113 calls)
     vloc_psi     :      7.66s CPU      7.80s WALL (     113 calls)
     add_vuspsi   :      0.26s CPU      0.27s WALL (     113 calls)

     General routines
     calbec       :      0.31s CPU      0.31s WALL (     113 calls)
     fft          :      0.10s CPU      0.11s WALL (     252 calls)
     fftw         :      8.49s CPU      8.66s WALL (   37748 calls)
     davcio       :      0.02s CPU      0.14s WALL (     348 calls)
 
     Parallel routines
     fft_scatter  :      3.00s CPU      3.08s WALL (   38000 calls)
 
     PWSCF        :    53.00s CPU        54.83s WALL

 
   This run was terminated on:   7: 7:10   2Feb2018            

=------------------------------------------------------------------------------=
   JOB DONE.
=------------------------------------------------------------------------------=
