
     Program PWSCF v.6.0 (svn rev. 13079) starts on  2Feb2018 at  4:57:27 

     This program is part of the open-source Quantum ESPRESSO suite
     for quantum simulation of materials; please cite
         "P. Giannozzi et al., J. Phys.:Condens. Matter 21 395502 (2009);
          URL http://www.quantum-espresso.org", 
     in publications or presentations arising from this work. More details at
     http://www.quantum-espresso.org/quote

     Parallel version (MPI), running on    28 processors
     R & G space division:  proc/nbgrp/npool/nimage =      28
     Reading input from input/scf-bigwater-1/14.in
Warning: card &IONS ignored
Warning: card     POT_EXTRAPOLATION='SECOND-ORDER' ignored
Warning: card     WFC_EXTRAPOLATION='SECOND-ORDER' ignored
Warning: card     ION_TEMPERATURE = 'ANDERSEN' ignored
Warning: card     TEMPW = 1000 ignored
Warning: card / ignored

     Current dimensions of program PWSCF are:
     Max number of different atomic species (ntypx) = 10
     Max number of k-points (npk) =  40000
     Max angular momentum in pseudopotentials (lmaxx) =  3

     Subspace diagonalization in iterative solution of the eigenvalue problem:
     a serial algorithm will be used

 
     Parallelization info
     --------------------
     sticks:   dense  smooth     PW     G-vecs:    dense   smooth      PW
     Min         136     136     33                 6338     6338     787
     Max         137     137     34                 6341     6341     792
     Sum        3809    3809    949               177509   177509   22119
 


     bravais-lattice index     =            1
     lattice parameter (alat)  =      20.0000  a.u.
     unit-cell volume          =    8000.0000 (a.u.)^3
     number of atoms/cell      =          192
     number of atomic types    =            2
     number of electrons       =       512.00
     number of Kohn-Sham states=          307
     kinetic-energy cutoff     =      30.0000  Ry
     charge density cutoff     =     120.0000  Ry
     convergence threshold     =      1.0E-08
     mixing beta               =       0.7000
     number of iterations used =            8  plain     mixing
     Exchange-correlation      = BLYP ( 1  3  1  3 0 0)

     celldm(1)=  20.000000  celldm(2)=   0.000000  celldm(3)=   0.000000
     celldm(4)=   0.000000  celldm(5)=   0.000000  celldm(6)=   0.000000

     crystal axes: (cart. coord. in units of alat)
               a(1) = (   1.000000   0.000000   0.000000 )  
               a(2) = (   0.000000   1.000000   0.000000 )  
               a(3) = (   0.000000   0.000000   1.000000 )  

     reciprocal axes: (cart. coord. in units 2 pi/alat)
               b(1) = (  1.000000  0.000000  0.000000 )  
               b(2) = (  0.000000  1.000000  0.000000 )  
               b(3) = (  0.000000  0.000000  1.000000 )  


     PseudoPot. # 1 for  H read from file:
     ./H.blyp-hgh.UPF
     MD5 check sum: c576e69559cde411e611be972c763230
     Pseudo is Norm-conserving, Zval =  1.0
     Generated in analytical, separable form
     Using radial grid of  929 points,  0 beta functions with: 

     PseudoPot. # 2 for  O read from file:
     ./O.blyp-hgh.UPF
     MD5 check sum: d0b7156309aa9befef28faac7bc56342
     Pseudo is Norm-conserving, Zval =  6.0
     Generated in analytical, separable form
     Using radial grid of 1095 points,  1 beta functions with: 
                l(1) =   0

     atomic species   valence    mass     pseudopotential
        H              1.00     1.01000      H( 1.00)
        O              6.00    16.00000      O( 1.00)

     No symmetry found



   Cartesian axes

     site n.     atom                  positions (alat units)
         1           O   tau(   1) = (  -0.2619649  -0.0772813  -0.0594766  )
         2           O   tau(   2) = (   0.1998198  -0.1106047   0.2701283  )
         3           O   tau(   3) = (  -0.2859181   0.2609811  -0.2784849  )
         4           O   tau(   4) = (  -0.0078697   0.1775318  -0.0792127  )
         5           O   tau(   5) = (  -0.2363258   0.0347923   0.1915994  )
         6           O   tau(   6) = (  -0.0121169   0.2710691   0.2588562  )
         7           O   tau(   7) = (  -0.0066308  -0.2682802  -0.1701483  )
         8           O   tau(   8) = (   0.1134553   0.0173908   0.1851512  )
         9           O   tau(   9) = (  -0.1429998  -0.2651122   0.2807705  )
        10           O   tau(  10) = (   0.0928994  -0.1524147   0.0801925  )
        11           O   tau(  11) = (   0.1249912  -0.3031771   0.1452533  )
        12           O   tau(  12) = (  -0.2121081  -0.1528456   0.2169029  )
        13           O   tau(  13) = (  -0.2208901  -0.2986265   0.0356670  )
        14           O   tau(  14) = (  -0.1776772  -0.2839102  -0.1808225  )
        15           O   tau(  15) = (   0.1015581  -0.1371098  -0.1046248  )
        16           O   tau(  16) = (  -0.0872694   0.1265799   0.0748073  )
        17           O   tau(  17) = (  -0.0509413  -0.0689934   0.0824030  )
        18           O   tau(  18) = (   0.0132836  -0.2117947   0.1814778  )
        19           O   tau(  19) = (   0.2723838  -0.2050880  -0.2468923  )
        20           O   tau(  20) = (   0.2824387   0.2395458   0.1090610  )
        21           O   tau(  21) = (   0.3020770  -0.1474787   0.1628207  )
        22           O   tau(  22) = (  -0.1612331  -0.1520264  -0.1900079  )
        23           O   tau(  23) = (  -0.0459477   0.1284213  -0.2466819  )
        24           O   tau(  24) = (   0.1931522   0.1173674   0.1412161  )
        25           O   tau(  25) = (   0.1158785   0.0638547  -0.1558039  )
        26           O   tau(  26) = (  -0.2464637   0.1437186  -0.3058915  )
        27           O   tau(  27) = (   0.2211549  -0.2967303  -0.0628625  )
        28           O   tau(  28) = (   0.0968698  -0.0663916  -0.2288305  )
        29           O   tau(  29) = (  -0.1011183   0.0135653  -0.2414411  )
        30           O   tau(  30) = (   0.0417372  -0.0158669   0.0307389  )
        31           O   tau(  31) = (   0.2397988  -0.0885266  -0.1907202  )
        32           O   tau(  32) = (   0.2587751   0.0026506  -0.0000622  )
        33           O   tau(  33) = (  -0.0181026   0.2219582   0.0906280  )
        34           O   tau(  34) = (  -0.2663239   0.0360990  -0.1993723  )
        35           O   tau(  35) = (   0.0368737  -0.1895143  -0.0168111  )
        36           O   tau(  36) = (   0.2318158   0.1695545  -0.2128335  )
        37           O   tau(  37) = (   0.1790642   0.2746713   0.2900518  )
        38           O   tau(  38) = (  -0.2527309   0.1792301  -0.0858346  )
        39           O   tau(  39) = (  -0.0213178   0.0521020  -0.0779771  )
        40           O   tau(  40) = (  -0.1476976  -0.1638777  -0.0602355  )
        41           O   tau(  41) = (  -0.1295936   0.2721498   0.1702017  )
        42           O   tau(  42) = (  -0.0743720   0.1394625   0.1869793  )
        43           O   tau(  43) = (  -0.1323428  -0.0099364  -0.0326267  )
        44           O   tau(  44) = (  -0.0757020  -0.1114957   0.2467924  )
        45           O   tau(  45) = (   0.0390998   0.0877060   0.2419186  )
        46           O   tau(  46) = (  -0.2425878   0.1717720   0.0730018  )
        47           O   tau(  47) = (   0.1380351   0.1939605  -0.0262581  )
        48           O   tau(  48) = (   0.1334396  -0.2970263  -0.1767519  )
        49           O   tau(  49) = (  -0.1341632   0.2303371  -0.1155678  )
        50           O   tau(  50) = (   0.2863609   0.0251396   0.2626285  )
        51           O   tau(  51) = (  -0.1587516   0.0074630   0.0980728  )
        52           O   tau(  52) = (  -0.0312906  -0.1228261  -0.1119372  )
        53           O   tau(  53) = (   0.0013984  -0.1594047  -0.2755115  )
        54           O   tau(  54) = (   0.2829902  -0.2990210   0.2235787  )
        55           O   tau(  55) = (   0.2594891  -0.1476579  -0.0116644  )
        56           O   tau(  56) = (   0.2363784  -0.0347155   0.1195969  )
        57           O   tau(  57) = (   0.0512564   0.2150141  -0.2193932  )
        58           O   tau(  58) = (  -0.0282512  -0.2863971   0.0233968  )
        59           O   tau(  59) = (  -0.2796492  -0.0662775  -0.2904565  )
        60           O   tau(  60) = (  -0.2313975   0.0753982  -0.0481081  )
        61           O   tau(  61) = (   0.2618248   0.0863215  -0.1426897  )
        62           O   tau(  62) = (   0.1337794  -0.0126944  -0.0458431  )
        63           O   tau(  63) = (  -0.2655484  -0.0582098   0.0586808  )
        64           O   tau(  64) = (   0.0746937   0.1379283   0.0707513  )
        65           H   tau(  65) = (  -0.2363885  -0.0903054  -0.0202268  )
        66           H   tau(  66) = (  -0.2287704  -0.0755868  -0.0948677  )
        67           H   tau(  67) = (   0.1747900  -0.1500164   0.2835977  )
        68           H   tau(  68) = (   0.1655999  -0.0787351   0.2558999  )
        69           H   tau(  69) = (  -0.3101983   0.2415632  -0.2409016  )
        70           H   tau(  70) = (  -0.2998565   0.2333604  -0.3161404  )
        71           H   tau(  71) = (   0.0170379   0.1642720  -0.0389471  )
        72           H   tau(  72) = (   0.0207709   0.2101973  -0.1011364  )
        73           H   tau(  73) = (  -0.2713783   0.0009322   0.1894167  )
        74           H   tau(  74) = (  -0.2561551   0.0691494   0.2200812  )
        75           H   tau(  75) = (   0.0106692   0.3142530   0.2577574  )
        76           H   tau(  76) = (  -0.0114336   0.2577792   0.3058798  )
        77           H   tau(  77) = (  -0.0180810  -0.2830176  -0.1252617  )
        78           H   tau(  78) = (  -0.0373855  -0.2931311  -0.1984556  )
        79           H   tau(  79) = (   0.1201973   0.0600810   0.1617454  )
        80           H   tau(  80) = (   0.0696222   0.0026367   0.1700618  )
        81           H   tau(  81) = (  -0.1751165  -0.2807056   0.3142218  )
        82           H   tau(  82) = (  -0.1002134  -0.2660094   0.3040903  )
        83           H   tau(  83) = (   0.0968869  -0.1034068   0.0810461  )
        84           H   tau(  84) = (   0.1384212  -0.1690154   0.0826889  )
        85           H   tau(  85) = (   0.1646249  -0.3096789   0.1176408  )
        86           H   tau(  86) = (   0.0913396  -0.3324722   0.1251852  )
        87           H   tau(  87) = (  -0.1823279  -0.1755805   0.1859095  )
        88           H   tau(  88) = (  -0.2123983  -0.1065869   0.2015249  )
        89           H   tau(  89) = (  -0.1738288  -0.3076385   0.0269941  )
        90           H   tau(  90) = (  -0.2279170  -0.2538414   0.0172103  )
        91           H   tau(  91) = (  -0.2232197  -0.2822154  -0.1638149  )
        92           H   tau(  92) = (  -0.1752276  -0.3273086  -0.2026805  )
        93           H   tau(  93) = (   0.1077506  -0.0885293  -0.1017063  )
        94           H   tau(  94) = (   0.1237757  -0.1542892  -0.0649655  )
        95           H   tau(  95) = (  -0.0802035   0.1566439   0.0374590  )
        96           H   tau(  96) = (  -0.0681666   0.0840645   0.0600363  )
        97           H   tau(  97) = (  -0.0194420  -0.0974856   0.0586983  )
        98           H   tau(  98) = (  -0.0460688  -0.0815585   0.1293557  )
        99           H   tau(  99) = (   0.0439287  -0.1778718   0.1980727  )
       100           H   tau( 100) = (  -0.0177312  -0.1864449   0.1537543  )
       101           H   tau( 101) = (   0.2949497  -0.2356070  -0.2775576  )
       102           H   tau( 102) = (   0.3084538  -0.1834547  -0.2224851  )
       103           H   tau( 103) = (   0.2724872   0.2803789   0.1344574  )
       104           H   tau( 104) = (   0.2965714   0.2551049   0.0651761  )
       105           H   tau( 105) = (   0.2660698  -0.1343659   0.1326360  )
       106           H   tau( 106) = (   0.3290227  -0.1789864   0.1375705  )
       107           H   tau( 107) = (  -0.1201075  -0.1417622  -0.2141130  )
       108           H   tau( 108) = (  -0.1967280  -0.1476343  -0.2229474  )
       109           H   tau( 109) = (  -0.0256396   0.1488597  -0.2072283  )
       110           H   tau( 110) = (  -0.0305600   0.0820272  -0.2454440  )
       111           H   tau( 111) = (   0.2337589   0.1238005   0.1674664  )
       112           H   tau( 112) = (   0.1715051   0.1609904   0.1417291  )
       113           H   tau( 113) = (   0.1449975   0.0532694  -0.1935093  )
       114           H   tau( 114) = (   0.1086941   0.1119767  -0.1584827  )
       115           H   tau( 115) = (  -0.2493976   0.1252320  -0.2606798  )
       116           H   tau( 116) = (  -0.1992907   0.1546811  -0.3117115  )
       117           H   tau( 117) = (   0.2110044  -0.2517734  -0.0793805  )
       118           H   tau( 118) = (   0.2691172  -0.2955924  -0.0546672  )
       119           H   tau( 119) = (   0.1376517  -0.0546628  -0.2531537  )
       120           H   tau( 120) = (   0.0604557  -0.0499431  -0.2567722  )
       121           H   tau( 121) = (  -0.1072337  -0.0232858  -0.2725340  )
       122           H   tau( 122) = (  -0.1431876   0.0380182  -0.2432352  )
       123           H   tau( 123) = (   0.0669645   0.0247883   0.0386977  )
       124           H   tau( 124) = (   0.0567344  -0.0292909  -0.0134895  )
       125           H   tau( 125) = (   0.2006807  -0.1100626  -0.1703576  )
       126           H   tau( 126) = (   0.2718157  -0.0855090  -0.1538745  )
       127           H   tau( 127) = (   0.2549309   0.0509154  -0.0040765  )
       128           H   tau( 128) = (   0.2969774  -0.0095994  -0.0296042  )
       129           H   tau( 129) = (  -0.0279508   0.2038022   0.1355167  )
       130           H   tau( 130) = (  -0.0157708   0.2701143   0.0966739  )
       131           H   tau( 131) = (  -0.2356084   0.0601990  -0.1701545  )
       132           H   tau( 132) = (  -0.2997958   0.0190725  -0.1678708  )
       133           H   tau( 133) = (   0.0376318  -0.2349905  -0.0330698  )
       134           H   tau( 134) = (   0.0344131  -0.1946733   0.0313692  )
       135           H   tau( 135) = (   0.1859969   0.1814485  -0.2022273  )
       136           H   tau( 136) = (   0.2282316   0.1402386  -0.2515554  )
       137           H   tau( 137) = (   0.1596711   0.2444277   0.2570815  )
       138           H   tau( 138) = (   0.1433862   0.3066936   0.2982219  )
       139           H   tau( 139) = (  -0.2929336   0.1951225  -0.0634975  )
       140           H   tau( 140) = (  -0.2409047   0.2148094  -0.1171469  )
       141           H   tau( 141) = (  -0.0000917   0.0189833  -0.1065760  )
       142           H   tau( 142) = (  -0.0649094   0.0585661  -0.0984222  )
       143           H   tau( 143) = (  -0.1571931  -0.1661066  -0.1087894  )
       144           H   tau( 144) = (  -0.1401852  -0.2100339  -0.0477127  )
       145           H   tau( 145) = (  -0.1597886   0.2940654   0.1388942  )
       146           H   tau( 146) = (  -0.1229418   0.3051969   0.2060463  )
       147           H   tau( 147) = (  -0.0786936   0.0912021   0.1905323  )
       148           H   tau( 148) = (  -0.1190739   0.1548876   0.1760190  )
       149           H   tau( 149) = (  -0.1191787  -0.0528814  -0.0141338  )
       150           H   tau( 150) = (  -0.1399298   0.0174000   0.0070652  )
       151           H   tau( 151) = (  -0.1184229  -0.1050798   0.2691698  )
       152           H   tau( 152) = (  -0.0665566  -0.1590336   0.2533322  )
       153           H   tau( 153) = (   0.0819652   0.0868292   0.2645852  )
       154           H   tau( 154) = (   0.0084041   0.1095052   0.2733435  )
       155           H   tau( 155) = (  -0.2680462   0.1682780   0.1142831  )
       156           H   tau( 156) = (  -0.1965102   0.1609107   0.0857404  )
       157           H   tau( 157) = (   0.1683559   0.2276360  -0.0079100  )
       158           H   tau( 158) = (   0.1406365   0.2015267  -0.0741702  )
       159           H   tau( 159) = (   0.1793083  -0.3019590  -0.1930518  )
       160           H   tau( 160) = (   0.1136581  -0.2636409  -0.2061999  )
       161           H   tau( 161) = (  -0.1283835   0.1947118  -0.1483736  )
       162           H   tau( 162) = (  -0.1069943   0.2148345  -0.0778830  )
       163           H   tau( 163) = (   0.2975887   0.0121815   0.3087227  )
       164           H   tau( 164) = (   0.2378964   0.0229009   0.2608966  )
       165           H   tau( 165) = (  -0.1470516  -0.0325616   0.1226193  )
       166           H   tau( 166) = (  -0.1809699   0.0359078   0.1313359  )
       167           H   tau( 167) = (  -0.0055673  -0.1635855  -0.1167694  )
       168           H   tau( 168) = (  -0.0111863  -0.1020063  -0.0731603  )
       169           H   tau( 169) = (   0.0216485  -0.1750138  -0.2337424  )
       170           H   tau( 170) = (   0.0379921  -0.1597234  -0.3074056  )
       171           H   tau( 171) = (   0.2490569  -0.2736309   0.2473749  )
       172           H   tau( 172) = (   0.3247028  -0.2872082   0.2456161  )
       173           H   tau( 173) = (   0.2828399  -0.1791429   0.0170280  )
       174           H   tau( 174) = (   0.2286685  -0.1252072   0.0185041  )
       175           H   tau( 175) = (   0.2103417  -0.0273837   0.0791391  )
       176           H   tau( 176) = (   0.2181396  -0.0022186   0.1509299  )
       177           H   tau( 177) = (   0.0723861   0.1851615  -0.2515622  )
       178           H   tau( 178) = (   0.0879521   0.2438499  -0.2023967  )
       179           H   tau( 179) = (  -0.0445524  -0.3175792  -0.0103905  )
       180           H   tau( 180) = (  -0.0678223  -0.2619484   0.0376441  )
       181           H   tau( 181) = (  -0.2689736  -0.1018424  -0.3222164  )
       182           H   tau( 182) = (  -0.2366928  -0.0497467  -0.2745136  )
       183           H   tau( 183) = (  -0.1930634   0.1046566  -0.0522080  )
       184           H   tau( 184) = (  -0.2415200   0.0767896  -0.0004750  )
       185           H   tau( 185) = (   0.2888365   0.1268728  -0.1442873  )
       186           H   tau( 186) = (   0.2201154   0.1005300  -0.1224123  )
       187           H   tau( 187) = (   0.1734989  -0.0347175  -0.0277657  )
       188           H   tau( 188) = (   0.1519148   0.0203964  -0.0768295  )
       189           H   tau( 189) = (  -0.2962000  -0.0286220   0.0828039  )
       190           H   tau( 190) = (  -0.2431052  -0.0829334   0.0936233  )
       191           H   tau( 191) = (   0.0740328   0.1863468   0.0764908  )
       192           H   tau( 192) = (   0.1153817   0.1289808   0.0455605  )

     number of k points=     1  Marzari-Vanderbilt smearing, width (Ry)=  0.0250
                       cart. coord. in units 2pi/alat
        k(    1) = (   0.0000000   0.0000000   0.0000000), wk =   2.0000000

     Dense  grid:   177509 G-vectors     FFT dimensions: (  72,  72,  72)

     Estimated max dynamical RAM per process >      67.80Mb

     Estimated total allocated dynamical RAM >    1898.40Mb

     Initial potential from superposition of free atoms
     Check: negative starting charge=   -0.871677

     starting charge  511.99856, renormalised to  512.00000

     negative rho (up, down):  8.717E-01 0.000E+00
     Starting wfc are  384 randomized atomic wfcs

     total cpu time spent up to now is        0.8 secs

     per-process dynamical memory:    45.9 Mb

     Self-consistent Calculation

     iteration #  1     ecut=    30.00 Ry     beta=0.70
     Davidson diagonalization with overlap
     ethr =  1.00E-02,  avg # of iterations =  8.0

     negative rho (up, down):  1.687E-01 0.000E+00

     total cpu time spent up to now is        9.2 secs

     total energy              =   -1775.23439100 Ry
     Harris-Foulkes estimate   =   -1802.13684544 Ry
     estimated scf accuracy    <      40.34379436 Ry

     iteration #  2     ecut=    30.00 Ry     beta=0.70
     Davidson diagonalization with overlap
     ethr =  7.88E-03,  avg # of iterations =  4.0

     negative rho (up, down):  2.049E-03 0.000E+00

     total cpu time spent up to now is       12.5 secs

     total energy              =   -1751.28398161 Ry
     Harris-Foulkes estimate   =   -1794.49143232 Ry
     estimated scf accuracy    <     117.21153102 Ry

     iteration #  3     ecut=    30.00 Ry     beta=0.70
     Davidson diagonalization with overlap
     ethr =  7.88E-03,  avg # of iterations =  5.0

     negative rho (up, down):  4.949E-06 0.000E+00

     total cpu time spent up to now is       16.7 secs

     total energy              =   -1776.19939913 Ry
     Harris-Foulkes estimate   =   -1792.46068247 Ry
     estimated scf accuracy    <      58.10173062 Ry

     iteration #  4     ecut=    30.00 Ry     beta=0.70
     Davidson diagonalization with overlap
     ethr =  7.88E-03,  avg # of iterations =  3.0

     total cpu time spent up to now is       18.5 secs

     total energy              =   -1782.31344373 Ry
     Harris-Foulkes estimate   =   -1786.08007920 Ry
     estimated scf accuracy    <      10.37096124 Ry

     iteration #  5     ecut=    30.00 Ry     beta=0.70
     Davidson diagonalization with overlap
     ethr =  2.03E-03,  avg # of iterations =  5.0

     total cpu time spent up to now is       21.2 secs

     total energy              =   -1782.96019802 Ry
     Harris-Foulkes estimate   =   -1784.13782652 Ry
     estimated scf accuracy    <       5.93599718 Ry

     iteration #  6     ecut=    30.00 Ry     beta=0.70
     Davidson diagonalization with overlap
     ethr =  1.16E-03,  avg # of iterations =  3.0

     total cpu time spent up to now is       22.9 secs

     total energy              =   -1783.07403465 Ry
     Harris-Foulkes estimate   =   -1783.54930652 Ry
     estimated scf accuracy    <       2.81268178 Ry

     iteration #  7     ecut=    30.00 Ry     beta=0.70
     Davidson diagonalization with overlap
     ethr =  5.49E-04,  avg # of iterations =  3.0

     total cpu time spent up to now is       24.6 secs

     total energy              =   -1783.07417413 Ry
     Harris-Foulkes estimate   =   -1783.23826174 Ry
     estimated scf accuracy    <       1.02831924 Ry

     iteration #  8     ecut=    30.00 Ry     beta=0.70
     Davidson diagonalization with overlap
     ethr =  2.01E-04,  avg # of iterations =  4.0

     total cpu time spent up to now is       26.6 secs

     total energy              =   -1783.01516931 Ry
     Harris-Foulkes estimate   =   -1783.15667537 Ry
     estimated scf accuracy    <       0.76191031 Ry

     iteration #  9     ecut=    30.00 Ry     beta=0.70
     Davidson diagonalization with overlap
     ethr =  1.49E-04,  avg # of iterations =  8.0

     total cpu time spent up to now is       29.8 secs

     total energy              =   -1783.03032984 Ry
     Harris-Foulkes estimate   =   -1783.08091798 Ry
     estimated scf accuracy    <       0.20197434 Ry

     iteration # 10     ecut=    30.00 Ry     beta=0.70
     Davidson diagonalization with overlap
     ethr =  3.94E-05,  avg # of iterations =  5.0

     total cpu time spent up to now is       32.4 secs

     total energy              =   -1783.02478526 Ry
     Harris-Foulkes estimate   =   -1783.07434375 Ry
     estimated scf accuracy    <       0.21521300 Ry

     iteration # 11     ecut=    30.00 Ry     beta=0.70
     Davidson diagonalization with overlap
     ethr =  3.94E-05,  avg # of iterations =  3.0

     total cpu time spent up to now is       34.2 secs

     total energy              =   -1783.04727180 Ry
     Harris-Foulkes estimate   =   -1783.06319875 Ry
     estimated scf accuracy    <       0.08140642 Ry

     iteration # 12     ecut=    30.00 Ry     beta=0.70
     Davidson diagonalization with overlap
     ethr =  1.59E-05,  avg # of iterations =  3.0

     total cpu time spent up to now is       35.9 secs

     total energy              =   -1783.05268976 Ry
     Harris-Foulkes estimate   =   -1783.05857744 Ry
     estimated scf accuracy    <       0.02584790 Ry

     iteration # 13     ecut=    30.00 Ry     beta=0.70
     Davidson diagonalization with overlap
     ethr =  5.05E-06,  avg # of iterations =  6.0

     total cpu time spent up to now is       38.6 secs

     total energy              =   -1783.05542382 Ry
     Harris-Foulkes estimate   =   -1783.05648009 Ry
     estimated scf accuracy    <       0.00378736 Ry

     iteration # 14     ecut=    30.00 Ry     beta=0.70
     Davidson diagonalization with overlap
     ethr =  7.40E-07,  avg # of iterations =  4.0

     total cpu time spent up to now is       40.8 secs

     total energy              =   -1783.05563225 Ry
     Harris-Foulkes estimate   =   -1783.05639931 Ry
     estimated scf accuracy    <       0.00314924 Ry

     iteration # 15     ecut=    30.00 Ry     beta=0.70
     Davidson diagonalization with overlap
     ethr =  6.15E-07,  avg # of iterations =  3.0

     total cpu time spent up to now is       42.5 secs

     total energy              =   -1783.05600845 Ry
     Harris-Foulkes estimate   =   -1783.05618918 Ry
     estimated scf accuracy    <       0.00076366 Ry

     iteration # 16     ecut=    30.00 Ry     beta=0.70
     Davidson diagonalization with overlap
     ethr =  1.49E-07,  avg # of iterations =  2.0

     total cpu time spent up to now is       44.0 secs

     total energy              =   -1783.05606862 Ry
     Harris-Foulkes estimate   =   -1783.05616749 Ry
     estimated scf accuracy    <       0.00037794 Ry

     iteration # 17     ecut=    30.00 Ry     beta=0.70
     Davidson diagonalization with overlap
     ethr =  7.38E-08,  avg # of iterations =  2.0

     total cpu time spent up to now is       45.4 secs

     total energy              =   -1783.05610038 Ry
     Harris-Foulkes estimate   =   -1783.05616302 Ry
     estimated scf accuracy    <       0.00035704 Ry

     iteration # 18     ecut=    30.00 Ry     beta=0.70
     Davidson diagonalization with overlap
     ethr =  6.97E-08,  avg # of iterations =  2.0

     total cpu time spent up to now is       46.8 secs

     total energy              =   -1783.05613464 Ry
     Harris-Foulkes estimate   =   -1783.05614231 Ry
     estimated scf accuracy    <       0.00003785 Ry

     iteration # 19     ecut=    30.00 Ry     beta=0.70
     Davidson diagonalization with overlap
     ethr =  7.39E-09,  avg # of iterations =  2.0

     total cpu time spent up to now is       48.3 secs

     total energy              =   -1783.05613708 Ry
     Harris-Foulkes estimate   =   -1783.05614510 Ry
     estimated scf accuracy    <       0.00002756 Ry

     iteration # 20     ecut=    30.00 Ry     beta=0.70
     Davidson diagonalization with overlap
     ethr =  5.38E-09,  avg # of iterations =  2.0

     total cpu time spent up to now is       49.7 secs

     total energy              =   -1783.05614065 Ry
     Harris-Foulkes estimate   =   -1783.05614240 Ry
     estimated scf accuracy    <       0.00000803 Ry

     iteration # 21     ecut=    30.00 Ry     beta=0.70
     Davidson diagonalization with overlap
     ethr =  1.57E-09,  avg # of iterations =  2.0

     total cpu time spent up to now is       51.2 secs

     total energy              =   -1783.05614154 Ry
     Harris-Foulkes estimate   =   -1783.05614289 Ry
     estimated scf accuracy    <       0.00000834 Ry

     iteration # 22     ecut=    30.00 Ry     beta=0.70
     Davidson diagonalization with overlap
     ethr =  1.57E-09,  avg # of iterations =  2.0

     total cpu time spent up to now is       52.6 secs

     total energy              =   -1783.05614219 Ry
     Harris-Foulkes estimate   =   -1783.05614308 Ry
     estimated scf accuracy    <       0.00000392 Ry

     iteration # 23     ecut=    30.00 Ry     beta=0.70
     Davidson diagonalization with overlap
     ethr =  7.65E-10,  avg # of iterations =  2.0

     total cpu time spent up to now is       54.0 secs

     total energy              =   -1783.05614273 Ry
     Harris-Foulkes estimate   =   -1783.05614280 Ry
     estimated scf accuracy    <       0.00000058 Ry

     iteration # 24     ecut=    30.00 Ry     beta=0.70
     Davidson diagonalization with overlap
     ethr =  1.13E-10,  avg # of iterations =  3.0

     total cpu time spent up to now is       55.9 secs

     total energy              =   -1783.05614274 Ry
     Harris-Foulkes estimate   =   -1783.05614293 Ry
     estimated scf accuracy    <       0.00000067 Ry

     iteration # 25     ecut=    30.00 Ry     beta=0.70
     Davidson diagonalization with overlap
     ethr =  1.13E-10,  avg # of iterations =  2.0

     total cpu time spent up to now is       57.4 secs

     total energy              =   -1783.05614284 Ry
     Harris-Foulkes estimate   =   -1783.05614288 Ry
     estimated scf accuracy    <       0.00000024 Ry

     iteration # 26     ecut=    30.00 Ry     beta=0.70
     Davidson diagonalization with overlap
     ethr =  4.70E-11,  avg # of iterations =  2.0

     total cpu time spent up to now is       58.8 secs

     total energy              =   -1783.05614286 Ry
     Harris-Foulkes estimate   =   -1783.05614289 Ry
     estimated scf accuracy    <       0.00000015 Ry

     iteration # 27     ecut=    30.00 Ry     beta=0.70
     Davidson diagonalization with overlap
     ethr =  2.91E-11,  avg # of iterations =  2.0

     total cpu time spent up to now is       60.3 secs

     total energy              =   -1783.05614286 Ry
     Harris-Foulkes estimate   =   -1783.05614290 Ry
     estimated scf accuracy    <       0.00000021 Ry

     iteration # 28     ecut=    30.00 Ry     beta=0.70
     Davidson diagonalization with overlap
     ethr =  2.91E-11,  avg # of iterations =  2.0

     total cpu time spent up to now is       61.7 secs

     total energy              =   -1783.05614288 Ry
     Harris-Foulkes estimate   =   -1783.05614288 Ry
     estimated scf accuracy    <       0.00000005 Ry

     iteration # 29     ecut=    30.00 Ry     beta=0.70
     Davidson diagonalization with overlap
     ethr =  9.57E-12,  avg # of iterations =  2.0

     total cpu time spent up to now is       63.1 secs

     total energy              =   -1783.05614288 Ry
     Harris-Foulkes estimate   =   -1783.05614289 Ry
     estimated scf accuracy    <       0.00000001 Ry

     iteration # 30     ecut=    30.00 Ry     beta=0.70
     Davidson diagonalization with overlap
     ethr =  2.74E-12,  avg # of iterations =  2.0

     total cpu time spent up to now is       64.7 secs

     total energy              =   -1783.05614288 Ry
     Harris-Foulkes estimate   =   -1783.05614289 Ry
     estimated scf accuracy    <       0.00000002 Ry

     iteration # 31     ecut=    30.00 Ry     beta=0.70
     Davidson diagonalization with overlap
     ethr =  2.74E-12,  avg # of iterations =  2.0

     total cpu time spent up to now is       66.1 secs

     End of self-consistent calculation

          k = 0.0000 0.0000 0.0000 ( 22119 PWs)   bands (ev):

   -47.3952 -45.7450 -44.2493 -43.7770 -43.0544 -42.0161 -41.5616 -40.8933
   -40.7157 -39.4377 -39.1770 -38.3449 -38.0708 -37.7182 -37.1078 -36.8106
   -35.7271 -35.5210 -35.2167 -35.0600 -34.8657 -34.6491 -34.4976 -34.2495
   -34.0451 -33.8735 -33.7515 -33.2239 -33.0308 -32.5457 -32.4687 -32.3504
   -31.9985 -31.8710 -31.5387 -31.3529 -31.1543 -31.0720 -30.8885 -30.6417
   -30.4913 -30.2793 -30.2207 -29.9157 -29.7063 -29.5769 -29.4921 -29.3193
   -28.9367 -28.9016 -28.4342 -28.3557 -28.2648 -28.1132 -27.8531 -27.6723
   -27.6404 -27.5040 -27.3817 -27.2256 -27.1783 -27.0387 -27.0131 -26.8495
   -26.7732 -26.2857 -25.7893 -25.2609 -25.0787 -24.7538 -24.0206 -23.9152
   -23.5101 -22.7850 -22.4762 -22.3890 -22.2221 -22.0221 -21.9496 -21.5705
   -21.3911 -21.3232 -20.8784 -20.7141 -20.2650 -20.2260 -20.2123 -19.6875
   -19.3882 -19.1875 -19.0042 -18.8026 -18.5961 -18.3924 -18.3448 -18.0840
   -17.9964 -17.8804 -17.7606 -17.4701 -17.3758 -16.9914 -16.9412 -16.7577
   -16.6393 -16.5537 -16.5467 -16.2258 -16.0746 -16.0103 -15.7516 -15.6217
   -15.3896 -15.3275 -15.1343 -15.0033 -14.9613 -14.9214 -14.6339 -14.4033
   -14.3124 -14.2454 -14.1668 -13.9611 -13.9020 -13.7705 -13.6015 -13.5385
   -13.4393 -13.1968 -12.9434 -12.8103 -12.6217 -12.6067 -12.5605 -12.4563
   -12.2638 -12.1269 -12.0057 -11.7073 -11.3815 -11.1142 -11.0742 -10.9173
   -10.6806 -10.2633 -10.0905  -9.9188  -9.8388  -9.6439  -9.2887  -9.1622
    -9.0401  -8.9196  -8.6738  -8.6180  -8.3643  -8.2187  -8.0721  -8.0427
    -7.8290  -7.6972  -7.6238  -7.5895  -7.3941  -7.1787  -7.0620  -6.9217
    -6.8315  -6.7204  -6.5606  -6.4430  -6.3273  -6.3061  -6.2298  -6.1620
    -5.9494  -5.8786  -5.7555  -5.7246  -5.5825  -5.3977  -5.3354  -5.1777
    -5.0240  -4.9113  -4.6844  -4.6005  -4.4812  -4.4363  -4.2653  -4.2319
    -4.1420  -4.0063  -3.9858  -3.7179  -3.6054  -3.5723  -3.2882  -3.1652
    -3.0206  -2.9121  -2.8304  -2.6804  -2.5529  -2.4070  -2.2439  -2.2046
    -2.1686  -2.0939  -1.9115  -1.7562  -1.6102  -1.5380  -1.4506  -1.3397
    -1.0838  -1.0495  -0.7906  -0.5255  -0.4700  -0.3757  -0.2952  -0.2196
    -0.0670   0.2553   0.3636   0.8680   1.0160   1.2887   1.5436   1.6458
     1.7117   1.8165   1.9202   2.1627   2.2577   2.4136   2.6014   2.7757
     3.0395   3.3919   3.4189   3.5611   3.7008   4.3056   4.5552   4.9313
     5.1251   5.2233   5.3981   5.8404   5.9194   5.9390   6.0315   6.3338
     6.4519   6.5265   6.7590   6.9376   7.1980   7.2958   7.4839   7.5765
     7.6322   7.7489   7.8756   7.9910   8.1493   8.5134   8.5415   8.8169
     8.9427   9.0573   9.2302   9.3714   9.4888   9.5229   9.7157   9.7518
     9.9560  10.0395  10.2520  10.3785  10.4440  10.5703  10.6452  10.7298
    10.7916  10.8445  10.8844  11.0020  11.0882  11.1872  11.2757  11.3515
    11.4468  11.4961  11.5844  11.6508  11.7069  11.8384  11.8952  11.9303
    12.0253  12.1330  12.2023

     the Fermi energy is     6.3435 ev

!    total energy              =   -1783.05614288 Ry
     Harris-Foulkes estimate   =   -1783.05614289 Ry
     estimated scf accuracy    <          9.7E-09 Ry

     The total energy is the sum of the following terms:

     one-electron contribution =  -16223.28851142 Ry
     hartree contribution      =    8244.11497518 Ry
     xc contribution           =    -638.15850519 Ry
     ewald contribution        =    6834.26910137 Ry
     smearing contrib. (-TS)   =       0.00679719 Ry

     convergence has been achieved in  31 iterations

     Writing output data file pwscf.save
 
     init_run     :      0.57s CPU      0.62s WALL (       1 calls)
     electrons    :     63.46s CPU     65.38s WALL (       1 calls)

     Called by init_run:
     wfcinit      :      0.47s CPU      0.51s WALL (       1 calls)
     potinit      :      0.02s CPU      0.02s WALL (       1 calls)

     Called by electrons:
     c_bands      :     60.47s CPU     62.05s WALL (      31 calls)
     sum_band     :      2.53s CPU      2.59s WALL (      31 calls)
     v_of_rho     :      0.24s CPU      0.26s WALL (      32 calls)
     mix_rho      :      0.17s CPU      0.35s WALL (      31 calls)

     Called by c_bands:
     init_us_2    :      0.08s CPU      0.08s WALL (      63 calls)
     cegterg      :     60.27s CPU     61.75s WALL (      31 calls)

     Called by sum_band:

     Called by *egterg:
     h_psi        :     11.51s CPU     11.72s WALL (     132 calls)
     g_psi        :      0.10s CPU      0.10s WALL (     100 calls)
     cdiaghg      :     36.17s CPU     36.20s WALL (     131 calls)

     Called by h_psi:
     h_psi:pot    :     11.22s CPU     11.42s WALL (     132 calls)
     h_psi:calbec :      0.41s CPU      0.41s WALL (     132 calls)
     vloc_psi     :     10.45s CPU     10.64s WALL (     132 calls)
     add_vuspsi   :      0.36s CPU      0.37s WALL (     132 calls)

     General routines
     calbec       :      0.41s CPU      0.41s WALL (     132 calls)
     fft          :      0.14s CPU      0.14s WALL (     351 calls)
     fftw         :     11.66s CPU     11.89s WALL (   52455 calls)
     davcio       :      0.02s CPU      0.15s WALL (     528 calls)
 
     Parallel routines
     fft_scatter  :      3.98s CPU      4.08s WALL (   52806 calls)
 
     PWSCF        :  1m 4.18s CPU     1m 6.38s WALL

 
   This run was terminated on:   4:58:34   2Feb2018            

=------------------------------------------------------------------------------=
   JOB DONE.
=------------------------------------------------------------------------------=
