
     Program PWSCF v.6.0 (svn rev. 13079) starts on  3Feb2018 at  3:20:27 

     This program is part of the open-source Quantum ESPRESSO suite
     for quantum simulation of materials; please cite
         "P. Giannozzi et al., J. Phys.:Condens. Matter 21 395502 (2009);
          URL http://www.quantum-espresso.org", 
     in publications or presentations arising from this work. More details at
     http://www.quantum-espresso.org/quote

     Parallel version (MPI), running on    28 processors
     R & G space division:  proc/nbgrp/npool/nimage =      28
     Reading input from input/scf-bigwater-1/1405.in
Warning: card &IONS ignored
Warning: card     POT_EXTRAPOLATION='SECOND-ORDER' ignored
Warning: card     WFC_EXTRAPOLATION='SECOND-ORDER' ignored
Warning: card     ION_TEMPERATURE = 'ANDERSEN' ignored
Warning: card     TEMPW = 1000 ignored
Warning: card / ignored

     Current dimensions of program PWSCF are:
     Max number of different atomic species (ntypx) = 10
     Max number of k-points (npk) =  40000
     Max angular momentum in pseudopotentials (lmaxx) =  3

     Subspace diagonalization in iterative solution of the eigenvalue problem:
     a serial algorithm will be used

 
     Parallelization info
     --------------------
     sticks:   dense  smooth     PW     G-vecs:    dense   smooth      PW
     Min         136     136     33                 6338     6338     787
     Max         137     137     34                 6341     6341     792
     Sum        3809    3809    949               177509   177509   22119
 


     bravais-lattice index     =            1
     lattice parameter (alat)  =      20.0000  a.u.
     unit-cell volume          =    8000.0000 (a.u.)^3
     number of atoms/cell      =          192
     number of atomic types    =            2
     number of electrons       =       512.00
     number of Kohn-Sham states=          307
     kinetic-energy cutoff     =      30.0000  Ry
     charge density cutoff     =     120.0000  Ry
     convergence threshold     =      1.0E-08
     mixing beta               =       0.7000
     number of iterations used =            8  plain     mixing
     Exchange-correlation      = BLYP ( 1  3  1  3 0 0)

     celldm(1)=  20.000000  celldm(2)=   0.000000  celldm(3)=   0.000000
     celldm(4)=   0.000000  celldm(5)=   0.000000  celldm(6)=   0.000000

     crystal axes: (cart. coord. in units of alat)
               a(1) = (   1.000000   0.000000   0.000000 )  
               a(2) = (   0.000000   1.000000   0.000000 )  
               a(3) = (   0.000000   0.000000   1.000000 )  

     reciprocal axes: (cart. coord. in units 2 pi/alat)
               b(1) = (  1.000000  0.000000  0.000000 )  
               b(2) = (  0.000000  1.000000  0.000000 )  
               b(3) = (  0.000000  0.000000  1.000000 )  


     PseudoPot. # 1 for  H read from file:
     ./H.blyp-hgh.UPF
     MD5 check sum: c576e69559cde411e611be972c763230
     Pseudo is Norm-conserving, Zval =  1.0
     Generated in analytical, separable form
     Using radial grid of  929 points,  0 beta functions with: 

     PseudoPot. # 2 for  O read from file:
     ./O.blyp-hgh.UPF
     MD5 check sum: d0b7156309aa9befef28faac7bc56342
     Pseudo is Norm-conserving, Zval =  6.0
     Generated in analytical, separable form
     Using radial grid of 1095 points,  1 beta functions with: 
                l(1) =   0

     atomic species   valence    mass     pseudopotential
        H              1.00     1.01000      H( 1.00)
        O              6.00    16.00000      O( 1.00)

     No symmetry found



   Cartesian axes

     site n.     atom                  positions (alat units)
         1           O   tau(   1) = (  -0.2913742  -0.0900922  -0.0009283  )
         2           O   tau(   2) = (   0.1860616  -0.0886764   0.3065334  )
         3           O   tau(   3) = (  -0.2830367   0.3584941  -0.2829399  )
         4           O   tau(   4) = (   0.1045803   0.1397999  -0.0353214  )
         5           O   tau(   5) = (  -0.2431963   0.0625740   0.2197901  )
         6           O   tau(   6) = (   0.0185213   0.2953283   0.3147184  )
         7           O   tau(   7) = (  -0.0987110  -0.2839595  -0.1298273  )
         8           O   tau(   8) = (   0.2176668   0.0502262   0.2427377  )
         9           O   tau(   9) = (  -0.1162787  -0.3363861   0.3071699  )
        10           O   tau(  10) = (   0.0868243  -0.1370932   0.1780005  )
        11           O   tau(  11) = (   0.1054998  -0.2839624   0.1029320  )
        12           O   tau(  12) = (  -0.1368801  -0.2087098   0.2652174  )
        13           O   tau(  13) = (  -0.1889287  -0.3406785   0.0073096  )
        14           O   tau(  14) = (  -0.1752391  -0.1918501  -0.2254639  )
        15           O   tau(  15) = (   0.1238450  -0.2358572  -0.0632443  )
        16           O   tau(  16) = (  -0.0599395   0.1470665  -0.0811651  )
        17           O   tau(  17) = (  -0.0691650  -0.1445417   0.0583033  )
        18           O   tau(  18) = (  -0.0106843  -0.2424082   0.1740311  )
        19           O   tau(  19) = (   0.2041121  -0.1932400  -0.1920499  )
        20           O   tau(  20) = (   0.2593765   0.2113589   0.0893897  )
        21           O   tau(  21) = (   0.2494524  -0.2003303   0.2241645  )
        22           O   tau(  22) = (  -0.1182627  -0.0585353  -0.1683491  )
        23           O   tau(  23) = (  -0.0659531   0.1659050  -0.2432091  )
        24           O   tau(  24) = (   0.2438063   0.0636077   0.0185528  )
        25           O   tau(  25) = (   0.1702561   0.0750023  -0.1810693  )
        26           O   tau(  26) = (  -0.2503660   0.1863985  -0.3085954  )
        27           O   tau(  27) = (   0.2439316  -0.2710494   0.0398575  )
        28           O   tau(  28) = (   0.0448717  -0.0254320  -0.3065130  )
        29           O   tau(  29) = (  -0.1453763   0.0329832  -0.2673926  )
        30           O   tau(  30) = (   0.0251604  -0.0431262   0.0880271  )
        31           O   tau(  31) = (   0.3041848  -0.1173180  -0.1699299  )
        32           O   tau(  32) = (   0.2023966  -0.0260615  -0.0600436  )
        33           O   tau(  33) = (  -0.0254175   0.2283856   0.1479714  )
        34           O   tau(  34) = (  -0.2389556  -0.0085659  -0.1371103  )
        35           O   tau(  35) = (   0.0006115  -0.2201243  -0.0339874  )
        36           O   tau(  36) = (   0.2930126   0.1591278  -0.3930448  )
        37           O   tau(  37) = (   0.1982615   0.2803410   0.2668690  )
        38           O   tau(  38) = (  -0.3177994   0.3009714  -0.1312645  )
        39           O   tau(  39) = (   0.0095840   0.0455462  -0.1245404  )
        40           O   tau(  40) = (  -0.2368021  -0.2145526  -0.0323003  )
        41           O   tau(  41) = (  -0.1506387   0.3287783   0.1201304  )
        42           O   tau(  42) = (  -0.1206563   0.1544352   0.2008529  )
        43           O   tau(  43) = (  -0.1358548  -0.0071179  -0.0032320  )
        44           O   tau(  44) = (  -0.0813635  -0.0618272   0.2536283  )
        45           O   tau(  45) = (   0.0558064   0.1053827   0.2687599  )
        46           O   tau(  46) = (  -0.2545083   0.1178107   0.0904978  )
        47           O   tau(  47) = (   0.1704678   0.2684413  -0.0897755  )
        48           O   tau(  48) = (   0.0513784  -0.2960545  -0.1712407  )
        49           O   tau(  49) = (  -0.2080514   0.2341223  -0.1889784  )
        50           O   tau(  50) = (   0.2964042   0.0745172   0.3628932  )
        51           O   tau(  51) = (  -0.0483794   0.0720137   0.1040472  )
        52           O   tau(  52) = (   0.0173227  -0.1071870  -0.1691262  )
        53           O   tau(  53) = (  -0.0086990  -0.1930957  -0.2799024  )
        54           O   tau(  54) = (   0.3432155  -0.2966286   0.2032766  )
        55           O   tau(  55) = (   0.1917388  -0.1431942   0.0743941  )
        56           O   tau(  56) = (   0.2923074  -0.0711804   0.1398816  )
        57           O   tau(  57) = (   0.0870952   0.2001474  -0.2210923  )
        58           O   tau(  58) = (  -0.0307675  -0.4010471   0.0202026  )
        59           O   tau(  59) = (  -0.2266414  -0.0778212  -0.3439566  )
        60           O   tau(  60) = (  -0.2363235   0.0808444  -0.0374343  )
        61           O   tau(  61) = (   0.2102543   0.2093920  -0.2602802  )
        62           O   tau(  62) = (   0.0718315  -0.0434482  -0.0347245  )
        63           O   tau(  63) = (  -0.2612912  -0.2087001   0.0949697  )
        64           O   tau(  64) = (   0.0961608   0.1210596   0.0980355  )
        65           H   tau(  65) = (  -0.2691331  -0.1050567  -0.0416906  )
        66           H   tau(  66) = (  -0.3018715  -0.1292571   0.0254757  )
        67           H   tau(  67) = (   0.1412031  -0.0689205   0.3134771  )
        68           H   tau(  68) = (   0.1772409  -0.1214568   0.2708489  )
        69           H   tau(  69) = (  -0.3037948   0.3257607  -0.2524608  )
        70           H   tau(  70) = (  -0.2370995   0.3654755  -0.2640086  )
        71           H   tau(  71) = (   0.1359817   0.1769813  -0.0273149  )
        72           H   tau(  72) = (   0.0677388   0.1631641  -0.0574751  )
        73           H   tau(  73) = (  -0.2620432   0.0241663   0.2448343  )
        74           H   tau(  74) = (  -0.1990227   0.0501668   0.2018099  )
        75           H   tau(  75) = (   0.0005539   0.3383494   0.3320868  )
        76           H   tau(  76) = (   0.0311562   0.2709787   0.3557577  )
        77           H   tau(  77) = (  -0.1415245  -0.2955194  -0.1512900  )
        78           H   tau(  78) = (  -0.0973045  -0.3207320  -0.0971951  )
        79           H   tau(  79) = (   0.1756919   0.0757811   0.2442413  )
        80           H   tau(  80) = (   0.1975350   0.0082678   0.2260664  )
        81           H   tau(  81) = (  -0.1427232  -0.3766021   0.3088800  )
        82           H   tau(  82) = (  -0.0688658  -0.3509660   0.3080437  )
        83           H   tau(  83) = (   0.0627940  -0.1017745   0.1539251  )
        84           H   tau(  84) = (   0.1253177  -0.1495217   0.1495331  )
        85           H   tau(  85) = (   0.0619031  -0.2826034   0.1260807  )
        86           H   tau(  86) = (   0.0932642  -0.2575089   0.0635096  )
        87           H   tau(  87) = (  -0.1171161  -0.2374706   0.2987687  )
        88           H   tau(  88) = (  -0.1235118  -0.2269218   0.2227220  )
        89           H   tau(  89) = (  -0.1926376  -0.3878818  -0.0034592  )
        90           H   tau(  90) = (  -0.2203295  -0.3159785  -0.0215351  )
        91           H   tau(  91) = (  -0.1524255  -0.1518919  -0.2073859  )
        92           H   tau(  92) = (  -0.1365159  -0.2201537  -0.2360242  )
        93           H   tau(  93) = (   0.1500321  -0.2051515  -0.0916467  )
        94           H   tau(  94) = (   0.0839386  -0.2081536  -0.0534794  )
        95           H   tau(  95) = (  -0.0819529   0.1748718  -0.1156159  )
        96           H   tau(  96) = (  -0.0618365   0.1800729  -0.0435374  )
        97           H   tau(  97) = (  -0.0959105  -0.1255659   0.0225623  )
        98           H   tau(  98) = (  -0.0417672  -0.1072301   0.0742015  )
        99           H   tau(  99) = (   0.0278301  -0.2127505   0.1621486  )
       100           H   tau( 100) = (  -0.0418043  -0.2348969   0.1367737  )
       101           H   tau( 101) = (   0.2173813  -0.2124148  -0.2351469  )
       102           H   tau( 102) = (   0.1908852  -0.1471392  -0.2073867  )
       103           H   tau( 103) = (   0.2482724   0.2587055   0.0969785  )
       104           H   tau( 104) = (   0.3066561   0.2056503   0.0973168  )
       105           H   tau( 105) = (   0.2780284  -0.1715860   0.2521391  )
       106           H   tau( 106) = (   0.2182678  -0.2202647   0.2563572  )
       107           H   tau( 107) = (  -0.0790776  -0.0880858  -0.1628391  )
       108           H   tau( 108) = (  -0.1038012  -0.0197536  -0.1948282  )
       109           H   tau( 109) = (  -0.0241971   0.1918559  -0.2385838  )
       110           H   tau( 110) = (  -0.0569268   0.1186763  -0.2316609  )
       111           H   tau( 111) = (   0.2743047   0.1014097   0.0126721  )
       112           H   tau( 112) = (   0.2277964   0.0708009   0.0643458  )
       113           H   tau( 113) = (   0.2092134   0.0886886  -0.1550597  )
       114           H   tau( 114) = (   0.1485151   0.1188012  -0.1824985  )
       115           H   tau( 115) = (  -0.2804298   0.1783823  -0.3498745  )
       116           H   tau( 116) = (  -0.2181162   0.1495883  -0.3138932  )
       117           H   tau( 117) = (   0.1999988  -0.2898074   0.0276894  )
       118           H   tau( 118) = (   0.2506384  -0.2326875   0.0104753  )
       119           H   tau( 119) = (   0.0081568  -0.0540911  -0.3205171  )
       120           H   tau( 120) = (   0.0448647   0.0157563  -0.3326832  )
       121           H   tau( 121) = (  -0.1400167  -0.0102743  -0.2908754  )
       122           H   tau( 122) = (  -0.1908586   0.0346994  -0.2484417  )
       123           H   tau( 123) = (   0.0184140   0.0049762   0.0875525  )
       124           H   tau( 124) = (   0.0528430  -0.0557505   0.0487336  )
       125           H   tau( 125) = (   0.2744440  -0.1096961  -0.2079409  )
       126           H   tau( 126) = (   0.3003819  -0.1660631  -0.1650376  )
       127           H   tau( 127) = (   0.2118424   0.0072880  -0.0242107  )
       128           H   tau( 128) = (   0.2396406  -0.0559258  -0.0536305  )
       129           H   tau( 129) = (  -0.0107817   0.2694810   0.1713986  )
       130           H   tau( 130) = (  -0.0722016   0.2177232   0.1607322  )
       131           H   tau( 131) = (  -0.2034835  -0.0418478  -0.1453581  )
       132           H   tau( 132) = (  -0.2818461  -0.0315823  -0.1422556  )
       133           H   tau( 133) = (  -0.0057011  -0.2681214  -0.0352905  )
       134           H   tau( 134) = (  -0.0299941  -0.2009578   0.0002534  )
       135           H   tau( 135) = (   0.2864781   0.1945312  -0.4264234  )
       136           H   tau( 136) = (   0.3153654   0.1219162  -0.4176906  )
       137           H   tau( 137) = (   0.1569881   0.2971278   0.2473767  )
       138           H   tau( 138) = (   0.1934710   0.2744905   0.3157145  )
       139           H   tau( 139) = (  -0.2773285   0.2745348  -0.1290399  )
       140           H   tau( 140) = (  -0.2994262   0.3452517  -0.1183504  )
       141           H   tau( 141) = (  -0.0149922   0.0875322  -0.1141692  )
       142           H   tau( 142) = (   0.0520326   0.0608850  -0.1445644  )
       143           H   tau( 143) = (  -0.1885922  -0.2093192  -0.0249447  )
       144           H   tau( 144) = (  -0.2515841  -0.2077280   0.0158126  )
       145           H   tau( 145) = (  -0.1549878   0.2951520   0.0850873  )
       146           H   tau( 146) = (  -0.1862540   0.3206025   0.1542895  )
       147           H   tau( 147) = (  -0.1678380   0.1394063   0.2006619  )
       148           H   tau( 148) = (  -0.1071251   0.1532693   0.2484299  )
       149           H   tau( 149) = (  -0.1336306  -0.0277631  -0.0469395  )
       150           H   tau( 150) = (  -0.1798006  -0.0117690   0.0166250  )
       151           H   tau( 151) = (  -0.0752986  -0.0307677   0.2163133  )
       152           H   tau( 152) = (  -0.1279776  -0.0764945   0.2493373  )
       153           H   tau( 153) = (   0.0435347   0.1119351   0.2220272  )
       154           H   tau( 154) = (   0.0413301   0.1497678   0.2878256  )
       155           H   tau( 155) = (  -0.2792289   0.0773221   0.1011280  )
       156           H   tau( 156) = (  -0.2396518   0.1042569   0.0438730  )
       157           H   tau( 157) = (   0.1403161   0.3010736  -0.1072374  )
       158           H   tau( 158) = (   0.2157813   0.2871087  -0.0931360  )
       159           H   tau( 159) = (   0.0370169  -0.2606166  -0.2028945  )
       160           H   tau( 160) = (   0.0584545  -0.2709376  -0.1287364  )
       161           H   tau( 161) = (  -0.2246710   0.2140579  -0.2323434  )
       162           H   tau( 162) = (  -0.1701644   0.2039901  -0.1853528  )
       163           H   tau( 163) = (   0.2472835   0.0757594   0.3715466  )
       164           H   tau( 164) = (   0.3019373   0.0875872   0.3159461  )
       165           H   tau( 165) = (  -0.0913298   0.0963471   0.1108401  )
       166           H   tau( 166) = (  -0.0181973   0.0915642   0.1356233  )
       167           H   tau( 167) = (   0.0339826  -0.1035456  -0.1228835  )
       168           H   tau( 168) = (   0.0476428  -0.0784778  -0.1945899  )
       169           H   tau( 169) = (   0.0040396  -0.1671773  -0.2396922  )
       170           H   tau( 170) = (   0.0137570  -0.1737072  -0.3189976  )
       171           H   tau( 171) = (   0.3480138  -0.2971857   0.2527746  )
       172           H   tau( 172) = (   0.3154125  -0.2554388   0.2056882  )
       173           H   tau( 173) = (   0.2012078  -0.1918877   0.0765150  )
       174           H   tau( 174) = (   0.1617315  -0.1362421   0.0364117  )
       175           H   tau( 175) = (   0.3216635  -0.0813994   0.1023027  )
       176           H   tau( 176) = (   0.2621218  -0.0372051   0.1236032  )
       177           H   tau( 177) = (   0.1303231   0.2093290  -0.2434027  )
       178           H   tau( 178) = (   0.0859619   0.2389854  -0.1905790  )
       179           H   tau( 179) = (  -0.0191645  -0.4458347   0.0373508  )
       180           H   tau( 180) = (  -0.0406114  -0.3832891   0.0661977  )
       181           H   tau( 181) = (  -0.2228722  -0.0876120  -0.2957064  )
       182           H   tau( 182) = (  -0.2385503  -0.1219367  -0.3617232  )
       183           H   tau( 183) = (  -0.1874521   0.0790237  -0.0427966  )
       184           H   tau( 184) = (  -0.2461762   0.0518990  -0.0773272  )
       185           H   tau( 185) = (   0.2236110   0.1948113  -0.2156089  )
       186           H   tau( 186) = (   0.2434853   0.1972114  -0.2946242  )
       187           H   tau( 187) = (   0.1211714  -0.0470631  -0.0461349  )
       188           H   tau( 188) = (   0.0547368   0.0001704  -0.0519015  )
       189           H   tau( 189) = (  -0.2199612  -0.2371875   0.0967862  )
       190           H   tau( 190) = (  -0.2977460  -0.2384623   0.1086642  )
       191           H   tau( 191) = (   0.0689488   0.1565178   0.1194819  )
       192           H   tau( 192) = (   0.0878935   0.1326759   0.0504810  )

     number of k points=     1  Marzari-Vanderbilt smearing, width (Ry)=  0.0250
                       cart. coord. in units 2pi/alat
        k(    1) = (   0.0000000   0.0000000   0.0000000), wk =   2.0000000

     Dense  grid:   177509 G-vectors     FFT dimensions: (  72,  72,  72)

     Estimated max dynamical RAM per process >      67.80Mb

     Estimated total allocated dynamical RAM >    1898.40Mb

     Initial potential from superposition of free atoms
     Check: negative starting charge=   -0.690946

     starting charge  511.99856, renormalised to  512.00000

     negative rho (up, down):  6.909E-01 0.000E+00
     Starting wfc are  384 randomized atomic wfcs

     total cpu time spent up to now is        0.8 secs

     per-process dynamical memory:    45.9 Mb

     Self-consistent Calculation

     iteration #  1     ecut=    30.00 Ry     beta=0.70
     Davidson diagonalization with overlap
     ethr =  1.00E-02,  avg # of iterations =  8.0

     negative rho (up, down):  1.610E-01 0.000E+00

     total cpu time spent up to now is        8.9 secs

     total energy              =   -1802.23856421 Ry
     Harris-Foulkes estimate   =   -1829.31891873 Ry
     estimated scf accuracy    <      42.36343180 Ry

     iteration #  2     ecut=    30.00 Ry     beta=0.70
     Davidson diagonalization with overlap
     ethr =  8.27E-03,  avg # of iterations =  4.0

     negative rho (up, down):  1.745E-03 0.000E+00

     total cpu time spent up to now is       12.0 secs

     total energy              =   -1784.37910829 Ry
     Harris-Foulkes estimate   =   -1815.28139799 Ry
     estimated scf accuracy    <      65.77794385 Ry

     iteration #  3     ecut=    30.00 Ry     beta=0.70
     Davidson diagonalization with overlap
     ethr =  8.27E-03,  avg # of iterations =  4.0

     negative rho (up, down):  1.124E-05 0.000E+00

     total cpu time spent up to now is       15.2 secs

     total energy              =   -1800.43412971 Ry
     Harris-Foulkes estimate   =   -1818.71191588 Ry
     estimated scf accuracy    <      61.86377925 Ry

     iteration #  4     ecut=    30.00 Ry     beta=0.70
     Davidson diagonalization with overlap
     ethr =  8.27E-03,  avg # of iterations =  3.0

     total cpu time spent up to now is       17.1 secs

     total energy              =   -1809.83990719 Ry
     Harris-Foulkes estimate   =   -1812.18204033 Ry
     estimated scf accuracy    <       6.70332874 Ry

     iteration #  5     ecut=    30.00 Ry     beta=0.70
     Davidson diagonalization with overlap
     ethr =  1.31E-03,  avg # of iterations =  4.0

     total cpu time spent up to now is       19.3 secs

     total energy              =   -1809.64081581 Ry
     Harris-Foulkes estimate   =   -1810.25767022 Ry
     estimated scf accuracy    <       2.26724689 Ry

     iteration #  6     ecut=    30.00 Ry     beta=0.70
     Davidson diagonalization with overlap
     ethr =  4.43E-04,  avg # of iterations =  5.0

     total cpu time spent up to now is       21.7 secs

     total energy              =   -1809.43796426 Ry
     Harris-Foulkes estimate   =   -1809.73238671 Ry
     estimated scf accuracy    <       0.90716064 Ry

     iteration #  7     ecut=    30.00 Ry     beta=0.70
     Davidson diagonalization with overlap
     ethr =  1.77E-04,  avg # of iterations =  5.0

     total cpu time spent up to now is       24.4 secs

     total energy              =   -1809.50580877 Ry
     Harris-Foulkes estimate   =   -1809.64084497 Ry
     estimated scf accuracy    <       1.42437241 Ry

     iteration #  8     ecut=    30.00 Ry     beta=0.70
     Davidson diagonalization with overlap
     ethr =  1.77E-04,  avg # of iterations =  1.0

     total cpu time spent up to now is       25.5 secs

     total energy              =   -1809.46338614 Ry
     Harris-Foulkes estimate   =   -1809.52768196 Ry
     estimated scf accuracy    <       0.40885019 Ry

     iteration #  9     ecut=    30.00 Ry     beta=0.70
     Davidson diagonalization with overlap
     ethr =  7.99E-05,  avg # of iterations =  3.0

     total cpu time spent up to now is       27.2 secs

     total energy              =   -1809.47172253 Ry
     Harris-Foulkes estimate   =   -1809.52934063 Ry
     estimated scf accuracy    <       0.71104914 Ry

     iteration # 10     ecut=    30.00 Ry     beta=0.70
     Davidson diagonalization with overlap
     ethr =  7.99E-05,  avg # of iterations =  1.0

     total cpu time spent up to now is       28.3 secs

     total energy              =   -1809.48752398 Ry
     Harris-Foulkes estimate   =   -1809.49523058 Ry
     estimated scf accuracy    <       0.13798604 Ry

     iteration # 11     ecut=    30.00 Ry     beta=0.70
     Davidson diagonalization with overlap
     ethr =  2.70E-05,  avg # of iterations =  1.0

     total cpu time spent up to now is       29.4 secs

     total energy              =   -1809.48187715 Ry
     Harris-Foulkes estimate   =   -1809.49204054 Ry
     estimated scf accuracy    <       0.10173860 Ry

     iteration # 12     ecut=    30.00 Ry     beta=0.70
     Davidson diagonalization with overlap
     ethr =  1.99E-05,  avg # of iterations = 10.0

     total cpu time spent up to now is       33.1 secs

     total energy              =   -1809.47678290 Ry
     Harris-Foulkes estimate   =   -1809.48804805 Ry
     estimated scf accuracy    <       0.05861941 Ry

     iteration # 13     ecut=    30.00 Ry     beta=0.70
     Davidson diagonalization with overlap
     ethr =  1.14E-05,  avg # of iterations =  4.0

     total cpu time spent up to now is       35.1 secs

     total energy              =   -1809.48143744 Ry
     Harris-Foulkes estimate   =   -1809.48474545 Ry
     estimated scf accuracy    <       0.02119414 Ry

     iteration # 14     ecut=    30.00 Ry     beta=0.70
     Davidson diagonalization with overlap
     ethr =  4.14E-06,  avg # of iterations =  3.0

     total cpu time spent up to now is       36.8 secs

     total energy              =   -1809.48241861 Ry
     Harris-Foulkes estimate   =   -1809.48487394 Ry
     estimated scf accuracy    <       0.02805530 Ry

     iteration # 15     ecut=    30.00 Ry     beta=0.70
     Davidson diagonalization with overlap
     ethr =  4.14E-06,  avg # of iterations =  1.0

     total cpu time spent up to now is       37.9 secs

     total energy              =   -1809.48330760 Ry
     Harris-Foulkes estimate   =   -1809.48343315 Ry
     estimated scf accuracy    <       0.00097404 Ry

     iteration # 16     ecut=    30.00 Ry     beta=0.70
     Davidson diagonalization with overlap
     ethr =  1.90E-07,  avg # of iterations =  2.0

     total cpu time spent up to now is       39.3 secs

     total energy              =   -1809.48337909 Ry
     Harris-Foulkes estimate   =   -1809.48341807 Ry
     estimated scf accuracy    <       0.00043135 Ry

     iteration # 17     ecut=    30.00 Ry     beta=0.70
     Davidson diagonalization with overlap
     ethr =  8.42E-08,  avg # of iterations =  2.0

     total cpu time spent up to now is       40.7 secs

     total energy              =   -1809.48339891 Ry
     Harris-Foulkes estimate   =   -1809.48339963 Ry
     estimated scf accuracy    <       0.00000439 Ry

     iteration # 18     ecut=    30.00 Ry     beta=0.70
     Davidson diagonalization with overlap
     ethr =  8.58E-10,  avg # of iterations =  3.0

     total cpu time spent up to now is       42.7 secs

     total energy              =   -1809.48339963 Ry
     Harris-Foulkes estimate   =   -1809.48339984 Ry
     estimated scf accuracy    <       0.00000144 Ry

     iteration # 19     ecut=    30.00 Ry     beta=0.70
     Davidson diagonalization with overlap
     ethr =  2.81E-10,  avg # of iterations =  3.0

     total cpu time spent up to now is       44.5 secs

     total energy              =   -1809.48339976 Ry
     Harris-Foulkes estimate   =   -1809.48339990 Ry
     estimated scf accuracy    <       0.00000062 Ry

     iteration # 20     ecut=    30.00 Ry     beta=0.70
     Davidson diagonalization with overlap
     ethr =  1.21E-10,  avg # of iterations =  2.0

     total cpu time spent up to now is       45.9 secs

     total energy              =   -1809.48339979 Ry
     Harris-Foulkes estimate   =   -1809.48339993 Ry
     estimated scf accuracy    <       0.00000101 Ry

     iteration # 21     ecut=    30.00 Ry     beta=0.70
     Davidson diagonalization with overlap
     ethr =  1.21E-10,  avg # of iterations =  2.0

     total cpu time spent up to now is       47.3 secs

     total energy              =   -1809.48339987 Ry
     Harris-Foulkes estimate   =   -1809.48339988 Ry
     estimated scf accuracy    <       0.00000007 Ry

     iteration # 22     ecut=    30.00 Ry     beta=0.70
     Davidson diagonalization with overlap
     ethr =  1.37E-11,  avg # of iterations =  3.0

     total cpu time spent up to now is       49.1 secs

     total energy              =   -1809.48339988 Ry
     Harris-Foulkes estimate   =   -1809.48339989 Ry
     estimated scf accuracy    <       0.00000007 Ry

     iteration # 23     ecut=    30.00 Ry     beta=0.70
     Davidson diagonalization with overlap
     ethr =  1.32E-11,  avg # of iterations =  2.0

     total cpu time spent up to now is       50.6 secs

     End of self-consistent calculation

          k = 0.0000 0.0000 0.0000 ( 22119 PWs)   bands (ev):

   -39.6601 -39.2375 -38.6619 -37.8694 -37.2449 -36.7350 -36.5751 -36.3676
   -36.0587 -35.7001 -35.5495 -34.6199 -34.4055 -33.9533 -33.4432 -33.3344
   -32.9317 -32.6119 -32.1200 -31.7733 -31.4317 -31.3152 -31.1232 -30.8643
   -30.5514 -30.3745 -30.3273 -29.8831 -29.7655 -29.5533 -29.4222 -29.3838
   -29.1707 -29.0860 -29.0006 -28.8529 -28.6768 -28.6482 -28.6296 -28.4813
   -28.3824 -28.2464 -28.1071 -27.7527 -27.6165 -27.4371 -27.3515 -27.1419
   -26.9437 -26.7324 -26.6607 -26.5214 -26.2515 -26.1144 -26.0112 -25.9067
   -25.7228 -25.6746 -25.6141 -25.5230 -25.3878 -25.2532 -24.9282 -24.3606
   -21.5705 -21.2060 -20.8127 -20.6308 -19.8754 -19.3239 -19.0915 -18.8691
   -18.7386 -18.6454 -18.3502 -18.2248 -18.1009 -17.9129 -17.7901 -17.4278
   -17.2814 -17.1986 -16.8241 -16.7118 -16.5701 -16.5391 -16.2882 -16.1331
   -16.0616 -15.8022 -15.5169 -15.4306 -15.3665 -15.2710 -15.1625 -14.9505
   -14.8574 -14.6282 -14.5376 -14.5230 -14.4666 -14.3254 -14.2197 -14.0700
   -13.9568 -13.9001 -13.8452 -13.7463 -13.5409 -13.4951 -13.3901 -13.3279
   -13.1476 -13.1143 -12.9480 -12.6597 -12.5510 -12.4107 -12.3178 -12.2511
   -12.1216 -12.0761 -11.9609 -11.8543 -11.6966 -11.5365 -11.0176 -10.8402
   -10.3686 -10.0584  -9.4745  -9.2997  -8.7171  -8.6551  -8.3699  -8.1284
    -8.0619  -7.8825  -7.8359  -7.7735  -7.6573  -7.3764  -7.2159  -7.1164
    -6.9992  -6.8747  -6.8003  -6.5114  -6.4686  -6.4310  -6.2075  -6.1924
    -6.0320  -5.9689  -5.8880  -5.7946  -5.6963  -5.5916  -5.5396  -5.5297
    -5.4287  -5.2366  -5.0167  -4.8955  -4.7590  -4.7180  -4.6770  -4.5243
    -4.4000  -4.3248  -4.2890  -4.2342  -4.1935  -4.0041  -3.9417  -3.7919
    -3.7076  -3.6442  -3.5531  -3.4455  -3.3697  -3.1810  -3.0857  -3.0125
    -2.9138  -2.8606  -2.8055  -2.5761  -2.5596  -2.4620  -2.4254  -2.3469
    -2.2567  -2.1412  -2.0984  -2.0000  -1.9031  -1.8160  -1.7331  -1.6710
    -1.5761  -1.5038  -1.2929  -1.2161  -1.1176  -1.0446  -0.9212  -0.8942
    -0.7938  -0.7417  -0.6511  -0.5472  -0.4448  -0.2113  -0.1784  -0.1134
     0.0124   0.1228   0.1433   0.2280   0.3678   0.4854   0.6254   0.6638
     0.9387   1.0063   1.0716   1.1733   1.2605   1.4320   1.5249   1.6120
     2.0353   2.2647   2.3762   2.5216   2.6220   2.6562   2.7126   2.9376
     2.9874   3.1267   3.1766   3.3891   3.4766   3.5088   3.7410   3.8249
     4.2494   4.3683   4.5064   4.6867   5.0604   5.2416   5.2890   5.4078
     5.5762   6.4071   6.6182   6.6987   6.8144   7.0919   7.3381   7.6105
     7.6902   7.7531   7.8957   7.9751   8.0412   8.2662   8.5949   8.7250
     8.8485   9.0631   9.1904   9.3741   9.5327   9.6773   9.8804  10.0131
    10.0769  10.2132  10.3194  10.5019  10.5975  10.6334  10.7954  10.8359
    10.9386  11.0503  11.1594  11.1978  11.2874  11.4289  11.4551  11.5957
    11.6534  11.7335  11.7532  11.8110  11.8578  12.0180  12.0333  12.1336
    12.2005  12.3038  12.3327

     the Fermi energy is     5.5384 ev

!    total energy              =   -1809.48339988 Ry
     Harris-Foulkes estimate   =   -1809.48339988 Ry
     estimated scf accuracy    <          1.2E-09 Ry

     The total energy is the sum of the following terms:

     one-electron contribution =  -12709.53036721 Ry
     hartree contribution      =    6528.98242165 Ry
     xc contribution           =    -631.82871938 Ry
     ewald contribution        =    5002.89348377 Ry
     smearing contrib. (-TS)   =      -0.00021871 Ry

     convergence has been achieved in  23 iterations

     Writing output data file pwscf.save
 
     init_run     :      0.57s CPU      0.64s WALL (       1 calls)
     electrons    :     48.28s CPU     49.87s WALL (       1 calls)

     Called by init_run:
     wfcinit      :      0.47s CPU      0.53s WALL (       1 calls)
     potinit      :      0.02s CPU      0.02s WALL (       1 calls)

     Called by electrons:
     c_bands      :     46.09s CPU     47.36s WALL (      23 calls)
     sum_band     :      1.83s CPU      1.88s WALL (      23 calls)
     v_of_rho     :      0.18s CPU      0.20s WALL (      24 calls)
     mix_rho      :      0.12s CPU      0.24s WALL (      23 calls)

     Called by c_bands:
     init_us_2    :      0.06s CPU      0.06s WALL (      47 calls)
     cegterg      :     45.96s CPU     47.16s WALL (      23 calls)

     Called by sum_band:

     Called by *egterg:
     h_psi        :      8.61s CPU      8.78s WALL (     100 calls)
     g_psi        :      0.07s CPU      0.07s WALL (      76 calls)
     cdiaghg      :     28.27s CPU     28.33s WALL (      99 calls)

     Called by h_psi:
     h_psi:pot    :      8.39s CPU      8.55s WALL (     100 calls)
     h_psi:calbec :      0.32s CPU      0.33s WALL (     100 calls)
     vloc_psi     :      7.80s CPU      7.95s WALL (     100 calls)
     add_vuspsi   :      0.27s CPU      0.28s WALL (     100 calls)

     General routines
     calbec       :      0.32s CPU      0.33s WALL (     100 calls)
     fft          :      0.10s CPU      0.11s WALL (     263 calls)
     fftw         :      8.65s CPU      8.84s WALL (   39353 calls)
     davcio       :      0.02s CPU      0.13s WALL (     368 calls)
 
     Parallel routines
     fft_scatter  :      2.94s CPU      3.04s WALL (   39616 calls)
 
     PWSCF        :    48.99s CPU        50.88s WALL

 
   This run was terminated on:   3:21:18   3Feb2018            

=------------------------------------------------------------------------------=
   JOB DONE.
=------------------------------------------------------------------------------=
