
     Program PWSCF v.6.0 (svn rev. 13079) starts on  3Feb2018 at  3:50:16 

     This program is part of the open-source Quantum ESPRESSO suite
     for quantum simulation of materials; please cite
         "P. Giannozzi et al., J. Phys.:Condens. Matter 21 395502 (2009);
          URL http://www.quantum-espresso.org", 
     in publications or presentations arising from this work. More details at
     http://www.quantum-espresso.org/quote

     Parallel version (MPI), running on    28 processors
     R & G space division:  proc/nbgrp/npool/nimage =      28
     Reading input from input/scf-bigwater-1/1437.in
Warning: card &IONS ignored
Warning: card     POT_EXTRAPOLATION='SECOND-ORDER' ignored
Warning: card     WFC_EXTRAPOLATION='SECOND-ORDER' ignored
Warning: card     ION_TEMPERATURE = 'ANDERSEN' ignored
Warning: card     TEMPW = 1000 ignored
Warning: card / ignored

     Current dimensions of program PWSCF are:
     Max number of different atomic species (ntypx) = 10
     Max number of k-points (npk) =  40000
     Max angular momentum in pseudopotentials (lmaxx) =  3

     Subspace diagonalization in iterative solution of the eigenvalue problem:
     a serial algorithm will be used

 
     Parallelization info
     --------------------
     sticks:   dense  smooth     PW     G-vecs:    dense   smooth      PW
     Min         136     136     33                 6338     6338     787
     Max         137     137     34                 6341     6341     792
     Sum        3809    3809    949               177509   177509   22119
 


     bravais-lattice index     =            1
     lattice parameter (alat)  =      20.0000  a.u.
     unit-cell volume          =    8000.0000 (a.u.)^3
     number of atoms/cell      =          192
     number of atomic types    =            2
     number of electrons       =       512.00
     number of Kohn-Sham states=          307
     kinetic-energy cutoff     =      30.0000  Ry
     charge density cutoff     =     120.0000  Ry
     convergence threshold     =      1.0E-08
     mixing beta               =       0.7000
     number of iterations used =            8  plain     mixing
     Exchange-correlation      = BLYP ( 1  3  1  3 0 0)

     celldm(1)=  20.000000  celldm(2)=   0.000000  celldm(3)=   0.000000
     celldm(4)=   0.000000  celldm(5)=   0.000000  celldm(6)=   0.000000

     crystal axes: (cart. coord. in units of alat)
               a(1) = (   1.000000   0.000000   0.000000 )  
               a(2) = (   0.000000   1.000000   0.000000 )  
               a(3) = (   0.000000   0.000000   1.000000 )  

     reciprocal axes: (cart. coord. in units 2 pi/alat)
               b(1) = (  1.000000  0.000000  0.000000 )  
               b(2) = (  0.000000  1.000000  0.000000 )  
               b(3) = (  0.000000  0.000000  1.000000 )  


     PseudoPot. # 1 for  H read from file:
     ./H.blyp-hgh.UPF
     MD5 check sum: c576e69559cde411e611be972c763230
     Pseudo is Norm-conserving, Zval =  1.0
     Generated in analytical, separable form
     Using radial grid of  929 points,  0 beta functions with: 

     PseudoPot. # 2 for  O read from file:
     ./O.blyp-hgh.UPF
     MD5 check sum: d0b7156309aa9befef28faac7bc56342
     Pseudo is Norm-conserving, Zval =  6.0
     Generated in analytical, separable form
     Using radial grid of 1095 points,  1 beta functions with: 
                l(1) =   0

     atomic species   valence    mass     pseudopotential
        H              1.00     1.01000      H( 1.00)
        O              6.00    16.00000      O( 1.00)

     No symmetry found



   Cartesian axes

     site n.     atom                  positions (alat units)
         1           O   tau(   1) = (  -0.2937812  -0.0899047   0.0009718  )
         2           O   tau(   2) = (   0.1874462  -0.0849962   0.3048151  )
         3           O   tau(   3) = (  -0.2826524   0.3604422  -0.2790143  )
         4           O   tau(   4) = (   0.1053456   0.1436166  -0.0321906  )
         5           O   tau(   5) = (  -0.2421040   0.0632536   0.2193348  )
         6           O   tau(   6) = (   0.0182924   0.2928865   0.3131517  )
         7           O   tau(   7) = (  -0.1045194  -0.2831821  -0.1302318  )
         8           O   tau(   8) = (   0.2213916   0.0458430   0.2410517  )
         9           O   tau(   9) = (  -0.1128452  -0.3355269   0.3109942  )
        10           O   tau(  10) = (   0.0878367  -0.1409434   0.1795886  )
        11           O   tau(  11) = (   0.1010768  -0.2808851   0.1012212  )
        12           O   tau(  12) = (  -0.1344426  -0.2103824   0.2656705  )
        13           O   tau(  13) = (  -0.1851196  -0.3411443   0.0077234  )
        14           O   tau(  14) = (  -0.1738590  -0.1898086  -0.2262890  )
        15           O   tau(  15) = (   0.1231983  -0.2344021  -0.0595371  )
        16           O   tau(  16) = (  -0.0602100   0.1474012  -0.0839319  )
        17           O   tau(  17) = (  -0.0719068  -0.1441531   0.0563194  )
        18           O   tau(  18) = (  -0.0119644  -0.2411220   0.1721794  )
        19           O   tau(  19) = (   0.2003602  -0.1920045  -0.1905790  )
        20           O   tau(  20) = (   0.2623639   0.2102716   0.0870066  )
        21           O   tau(  21) = (   0.2467486  -0.1992771   0.2263423  )
        22           O   tau(  22) = (  -0.1164113  -0.0542880  -0.1716646  )
        23           O   tau(  23) = (  -0.0675883   0.1666043  -0.2421271  )
        24           O   tau(  24) = (   0.2465670   0.0605748   0.0156287  )
        25           O   tau(  25) = (   0.1746641   0.0761509  -0.1821042  )
        26           O   tau(  26) = (  -0.2481923   0.1878920  -0.3119289  )
        27           O   tau(  27) = (   0.2440593  -0.2702865   0.0373887  )
        28           O   tau(  28) = (   0.0482194  -0.0243205  -0.3038753  )
        29           O   tau(  29) = (  -0.1451346   0.0340046  -0.2667650  )
        30           O   tau(  30) = (   0.0249526  -0.0431601   0.0888311  )
        31           O   tau(  31) = (   0.3041303  -0.1195222  -0.1696807  )
        32           O   tau(  32) = (   0.2025555  -0.0286656  -0.0586384  )
        33           O   tau(  33) = (  -0.0289725   0.2311534   0.1439614  )
        34           O   tau(  34) = (  -0.2390926  -0.0081494  -0.1356038  )
        35           O   tau(  35) = (   0.0027302  -0.2218800  -0.0315841  )
        36           O   tau(  36) = (   0.2922664   0.1551899  -0.3965158  )
        37           O   tau(  37) = (   0.1953594   0.2746344   0.2645942  )
        38           O   tau(  38) = (  -0.3179515   0.3030069  -0.1345410  )
        39           O   tau(  39) = (   0.0120856   0.0411344  -0.1245580  )
        40           O   tau(  40) = (  -0.2366096  -0.2159889  -0.0339794  )
        41           O   tau(  41) = (  -0.1502590   0.3333583   0.1186585  )
        42           O   tau(  42) = (  -0.1196678   0.1558085   0.2069158  )
        43           O   tau(  43) = (  -0.1396367  -0.0018031  -0.0002685  )
        44           O   tau(  44) = (  -0.0807575  -0.0592614   0.2509496  )
        45           O   tau(  45) = (   0.0589086   0.1041425   0.2669627  )
        46           O   tau(  46) = (  -0.2598828   0.1138510   0.0888614  )
        47           O   tau(  47) = (   0.1708146   0.2650807  -0.0882857  )
        48           O   tau(  48) = (   0.0545712  -0.2951554  -0.1705074  )
        49           O   tau(  49) = (  -0.2129437   0.2349254  -0.1918113  )
        50           O   tau(  50) = (   0.2969417   0.0757653   0.3672474  )
        51           O   tau(  51) = (  -0.0434773   0.0735709   0.1026993  )
        52           O   tau(  52) = (   0.0193133  -0.1090496  -0.1673129  )
        53           O   tau(  53) = (  -0.0115793  -0.1943064  -0.2802263  )
        54           O   tau(  54) = (   0.3405647  -0.2939775   0.2039964  )
        55           O   tau(  55) = (   0.1887917  -0.1425469   0.0748623  )
        56           O   tau(  56) = (   0.2939088  -0.0683525   0.1422738  )
        57           O   tau(  57) = (   0.0860328   0.2000300  -0.2233089  )
        58           O   tau(  58) = (  -0.0236230  -0.4037527   0.0192635  )
        59           O   tau(  59) = (  -0.2280901  -0.0816466  -0.3418221  )
        60           O   tau(  60) = (  -0.2362552   0.0848259  -0.0383236  )
        61           O   tau(  61) = (   0.2081566   0.2107524  -0.2602940  )
        62           O   tau(  62) = (   0.0703480  -0.0431303  -0.0352227  )
        63           O   tau(  63) = (  -0.2621855  -0.2083596   0.0927226  )
        64           O   tau(  64) = (   0.0947102   0.1186946   0.0978082  )
        65           H   tau(  65) = (  -0.2722721  -0.1071419  -0.0394507  )
        66           H   tau(  66) = (  -0.3039236  -0.1349651   0.0185968  )
        67           H   tau(  67) = (   0.1422742  -0.0661382   0.3109691  )
        68           H   tau(  68) = (   0.1801853  -0.1174134   0.2698183  )
        69           H   tau(  69) = (  -0.3052551   0.3246747  -0.2559562  )
        70           H   tau(  70) = (  -0.2372186   0.3701131  -0.2667226  )
        71           H   tau(  71) = (   0.1369334   0.1794341  -0.0211549  )
        72           H   tau(  72) = (   0.0793948   0.1668579  -0.0668398  )
        73           H   tau(  73) = (  -0.2564074   0.0242071   0.2449574  )
        74           H   tau(  74) = (  -0.2022783   0.0459491   0.1975404  )
        75           H   tau(  75) = (   0.0056758   0.3363107   0.3329844  )
        76           H   tau(  76) = (   0.0278523   0.2647968   0.3517232  )
        77           H   tau(  77) = (  -0.1462530  -0.2984135  -0.1518897  )
        78           H   tau(  78) = (  -0.1093948  -0.3152323  -0.0932170  )
        79           H   tau(  79) = (   0.1851849   0.0758300   0.2568618  )
        80           H   tau(  80) = (   0.1979305   0.0041479   0.2324851  )
        81           H   tau(  81) = (  -0.1392087  -0.3766351   0.3045206  )
        82           H   tau(  82) = (  -0.0661575  -0.3472286   0.3204855  )
        83           H   tau(  83) = (   0.0656397  -0.1054596   0.1532007  )
        84           H   tau(  84) = (   0.1264419  -0.1463799   0.1486055  )
        85           H   tau(  85) = (   0.0620931  -0.2778907   0.1308390  )
        86           H   tau(  86) = (   0.0911756  -0.2546091   0.0616165  )
        87           H   tau(  87) = (  -0.1175861  -0.2441807   0.2965539  )
        88           H   tau(  88) = (  -0.1240977  -0.2332066   0.2229908  )
        89           H   tau(  89) = (  -0.1891819  -0.3877238  -0.0051807  )
        90           H   tau(  90) = (  -0.2176906  -0.3183356  -0.0204207  )
        91           H   tau(  91) = (  -0.1493432  -0.1547927  -0.2033161  )
        92           H   tau(  92) = (  -0.1352535  -0.2173821  -0.2361222  )
        93           H   tau(  93) = (   0.1572254  -0.2075235  -0.0821211  )
        94           H   tau(  94) = (   0.0840214  -0.2053221  -0.0515306  )
        95           H   tau(  95) = (  -0.0836888   0.1726333  -0.1182695  )
        96           H   tau(  96) = (  -0.0509921   0.1759548  -0.0439054  )
        97           H   tau(  97) = (  -0.0966316  -0.1268681   0.0180810  )
        98           H   tau(  98) = (  -0.0392425  -0.1052723   0.0650874  )
        99           H   tau(  99) = (   0.0308073  -0.2204760   0.1581505  )
       100           H   tau( 100) = (  -0.0434596  -0.2374806   0.1351951  )
       101           H   tau( 101) = (   0.2015275  -0.2188183  -0.2305230  )
       102           H   tau( 102) = (   0.1875540  -0.1463542  -0.1944310  )
       103           H   tau( 103) = (   0.2558819   0.2578261   0.0887121  )
       104           H   tau( 104) = (   0.3114729   0.2016906   0.0884305  )
       105           H   tau( 105) = (   0.2823146  -0.1730752   0.2463830  )
       106           H   tau( 106) = (   0.2255225  -0.2270289   0.2606235  )
       107           H   tau( 107) = (  -0.0780961  -0.0842724  -0.1676613  )
       108           H   tau( 108) = (  -0.1003692  -0.0138973  -0.1947704  )
       109           H   tau( 109) = (  -0.0217810   0.1830421  -0.2380919  )
       110           H   tau( 110) = (  -0.0592203   0.1185484  -0.2387219  )
       111           H   tau( 111) = (   0.2718146   0.0996312   0.0002967  )
       112           H   tau( 112) = (   0.2275317   0.0751469   0.0581178  )
       113           H   tau( 113) = (   0.2105749   0.0846371  -0.1504459  )
       114           H   tau( 114) = (   0.1441741   0.1148500  -0.1882846  )
       115           H   tau( 115) = (  -0.2796951   0.1837554  -0.3528309  )
       116           H   tau( 116) = (  -0.2199006   0.1496484  -0.3209687  )
       117           H   tau( 117) = (   0.1979866  -0.2870961   0.0409513  )
       118           H   tau( 118) = (   0.2448336  -0.2356940   0.0032365  )
       119           H   tau( 119) = (   0.0109412  -0.0464666  -0.3288702  )
       120           H   tau( 120) = (   0.0515595   0.0203039  -0.3257455  )
       121           H   tau( 121) = (  -0.1496404  -0.0085894  -0.2899827  )
       122           H   tau( 122) = (  -0.1885676   0.0381818  -0.2448021  )
       123           H   tau( 123) = (   0.0146148   0.0051513   0.0868375  )
       124           H   tau( 124) = (   0.0464239  -0.0446723   0.0418918  )
       125           H   tau( 125) = (   0.2781074  -0.1066639  -0.2092823  )
       126           H   tau( 126) = (   0.2956160  -0.1657319  -0.1588529  )
       127           H   tau( 127) = (   0.2121033   0.0113085  -0.0292191  )
       128           H   tau( 128) = (   0.2393732  -0.0595321  -0.0459358  )
       129           H   tau( 129) = (  -0.0196369   0.2751484   0.1638170  )
       130           H   tau( 130) = (  -0.0722250   0.2126772   0.1636690  )
       131           H   tau( 131) = (  -0.2009629  -0.0393983  -0.1370295  )
       132           H   tau( 132) = (  -0.2788426  -0.0365209  -0.1402462  )
       133           H   tau( 133) = (  -0.0071431  -0.2698181  -0.0315586  )
       134           H   tau( 134) = (  -0.0317472  -0.2031377  -0.0006363  )
       135           H   tau( 135) = (   0.2880662   0.1843308  -0.4361080  )
       136           H   tau( 136) = (   0.3198709   0.1146612  -0.4058675  )
       137           H   tau( 137) = (   0.1534526   0.2934830   0.2480340  )
       138           H   tau( 138) = (   0.1873261   0.2845674   0.3122746  )
       139           H   tau( 139) = (  -0.2778228   0.2722712  -0.1408046  )
       140           H   tau( 140) = (  -0.3186695   0.3450781  -0.1109045  )
       141           H   tau( 141) = (  -0.0114675   0.0841319  -0.1185190  )
       142           H   tau( 142) = (   0.0548300   0.0517787  -0.1446526  )
       143           H   tau( 143) = (  -0.1938341  -0.1948170  -0.0190578  )
       144           H   tau( 144) = (  -0.2566291  -0.2222024   0.0130918  )
       145           H   tau( 145) = (  -0.1517062   0.2940133   0.0888882  )
       146           H   tau( 146) = (  -0.1875519   0.3257137   0.1500198  )
       147           H   tau( 147) = (  -0.1653658   0.1395004   0.2058644  )
       148           H   tau( 148) = (  -0.1105802   0.1547190   0.2543807  )
       149           H   tau( 149) = (  -0.1332143  -0.0222192  -0.0444637  )
       150           H   tau( 150) = (  -0.1819267  -0.0226162   0.0164861  )
       151           H   tau( 151) = (  -0.0696991  -0.0346476   0.2106086  )
       152           H   tau( 152) = (  -0.1280010  -0.0736638   0.2497622  )
       153           H   tau( 153) = (   0.0507757   0.1111309   0.2202109  )
       154           H   tau( 154) = (   0.0587511   0.1408715   0.2980629  )
       155           H   tau( 155) = (  -0.2842100   0.0744834   0.1042079  )
       156           H   tau( 156) = (  -0.2337284   0.0967550   0.0514089  )
       157           H   tau( 157) = (   0.1380329   0.2988224  -0.1036701  )
       158           H   tau( 158) = (   0.2116138   0.2925225  -0.0917127  )
       159           H   tau( 159) = (   0.0273512  -0.2619002  -0.1935330  )
       160           H   tau( 160) = (   0.0447395  -0.2813641  -0.1241911  )
       161           H   tau( 161) = (  -0.2378446   0.2160862  -0.2315290  )
       162           H   tau( 162) = (  -0.1788865   0.2006522  -0.1825063  )
       163           H   tau( 163) = (   0.2488045   0.0689866   0.3695073  )
       164           H   tau( 164) = (   0.3070558   0.0894999   0.3222671  )
       165           H   tau( 165) = (  -0.0848501   0.0988375   0.1004772  )
       166           H   tau( 166) = (  -0.0220804   0.0969180   0.1404109  )
       167           H   tau( 167) = (   0.0329305  -0.1073087  -0.1196890  )
       168           H   tau( 168) = (   0.0440787  -0.0707572  -0.1862523  )
       169           H   tau( 169) = (   0.0110598  -0.1762150  -0.2402014  )
       170           H   tau( 170) = (   0.0146519  -0.1741246  -0.3160276  )
       171           H   tau( 171) = (   0.3499764  -0.2968749   0.2526022  )
       172           H   tau( 172) = (   0.3154463  -0.2518409   0.2075220  )
       173           H   tau( 173) = (   0.1992021  -0.1900744   0.0787449  )
       174           H   tau( 174) = (   0.1566624  -0.1470348   0.0381758  )
       175           H   tau( 175) = (   0.3084581  -0.0817864   0.0972344  )
       176           H   tau( 176) = (   0.2604204  -0.0346042   0.1313221  )
       177           H   tau( 177) = (   0.1343069   0.2012876  -0.2399522  )
       178           H   tau( 178) = (   0.0774342   0.2316806  -0.1870935  )
       179           H   tau( 179) = (  -0.0123263  -0.4503837   0.0297972  )
       180           H   tau( 180) = (  -0.0314002  -0.3854431   0.0656215  )
       181           H   tau( 181) = (  -0.2257021  -0.1014651  -0.2973422  )
       182           H   tau( 182) = (  -0.2409686  -0.1198106  -0.3697499  )
       183           H   tau( 183) = (  -0.1877660   0.0814001  -0.0305960  )
       184           H   tau( 184) = (  -0.2445490   0.0537730  -0.0763736  )
       185           H   tau( 185) = (   0.2333067   0.2052478  -0.2182447  )
       186           H   tau( 186) = (   0.2295420   0.1976320  -0.3029008  )
       187           H   tau( 187) = (   0.1194613  -0.0427349  -0.0437898  )
       188           H   tau( 188) = (   0.0588922   0.0035102  -0.0456593  )
       189           H   tau( 189) = (  -0.2186893  -0.2290398   0.1065244  )
       190           H   tau( 190) = (  -0.2928162  -0.2401586   0.1144840  )
       191           H   tau( 191) = (   0.0787621   0.1609126   0.1156149  )
       192           H   tau( 192) = (   0.0896697   0.1261394   0.0485150  )

     number of k points=     1  Marzari-Vanderbilt smearing, width (Ry)=  0.0250
                       cart. coord. in units 2pi/alat
        k(    1) = (   0.0000000   0.0000000   0.0000000), wk =   2.0000000

     Dense  grid:   177509 G-vectors     FFT dimensions: (  72,  72,  72)

     Estimated max dynamical RAM per process >      67.80Mb

     Estimated total allocated dynamical RAM >    1898.40Mb

     Initial potential from superposition of free atoms
     Check: negative starting charge=   -0.682425

     starting charge  511.99856, renormalised to  512.00000

     negative rho (up, down):  6.824E-01 0.000E+00
     Starting wfc are  384 randomized atomic wfcs

     total cpu time spent up to now is        0.8 secs

     per-process dynamical memory:    45.9 Mb

     Self-consistent Calculation

     iteration #  1     ecut=    30.00 Ry     beta=0.70
     Davidson diagonalization with overlap
     ethr =  1.00E-02,  avg # of iterations =  8.0

     negative rho (up, down):  1.594E-01 0.000E+00

     total cpu time spent up to now is        9.1 secs

     total energy              =   -1800.10833699 Ry
     Harris-Foulkes estimate   =   -1827.32889041 Ry
     estimated scf accuracy    <      42.62182869 Ry

     iteration #  2     ecut=    30.00 Ry     beta=0.70
     Davidson diagonalization with overlap
     ethr =  8.32E-03,  avg # of iterations =  4.0

     negative rho (up, down):  1.408E-03 0.000E+00

     total cpu time spent up to now is       12.3 secs

     total energy              =   -1781.00931748 Ry
     Harris-Foulkes estimate   =   -1813.67157411 Ry
     estimated scf accuracy    <      71.31890970 Ry

     iteration #  3     ecut=    30.00 Ry     beta=0.70
     Davidson diagonalization with overlap
     ethr =  8.32E-03,  avg # of iterations =  5.0

     negative rho (up, down):  1.776E-05 0.000E+00

     total cpu time spent up to now is       16.2 secs

     total energy              =   -1797.88503397 Ry
     Harris-Foulkes estimate   =   -1816.84569980 Ry
     estimated scf accuracy    <      65.13563271 Ry

     iteration #  4     ecut=    30.00 Ry     beta=0.70
     Davidson diagonalization with overlap
     ethr =  8.32E-03,  avg # of iterations =  3.0

     total cpu time spent up to now is       18.1 secs

     total energy              =   -1807.88710782 Ry
     Harris-Foulkes estimate   =   -1810.32690910 Ry
     estimated scf accuracy    <       6.98885861 Ry

     iteration #  5     ecut=    30.00 Ry     beta=0.70
     Davidson diagonalization with overlap
     ethr =  1.37E-03,  avg # of iterations =  4.0

     total cpu time spent up to now is       20.3 secs

     total energy              =   -1807.64620074 Ry
     Harris-Foulkes estimate   =   -1808.30668236 Ry
     estimated scf accuracy    <       2.44883346 Ry

     iteration #  6     ecut=    30.00 Ry     beta=0.70
     Davidson diagonalization with overlap
     ethr =  4.78E-04,  avg # of iterations =  6.0

     total cpu time spent up to now is       23.0 secs

     total energy              =   -1807.47203888 Ry
     Harris-Foulkes estimate   =   -1807.74241813 Ry
     estimated scf accuracy    <       0.97144429 Ry

     iteration #  7     ecut=    30.00 Ry     beta=0.70
     Davidson diagonalization with overlap
     ethr =  1.90E-04,  avg # of iterations =  6.0

     total cpu time spent up to now is       25.8 secs

     total energy              =   -1807.47287737 Ry
     Harris-Foulkes estimate   =   -1807.57226348 Ry
     estimated scf accuracy    <       0.65674294 Ry

     iteration #  8     ecut=    30.00 Ry     beta=0.70
     Davidson diagonalization with overlap
     ethr =  1.28E-04,  avg # of iterations =  2.0

     total cpu time spent up to now is       27.2 secs

     total energy              =   -1807.52238700 Ry
     Harris-Foulkes estimate   =   -1807.52859641 Ry
     estimated scf accuracy    <       0.37684136 Ry

     iteration #  9     ecut=    30.00 Ry     beta=0.70
     Davidson diagonalization with overlap
     ethr =  7.36E-05,  avg # of iterations =  1.0

     total cpu time spent up to now is       28.4 secs

     total energy              =   -1807.48219969 Ry
     Harris-Foulkes estimate   =   -1807.52313497 Ry
     estimated scf accuracy    <       0.32249667 Ry

     iteration # 10     ecut=    30.00 Ry     beta=0.70
     Davidson diagonalization with overlap
     ethr =  6.30E-05,  avg # of iterations =  5.0

     total cpu time spent up to now is       30.8 secs

     total energy              =   -1807.46438387 Ry
     Harris-Foulkes estimate   =   -1807.51195566 Ry
     estimated scf accuracy    <       0.28209445 Ry

     iteration # 11     ecut=    30.00 Ry     beta=0.70
     Davidson diagonalization with overlap
     ethr =  5.51E-05,  avg # of iterations =  2.0

     total cpu time spent up to now is       32.2 secs

     total energy              =   -1807.47600849 Ry
     Harris-Foulkes estimate   =   -1807.49092467 Ry
     estimated scf accuracy    <       0.18243532 Ry

     iteration # 12     ecut=    30.00 Ry     beta=0.70
     Davidson diagonalization with overlap
     ethr =  3.56E-05,  avg # of iterations = 11.0

     total cpu time spent up to now is       36.2 secs

     total energy              =   -1807.46621827 Ry
     Harris-Foulkes estimate   =   -1807.48954969 Ry
     estimated scf accuracy    <       0.09472206 Ry

     iteration # 13     ecut=    30.00 Ry     beta=0.70
     Davidson diagonalization with overlap
     ethr =  1.85E-05,  avg # of iterations =  4.0

     total cpu time spent up to now is       38.4 secs

     total energy              =   -1807.47153152 Ry
     Harris-Foulkes estimate   =   -1807.48692976 Ry
     estimated scf accuracy    <       0.14277429 Ry

     iteration # 14     ecut=    30.00 Ry     beta=0.70
     Davidson diagonalization with overlap
     ethr =  1.85E-05,  avg # of iterations =  2.0

     total cpu time spent up to now is       39.8 secs

     total energy              =   -1807.47452743 Ry
     Harris-Foulkes estimate   =   -1807.47987445 Ry
     estimated scf accuracy    <       0.03283990 Ry

     iteration # 15     ecut=    30.00 Ry     beta=0.70
     Davidson diagonalization with overlap
     ethr =  6.41E-06,  avg # of iterations =  2.0

     total cpu time spent up to now is       41.3 secs

     total energy              =   -1807.47542113 Ry
     Harris-Foulkes estimate   =   -1807.47849188 Ry
     estimated scf accuracy    <       0.01849562 Ry

     iteration # 16     ecut=    30.00 Ry     beta=0.70
     Davidson diagonalization with overlap
     ethr =  3.61E-06,  avg # of iterations =  3.0

     total cpu time spent up to now is       43.0 secs

     total energy              =   -1807.47643711 Ry
     Harris-Foulkes estimate   =   -1807.47763007 Ry
     estimated scf accuracy    <       0.01385794 Ry

     iteration # 17     ecut=    30.00 Ry     beta=0.70
     Davidson diagonalization with overlap
     ethr =  2.71E-06,  avg # of iterations =  1.0

     total cpu time spent up to now is       44.1 secs

     total energy              =   -1807.47646591 Ry
     Harris-Foulkes estimate   =   -1807.47689098 Ry
     estimated scf accuracy    <       0.00286721 Ry

     iteration # 18     ecut=    30.00 Ry     beta=0.70
     Davidson diagonalization with overlap
     ethr =  5.60E-07,  avg # of iterations =  2.0

     total cpu time spent up to now is       45.5 secs

     total energy              =   -1807.47646628 Ry
     Harris-Foulkes estimate   =   -1807.47663299 Ry
     estimated scf accuracy    <       0.00092584 Ry

     iteration # 19     ecut=    30.00 Ry     beta=0.70
     Davidson diagonalization with overlap
     ethr =  1.81E-07,  avg # of iterations =  2.0

     total cpu time spent up to now is       46.9 secs

     total energy              =   -1807.47642008 Ry
     Harris-Foulkes estimate   =   -1807.47653826 Ry
     estimated scf accuracy    <       0.00040940 Ry

     iteration # 20     ecut=    30.00 Ry     beta=0.70
     Davidson diagonalization with overlap
     ethr =  8.00E-08,  avg # of iterations =  5.0

     total cpu time spent up to now is       49.9 secs

     total energy              =   -1807.47645056 Ry
     Harris-Foulkes estimate   =   -1807.47654041 Ry
     estimated scf accuracy    <       0.00029218 Ry

     iteration # 21     ecut=    30.00 Ry     beta=0.70
     Davidson diagonalization with overlap
     ethr =  5.71E-08,  avg # of iterations =  2.0

     total cpu time spent up to now is       51.4 secs

     total energy              =   -1807.47644876 Ry
     Harris-Foulkes estimate   =   -1807.47651325 Ry
     estimated scf accuracy    <       0.00036244 Ry

     iteration # 22     ecut=    30.00 Ry     beta=0.70
     Davidson diagonalization with overlap
     ethr =  5.71E-08,  avg # of iterations =  2.0

     total cpu time spent up to now is       52.8 secs

     total energy              =   -1807.47647891 Ry
     Harris-Foulkes estimate   =   -1807.47648288 Ry
     estimated scf accuracy    <       0.00001323 Ry

     iteration # 23     ecut=    30.00 Ry     beta=0.70
     Davidson diagonalization with overlap
     ethr =  2.58E-09,  avg # of iterations =  2.0

     total cpu time spent up to now is       54.3 secs

     total energy              =   -1807.47648025 Ry
     Harris-Foulkes estimate   =   -1807.47648111 Ry
     estimated scf accuracy    <       0.00000319 Ry

     iteration # 24     ecut=    30.00 Ry     beta=0.70
     Davidson diagonalization with overlap
     ethr =  6.23E-10,  avg # of iterations =  2.0

     total cpu time spent up to now is       55.8 secs

     total energy              =   -1807.47647999 Ry
     Harris-Foulkes estimate   =   -1807.47648152 Ry
     estimated scf accuracy    <       0.00001600 Ry

     iteration # 25     ecut=    30.00 Ry     beta=0.70
     Davidson diagonalization with overlap
     ethr =  6.23E-10,  avg # of iterations =  2.0

     total cpu time spent up to now is       57.2 secs

     total energy              =   -1807.47648071 Ry
     Harris-Foulkes estimate   =   -1807.47648093 Ry
     estimated scf accuracy    <       0.00000129 Ry

     iteration # 26     ecut=    30.00 Ry     beta=0.70
     Davidson diagonalization with overlap
     ethr =  2.52E-10,  avg # of iterations =  2.0

     total cpu time spent up to now is       58.6 secs

     total energy              =   -1807.47648082 Ry
     Harris-Foulkes estimate   =   -1807.47648084 Ry
     estimated scf accuracy    <       0.00000006 Ry

     iteration # 27     ecut=    30.00 Ry     beta=0.70
     Davidson diagonalization with overlap
     ethr =  1.24E-11,  avg # of iterations =  2.0

     total cpu time spent up to now is       60.1 secs

     total energy              =   -1807.47648083 Ry
     Harris-Foulkes estimate   =   -1807.47648083 Ry
     estimated scf accuracy    <       0.00000006 Ry

     iteration # 28     ecut=    30.00 Ry     beta=0.70
     Davidson diagonalization with overlap
     ethr =  1.19E-11,  avg # of iterations =  2.0

     total cpu time spent up to now is       61.5 secs

     total energy              =   -1807.47648083 Ry
     Harris-Foulkes estimate   =   -1807.47648084 Ry
     estimated scf accuracy    <       0.00000006 Ry

     iteration # 29     ecut=    30.00 Ry     beta=0.70
     Davidson diagonalization with overlap
     ethr =  1.19E-11,  avg # of iterations =  2.0

     total cpu time spent up to now is       62.9 secs

     total energy              =   -1807.47648083 Ry
     Harris-Foulkes estimate   =   -1807.47648083 Ry
     estimated scf accuracy    <       0.00000002 Ry

     iteration # 30     ecut=    30.00 Ry     beta=0.70
     Davidson diagonalization with overlap
     ethr =  2.96E-12,  avg # of iterations =  1.0

     total cpu time spent up to now is       64.1 secs

     End of self-consistent calculation

          k = 0.0000 0.0000 0.0000 ( 22119 PWs)   bands (ev):

   -40.1045 -39.3963 -38.8999 -38.5344 -37.2591 -36.8581 -36.5920 -36.5732
   -35.8869 -35.4006 -35.1807 -34.8550 -34.6717 -33.9024 -33.8602 -33.3634
   -33.1490 -32.9340 -32.4187 -32.1177 -31.9099 -31.7832 -31.5184 -31.1035
   -30.7878 -30.5013 -30.3601 -30.0618 -29.9380 -29.8323 -29.6565 -29.3810
   -29.2520 -29.0580 -28.7168 -28.6259 -28.6070 -28.5075 -28.3714 -28.1586
   -28.1341 -28.0225 -27.8873 -27.7781 -27.6378 -27.5941 -27.4515 -27.3143
   -27.0786 -26.9903 -26.8013 -26.5139 -26.4613 -26.3217 -26.0767 -25.8981
   -25.6872 -25.5402 -25.4976 -25.4184 -25.1678 -24.9089 -24.3062 -23.7524
   -21.3017 -21.1152 -20.8771 -20.7486 -20.0753 -19.7647 -19.5948 -19.4083
   -19.1195 -18.7124 -18.3990 -18.3089 -18.2462 -17.9927 -17.9273 -17.5443
   -17.0525 -16.9312 -16.7865 -16.5872 -16.5315 -16.4192 -16.3010 -16.2288
   -16.1599 -15.8914 -15.8589 -15.7809 -15.6038 -15.5316 -15.4639 -15.2572
   -15.1607 -14.9253 -14.9042 -14.8570 -14.7016 -14.5705 -14.4976 -14.3226
   -14.1658 -14.0294 -13.9294 -13.8595 -13.6980 -13.4857 -13.3367 -13.2858
   -13.1728 -13.1327 -13.0728 -13.0244 -12.9466 -12.8529 -12.6935 -12.3632
   -12.3176 -12.2576 -12.1808 -11.7247 -11.4956 -11.4782 -11.1451 -10.7691
   -10.1521  -9.9264  -9.4424  -9.2533  -9.0391  -8.9457  -8.5238  -8.2577
    -8.2412  -8.1486  -8.0863  -7.8576  -7.7579  -7.6635  -7.6123  -7.2351
    -7.1338  -6.9164  -6.8358  -6.6985  -6.5554  -6.4683  -6.3030  -6.2356
    -6.1322  -5.9457  -5.9340  -5.7546  -5.7066  -5.6544  -5.4850  -5.4664
    -5.3478  -5.2099  -5.1850  -5.0631  -4.9632  -4.8495  -4.6759  -4.5730
    -4.5544  -4.3981  -4.3488  -4.2817  -4.1221  -4.0399  -3.9172  -3.8486
    -3.6251  -3.6191  -3.5781  -3.5219  -3.3530  -3.2040  -3.1684  -3.0428
    -2.9826  -2.7335  -2.6567  -2.6116  -2.5506  -2.5266  -2.5022  -2.3416
    -2.2084  -2.1030  -2.0489  -2.0167  -1.8793  -1.7912  -1.7138  -1.6314
    -1.6257  -1.5248  -1.4149  -1.2607  -1.1854  -1.0789  -1.0055  -0.9574
    -0.8672  -0.7919  -0.7262  -0.6046  -0.5005  -0.3329  -0.2749  -0.1583
    -0.0248   0.0301   0.1686   0.2723   0.3282   0.5306   0.5605   0.7515
     0.9272   0.9998   1.1643   1.2846   1.3188   1.4744   1.7055   1.7547
     2.1649   2.2044   2.2926   2.3515   2.4922   2.6111   2.7746   2.8853
     2.9796   3.2658   3.3250   3.4748   3.6439   3.8006   4.0598   4.2633
     4.3351   4.5709   4.7591   5.0426   5.1300   5.2608   5.3461   5.3980
     5.5345   6.2928   6.5654   6.6837   6.8647   7.0180   7.3058   7.5494
     7.6252   7.7574   7.8878   7.9559   8.1276   8.1981   8.5462   8.6676
     8.8148   9.0861   9.1929   9.3576   9.5004   9.6725   9.7931   9.9547
    10.1173  10.2148  10.2702  10.4979  10.5589  10.7034  10.7368  10.8046
    10.8738  11.0954  11.1689  11.1806  11.2637  11.3918  11.4296  11.5592
    11.5812  11.6807  11.7296  11.7679  11.8194  11.9588  12.0390  12.0587
    12.1901  12.2836  12.3174

     the Fermi energy is     5.5311 ev

!    total energy              =   -1807.47648083 Ry
     Harris-Foulkes estimate   =   -1807.47648083 Ry
     estimated scf accuracy    <          2.1E-09 Ry

     The total energy is the sum of the following terms:

     one-electron contribution =  -12716.10922131 Ry
     hartree contribution      =    6531.35503838 Ry
     xc contribution           =    -632.00281969 Ry
     ewald contribution        =    5009.27691303 Ry
     smearing contrib. (-TS)   =       0.00360876 Ry

     convergence has been achieved in  30 iterations

     Writing output data file pwscf.save
 
     init_run     :      0.58s CPU      0.65s WALL (       1 calls)
     electrons    :     61.18s CPU     63.31s WALL (       1 calls)

     Called by init_run:
     wfcinit      :      0.48s CPU      0.55s WALL (       1 calls)
     potinit      :      0.02s CPU      0.02s WALL (       1 calls)

     Called by electrons:
     c_bands      :     58.19s CPU     59.96s WALL (      30 calls)
     sum_band     :      2.44s CPU      2.50s WALL (      30 calls)
     v_of_rho     :      0.25s CPU      0.26s WALL (      31 calls)
     mix_rho      :      0.22s CPU      0.39s WALL (      30 calls)

     Called by c_bands:
     init_us_2    :      0.08s CPU      0.08s WALL (      61 calls)
     cegterg      :     58.04s CPU     59.74s WALL (      30 calls)

     Called by sum_band:

     Called by *egterg:
     h_psi        :     10.99s CPU     11.17s WALL (     128 calls)
     g_psi        :      0.09s CPU      0.09s WALL (      97 calls)
     cdiaghg      :     35.11s CPU     35.29s WALL (     127 calls)

     Called by h_psi:
     h_psi:pot    :     10.72s CPU     10.90s WALL (     128 calls)
     h_psi:calbec :      0.39s CPU      0.40s WALL (     128 calls)
     vloc_psi     :      9.97s CPU     10.14s WALL (     128 calls)
     add_vuspsi   :      0.35s CPU      0.36s WALL (     128 calls)

     General routines
     calbec       :      0.39s CPU      0.40s WALL (     128 calls)
     fft          :      0.14s CPU      0.14s WALL (     340 calls)
     fftw         :     11.17s CPU     11.38s WALL (   50380 calls)
     davcio       :      0.03s CPU      0.19s WALL (     508 calls)
 
     Parallel routines
     fft_scatter  :      3.85s CPU      3.94s WALL (   50720 calls)
 
     PWSCF        :  1m 1.94s CPU     1m 4.39s WALL

 
   This run was terminated on:   3:51:20   3Feb2018            

=------------------------------------------------------------------------------=
   JOB DONE.
=------------------------------------------------------------------------------=
