
     Program PWSCF v.6.0 (svn rev. 13079) starts on  3Feb2018 at  4:25:49 

     This program is part of the open-source Quantum ESPRESSO suite
     for quantum simulation of materials; please cite
         "P. Giannozzi et al., J. Phys.:Condens. Matter 21 395502 (2009);
          URL http://www.quantum-espresso.org", 
     in publications or presentations arising from this work. More details at
     http://www.quantum-espresso.org/quote

     Parallel version (MPI), running on    28 processors
     R & G space division:  proc/nbgrp/npool/nimage =      28
     Reading input from input/scf-bigwater-1/1469.in
Warning: card &IONS ignored
Warning: card     POT_EXTRAPOLATION='SECOND-ORDER' ignored
Warning: card     WFC_EXTRAPOLATION='SECOND-ORDER' ignored
Warning: card     ION_TEMPERATURE = 'ANDERSEN' ignored
Warning: card     TEMPW = 1000 ignored
Warning: card / ignored

     Current dimensions of program PWSCF are:
     Max number of different atomic species (ntypx) = 10
     Max number of k-points (npk) =  40000
     Max angular momentum in pseudopotentials (lmaxx) =  3

     Subspace diagonalization in iterative solution of the eigenvalue problem:
     a serial algorithm will be used

 
     Parallelization info
     --------------------
     sticks:   dense  smooth     PW     G-vecs:    dense   smooth      PW
     Min         136     136     33                 6338     6338     787
     Max         137     137     34                 6341     6341     792
     Sum        3809    3809    949               177509   177509   22119
 


     bravais-lattice index     =            1
     lattice parameter (alat)  =      20.0000  a.u.
     unit-cell volume          =    8000.0000 (a.u.)^3
     number of atoms/cell      =          192
     number of atomic types    =            2
     number of electrons       =       512.00
     number of Kohn-Sham states=          307
     kinetic-energy cutoff     =      30.0000  Ry
     charge density cutoff     =     120.0000  Ry
     convergence threshold     =      1.0E-08
     mixing beta               =       0.7000
     number of iterations used =            8  plain     mixing
     Exchange-correlation      = BLYP ( 1  3  1  3 0 0)

     celldm(1)=  20.000000  celldm(2)=   0.000000  celldm(3)=   0.000000
     celldm(4)=   0.000000  celldm(5)=   0.000000  celldm(6)=   0.000000

     crystal axes: (cart. coord. in units of alat)
               a(1) = (   1.000000   0.000000   0.000000 )  
               a(2) = (   0.000000   1.000000   0.000000 )  
               a(3) = (   0.000000   0.000000   1.000000 )  

     reciprocal axes: (cart. coord. in units 2 pi/alat)
               b(1) = (  1.000000  0.000000  0.000000 )  
               b(2) = (  0.000000  1.000000  0.000000 )  
               b(3) = (  0.000000  0.000000  1.000000 )  


     PseudoPot. # 1 for  H read from file:
     ./H.blyp-hgh.UPF
     MD5 check sum: c576e69559cde411e611be972c763230
     Pseudo is Norm-conserving, Zval =  1.0
     Generated in analytical, separable form
     Using radial grid of  929 points,  0 beta functions with: 

     PseudoPot. # 2 for  O read from file:
     ./O.blyp-hgh.UPF
     MD5 check sum: d0b7156309aa9befef28faac7bc56342
     Pseudo is Norm-conserving, Zval =  6.0
     Generated in analytical, separable form
     Using radial grid of 1095 points,  1 beta functions with: 
                l(1) =   0

     atomic species   valence    mass     pseudopotential
        H              1.00     1.01000      H( 1.00)
        O              6.00    16.00000      O( 1.00)

     No symmetry found



   Cartesian axes

     site n.     atom                  positions (alat units)
         1           O   tau(   1) = (  -0.2963379  -0.0908608   0.0021495  )
         2           O   tau(   2) = (   0.1881940  -0.0814235   0.3034554  )
         3           O   tau(   3) = (  -0.2837383   0.3628967  -0.2771436  )
         4           O   tau(   4) = (   0.1061363   0.1484141  -0.0297575  )
         5           O   tau(   5) = (  -0.2399919   0.0621766   0.2195095  )
         6           O   tau(   6) = (   0.0179994   0.2901824   0.3117575  )
         7           O   tau(   7) = (  -0.1115426  -0.2839903  -0.1300603  )
         8           O   tau(   8) = (   0.2239104   0.0414506   0.2390029  )
         9           O   tau(   9) = (  -0.1102756  -0.3344193   0.3149077  )
        10           O   tau(  10) = (   0.0891948  -0.1445942   0.1799083  )
        11           O   tau(  11) = (   0.0980455  -0.2782439   0.0989725  )
        12           O   tau(  12) = (  -0.1324637  -0.2119216   0.2649319  )
        13           O   tau(  13) = (  -0.1812242  -0.3430979   0.0069418  )
        14           O   tau(  14) = (  -0.1715779  -0.1877371  -0.2263965  )
        15           O   tau(  15) = (   0.1238008  -0.2317172  -0.0550784  )
        16           O   tau(  16) = (  -0.0608385   0.1472092  -0.0870980  )
        17           O   tau(  17) = (  -0.0737876  -0.1431918   0.0537055  )
        18           O   tau(  18) = (  -0.0129329  -0.2412788   0.1700473  )
        19           O   tau(  19) = (   0.1965043  -0.1924521  -0.1870851  )
        20           O   tau(  20) = (   0.2656697   0.2087799   0.0851150  )
        21           O   tau(  21) = (   0.2434799  -0.1979442   0.2281543  )
        22           O   tau(  22) = (  -0.1145275  -0.0512226  -0.1740037  )
        23           O   tau(  23) = (  -0.0685801   0.1663866  -0.2409065  )
        24           O   tau(  24) = (   0.2495010   0.0589893   0.0140351  )
        25           O   tau(  25) = (   0.1783937   0.0766056  -0.1839599  )
        26           O   tau(  26) = (  -0.2444510   0.1899763  -0.3151156  )
        27           O   tau(  27) = (   0.2438802  -0.2697462   0.0354807  )
        28           O   tau(  28) = (   0.0514169  -0.0237035  -0.3017392  )
        29           O   tau(  29) = (  -0.1454563   0.0356446  -0.2661399  )
        30           O   tau(  30) = (   0.0251844  -0.0432867   0.0881342  )
        31           O   tau(  31) = (   0.3054246  -0.1199872  -0.1688569  )
        32           O   tau(  32) = (   0.2023706  -0.0322357  -0.0577157  )
        33           O   tau(  33) = (  -0.0325722   0.2340009   0.1407620  )
        34           O   tau(  34) = (  -0.2395557  -0.0078262  -0.1338052  )
        35           O   tau(  35) = (   0.0036118  -0.2239764  -0.0285624  )
        36           O   tau(  36) = (   0.2906147   0.1526740  -0.4005519  )
        37           O   tau(  37) = (   0.1909615   0.2716768   0.2616251  )
        38           O   tau(  38) = (  -0.3200192   0.3040782  -0.1387782  )
        39           O   tau(  39) = (   0.0147725   0.0368387  -0.1249813  )
        40           O   tau(  40) = (  -0.2363284  -0.2174447  -0.0347987  )
        41           O   tau(  41) = (  -0.1500122   0.3382943   0.1187949  )
        42           O   tau(  42) = (  -0.1190785   0.1567323   0.2133098  )
        43           O   tau(  43) = (  -0.1436415   0.0021924   0.0031718  )
        44           O   tau(  44) = (  -0.0797376  -0.0561639   0.2485474  )
        45           O   tau(  45) = (   0.0623756   0.1012377   0.2660658  )
        46           O   tau(  46) = (  -0.2642054   0.1100146   0.0881857  )
        47           O   tau(  47) = (   0.1709939   0.2617254  -0.0872531  )
        48           O   tau(  48) = (   0.0567060  -0.2936229  -0.1685183  )
        49           O   tau(  49) = (  -0.2183762   0.2354567  -0.1940412  )
        50           O   tau(  50) = (   0.2978836   0.0767058   0.3724930  )
        51           O   tau(  51) = (  -0.0389321   0.0761442   0.1018709  )
        52           O   tau(  52) = (   0.0220706  -0.1108450  -0.1653206  )
        53           O   tau(  53) = (  -0.0132429  -0.1956623  -0.2793670  )
        54           O   tau(  54) = (   0.3389749  -0.2914496   0.2050788  )
        55           O   tau(  55) = (   0.1849571  -0.1427250   0.0745764  )
        56           O   tau(  56) = (   0.2960367  -0.0649271   0.1442312  )
        57           O   tau(  57) = (   0.0839568   0.1983359  -0.2255736  )
        58           O   tau(  58) = (  -0.0164763  -0.4068633   0.0178209  )
        59           O   tau(  59) = (  -0.2296646  -0.0856198  -0.3395327  )
        60           O   tau(  60) = (  -0.2357188   0.0900656  -0.0396419  )
        61           O   tau(  61) = (   0.2063618   0.2118162  -0.2581757  )
        62           O   tau(  62) = (   0.0696245  -0.0430073  -0.0357292  )
        63           O   tau(  63) = (  -0.2628109  -0.2085823   0.0912043  )
        64           O   tau(  64) = (   0.0927672   0.1168548   0.0980917  )
        65           H   tau(  65) = (  -0.2736488  -0.1030855  -0.0398570  )
        66           H   tau(  66) = (  -0.3069637  -0.1362880   0.0177891  )
        67           H   tau(  67) = (   0.1427780  -0.0622651   0.3088405  )
        68           H   tau(  68) = (   0.1841395  -0.1144210   0.2661598  )
        69           H   tau(  69) = (  -0.2975551   0.3233167  -0.2514221  )
        70           H   tau(  70) = (  -0.2379994   0.3725100  -0.2606663  )
        71           H   tau(  71) = (   0.1407583   0.1807758  -0.0169821  )
        72           H   tau(  72) = (   0.0904778   0.1652251  -0.0732680  )
        73           H   tau(  73) = (  -0.2525536   0.0222884   0.2462111  )
        74           H   tau(  74) = (  -0.2066676   0.0421732   0.1902515  )
        75           H   tau(  75) = (   0.0126814   0.3374771   0.3271433  )
        76           H   tau(  76) = (   0.0340251   0.2591005   0.3466092  )
        77           H   tau(  77) = (  -0.1487568  -0.2947633  -0.1595379  )
        78           H   tau(  78) = (  -0.1149255  -0.3047429  -0.0860200  )
        79           H   tau(  79) = (   0.1992357   0.0736958   0.2650715  )
        80           H   tau(  80) = (   0.2012453  -0.0022579   0.2445047  )
        81           H   tau(  81) = (  -0.1364461  -0.3733477   0.3039696  )
        82           H   tau(  82) = (  -0.0636765  -0.3451502   0.3269939  )
        83           H   tau(  83) = (   0.0642211  -0.1066794   0.1572062  )
        84           H   tau(  84) = (   0.1299230  -0.1452451   0.1525419  )
        85           H   tau(  85) = (   0.0616344  -0.2784721   0.1316026  )
        86           H   tau(  86) = (   0.0845091  -0.2528448   0.0593913  )
        87           H   tau(  87) = (  -0.1202939  -0.2529082   0.2912860  )
        88           H   tau(  88) = (  -0.1241832  -0.2358101   0.2237042  )
        89           H   tau(  89) = (  -0.1866878  -0.3897261  -0.0077611  )
        90           H   tau(  90) = (  -0.2140954  -0.3154570  -0.0176704  )
        91           H   tau(  91) = (  -0.1535588  -0.1517113  -0.1978875  )
        92           H   tau(  92) = (  -0.1349114  -0.2173824  -0.2396153  )
        93           H   tau(  93) = (   0.1607552  -0.2105818  -0.0780621  )
        94           H   tau(  94) = (   0.0825716  -0.2053405  -0.0495358  )
        95           H   tau(  95) = (  -0.0830484   0.1728174  -0.1210165  )
        96           H   tau(  96) = (  -0.0445547   0.1770571  -0.0505878  )
        97           H   tau(  97) = (  -0.0995008  -0.1253877   0.0159445  )
        98           H   tau(  98) = (  -0.0405442  -0.1074809   0.0591191  )
        99           H   tau(  99) = (   0.0262688  -0.2113541   0.1616509  )
       100           H   tau( 100) = (  -0.0458222  -0.2364202   0.1337568  )
       101           H   tau( 101) = (   0.1812275  -0.2169233  -0.2281322  )
       102           H   tau( 102) = (   0.1808223  -0.1459165  -0.1936406  )
       103           H   tau( 103) = (   0.2667246   0.2580233   0.0802254  )
       104           H   tau( 104) = (   0.3120637   0.1972226   0.0757765  )
       105           H   tau( 105) = (   0.2814131  -0.1723148   0.2456847  )
       106           H   tau( 106) = (   0.2395773  -0.2337366   0.2625030  )
       107           H   tau( 107) = (  -0.0711878  -0.0758963  -0.1715273  )
       108           H   tau( 108) = (  -0.0994475  -0.0098901  -0.1961399  )
       109           H   tau( 109) = (  -0.0204095   0.1756277  -0.2364747  )
       110           H   tau( 110) = (  -0.0667095   0.1175501  -0.2469064  )
       111           H   tau( 111) = (   0.2710392   0.0952260  -0.0111465  )
       112           H   tau( 112) = (   0.2239289   0.0812674   0.0496094  )
       113           H   tau( 113) = (   0.2060760   0.0839159  -0.1442116  )
       114           H   tau( 114) = (   0.1458585   0.1117574  -0.1888906  )
       115           H   tau( 115) = (  -0.2820395   0.1917459  -0.3500096  )
       116           H   tau( 116) = (  -0.2206236   0.1479235  -0.3222612  )
       117           H   tau( 117) = (   0.1979573  -0.2824508   0.0493068  )
       118           H   tau( 118) = (   0.2353988  -0.2424159  -0.0042743  )
       119           H   tau( 119) = (   0.0157993  -0.0363914  -0.3321080  )
       120           H   tau( 120) = (   0.0583224   0.0233539  -0.3150908  )
       121           H   tau( 121) = (  -0.1549729  -0.0051455  -0.2913972  )
       122           H   tau( 122) = (  -0.1862151   0.0420652  -0.2391071  )
       123           H   tau( 123) = (   0.0045553   0.0018066   0.0937424  )
       124           H   tau( 124) = (   0.0408494  -0.0397226   0.0413034  )
       125           H   tau( 125) = (   0.2828828  -0.1082012  -0.2097314  )
       126           H   tau( 126) = (   0.2875049  -0.1648734  -0.1598767  )
       127           H   tau( 127) = (   0.2130981   0.0117861  -0.0370135  )
       128           H   tau( 128) = (   0.2370749  -0.0608878  -0.0378462  )
       129           H   tau( 129) = (  -0.0323213   0.2800132   0.1587356  )
       130           H   tau( 130) = (  -0.0667234   0.2132147   0.1679733  )
       131           H   tau( 131) = (  -0.1977948  -0.0337481  -0.1329243  )
       132           H   tau( 132) = (  -0.2741793  -0.0428740  -0.1406737  )
       133           H   tau( 133) = (  -0.0081622  -0.2712178  -0.0273469  )
       134           H   tau( 134) = (  -0.0295739  -0.2004091  -0.0002334  )
       135           H   tau( 135) = (   0.2857712   0.1696114  -0.4468274  )
       136           H   tau( 136) = (   0.3184194   0.1125024  -0.4020814  )
       137           H   tau( 137) = (   0.1498142   0.2869063   0.2399665  )
       138           H   tau( 138) = (   0.1857232   0.2886811   0.3067338  )
       139           H   tau( 139) = (  -0.2760642   0.2838316  -0.1472889  )
       140           H   tau( 140) = (  -0.3205377   0.3388389  -0.1033303  )
       141           H   tau( 141) = (  -0.0080102   0.0808778  -0.1188472  )
       142           H   tau( 142) = (   0.0585538   0.0437994  -0.1458441  )
       143           H   tau( 143) = (  -0.2029791  -0.1860447  -0.0208874  )
       144           H   tau( 144) = (  -0.2577853  -0.2347235   0.0056565  )
       145           H   tau( 145) = (  -0.1520345   0.2992759   0.0888588  )
       146           H   tau( 146) = (  -0.1861726   0.3271090   0.1503099  )
       147           H   tau( 147) = (  -0.1653477   0.1423396   0.2077299  )
       148           H   tau( 148) = (  -0.1086197   0.1562787   0.2616789  )
       149           H   tau( 149) = (  -0.1321747  -0.0131471  -0.0422715  )
       150           H   tau( 150) = (  -0.1790943  -0.0299329   0.0123456  )
       151           H   tau( 151) = (  -0.0690261  -0.0406830   0.2032608  )
       152           H   tau( 152) = (  -0.1252449  -0.0741586   0.2474834  )
       153           H   tau( 153) = (   0.0605116   0.1215036   0.2201581  )
       154           H   tau( 154) = (   0.0745479   0.1363313   0.2989106  )
       155           H   tau( 155) = (  -0.2888110   0.0725785   0.1081938  )
       156           H   tau( 156) = (  -0.2357355   0.0897883   0.0539417  )
       157           H   tau( 157) = (   0.1359004   0.2946142  -0.0965793  )
       158           H   tau( 158) = (   0.2115520   0.2880932  -0.0917084  )
       159           H   tau( 159) = (   0.0199502  -0.2671323  -0.1878078  )
       160           H   tau( 160) = (   0.0360555  -0.2940004  -0.1239586  )
       161           H   tau( 161) = (  -0.2453149   0.2200060  -0.2317039  )
       162           H   tau( 162) = (  -0.1895012   0.1990708  -0.1802503  )
       163           H   tau( 163) = (   0.2516436   0.0607418   0.3666718  )
       164           H   tau( 164) = (   0.3077882   0.0924336   0.3275527  )
       165           H   tau( 165) = (  -0.0805600   0.0968278   0.0882378  )
       166           H   tau( 166) = (  -0.0248492   0.1011813   0.1419948  )
       167           H   tau( 167) = (   0.0301076  -0.1090775  -0.1174855  )
       168           H   tau( 168) = (   0.0343917  -0.0651257  -0.1792733  )
       169           H   tau( 169) = (   0.0140777  -0.1805873  -0.2409669  )
       170           H   tau( 170) = (   0.0112356  -0.1763608  -0.3172617  )
       171           H   tau( 171) = (   0.3545515  -0.3004557   0.2508583  )
       172           H   tau( 172) = (   0.3092840  -0.2518468   0.2050601  )
       173           H   tau( 173) = (   0.2027301  -0.1873579   0.0874899  )
       174           H   tau( 174) = (   0.1512615  -0.1513951   0.0400523  )
       175           H   tau( 175) = (   0.2953943  -0.0811730   0.0980180  )
       176           H   tau( 176) = (   0.2580590  -0.0335512   0.1422559  )
       177           H   tau( 177) = (   0.1334925   0.1997812  -0.2339071  )
       178           H   tau( 178) = (   0.0748402   0.2272450  -0.1863242  )
       179           H   tau( 179) = (  -0.0009173  -0.4525031   0.0252758  )
       180           H   tau( 180) = (  -0.0221396  -0.3900256   0.0652273  )
       181           H   tau( 181) = (  -0.2269841  -0.1164659  -0.3005222  )
       182           H   tau( 182) = (  -0.2393867  -0.1143490  -0.3780171  )
       183           H   tau( 183) = (  -0.1904332   0.0803708  -0.0229033  )
       184           H   tau( 184) = (  -0.2404205   0.0534236  -0.0737611  )
       185           H   tau( 185) = (   0.2470728   0.2107810  -0.2308009  )
       186           H   tau( 186) = (   0.2194529   0.1955180  -0.3024405  )
       187           H   tau( 187) = (   0.1209906  -0.0392564  -0.0399824  )
       188           H   tau( 188) = (   0.0565686   0.0035040  -0.0458489  )
       189           H   tau( 189) = (  -0.2179023  -0.2154106   0.1107786  )
       190           H   tau( 190) = (  -0.2901569  -0.2390597   0.1167706  )
       191           H   tau( 191) = (   0.0921726   0.1647302   0.1112593  )
       192           H   tau( 192) = (   0.0932244   0.1166327   0.0490412  )

     number of k points=     1  Marzari-Vanderbilt smearing, width (Ry)=  0.0250
                       cart. coord. in units 2pi/alat
        k(    1) = (   0.0000000   0.0000000   0.0000000), wk =   2.0000000

     Dense  grid:   177509 G-vectors     FFT dimensions: (  72,  72,  72)

     Estimated max dynamical RAM per process >      67.80Mb

     Estimated total allocated dynamical RAM >    1898.40Mb

     Initial potential from superposition of free atoms
     Check: negative starting charge=   -0.686728

     starting charge  511.99856, renormalised to  512.00000

     negative rho (up, down):  6.867E-01 0.000E+00
     Starting wfc are  384 randomized atomic wfcs

     total cpu time spent up to now is        0.8 secs

     per-process dynamical memory:    45.9 Mb

     Self-consistent Calculation

     iteration #  1     ecut=    30.00 Ry     beta=0.70
     Davidson diagonalization with overlap
     ethr =  1.00E-02,  avg # of iterations =  8.0

     negative rho (up, down):  1.623E-01 0.000E+00

     total cpu time spent up to now is        9.0 secs

     total energy              =   -1800.67071348 Ry
     Harris-Foulkes estimate   =   -1827.88436570 Ry
     estimated scf accuracy    <      42.56603669 Ry

     iteration #  2     ecut=    30.00 Ry     beta=0.70
     Davidson diagonalization with overlap
     ethr =  8.31E-03,  avg # of iterations =  4.0

     negative rho (up, down):  2.191E-03 0.000E+00

     total cpu time spent up to now is       12.1 secs

     total energy              =   -1782.00573322 Ry
     Harris-Foulkes estimate   =   -1814.19129428 Ry
     estimated scf accuracy    <      70.19616982 Ry

     iteration #  3     ecut=    30.00 Ry     beta=0.70
     Davidson diagonalization with overlap
     ethr =  8.31E-03,  avg # of iterations =  5.0

     negative rho (up, down):  1.043E-04 0.000E+00

     total cpu time spent up to now is       15.9 secs

     total energy              =   -1797.99389680 Ry
     Harris-Foulkes estimate   =   -1817.15230072 Ry
     estimated scf accuracy    <      66.24614340 Ry

     iteration #  4     ecut=    30.00 Ry     beta=0.70
     Davidson diagonalization with overlap
     ethr =  8.31E-03,  avg # of iterations =  3.0

     total cpu time spent up to now is       17.8 secs

     total energy              =   -1808.42797355 Ry
     Harris-Foulkes estimate   =   -1810.91985971 Ry
     estimated scf accuracy    <       7.07745209 Ry

     iteration #  5     ecut=    30.00 Ry     beta=0.70
     Davidson diagonalization with overlap
     ethr =  1.38E-03,  avg # of iterations =  4.0

     total cpu time spent up to now is       19.9 secs

     total energy              =   -1808.18870086 Ry
     Harris-Foulkes estimate   =   -1808.85717127 Ry
     estimated scf accuracy    <       2.45542614 Ry

     iteration #  6     ecut=    30.00 Ry     beta=0.70
     Davidson diagonalization with overlap
     ethr =  4.80E-04,  avg # of iterations =  5.0

     total cpu time spent up to now is       22.4 secs

     total energy              =   -1808.00381917 Ry
     Harris-Foulkes estimate   =   -1808.28954260 Ry
     estimated scf accuracy    <       0.95645763 Ry

     iteration #  7     ecut=    30.00 Ry     beta=0.70
     Davidson diagonalization with overlap
     ethr =  1.87E-04,  avg # of iterations =  7.0

     total cpu time spent up to now is       25.5 secs

     total energy              =   -1808.06538878 Ry
     Harris-Foulkes estimate   =   -1808.08612811 Ry
     estimated scf accuracy    <       0.52044938 Ry

     iteration #  8     ecut=    30.00 Ry     beta=0.70
     Davidson diagonalization with overlap
     ethr =  1.02E-04,  avg # of iterations =  1.0

     total cpu time spent up to now is       26.6 secs

     total energy              =   -1808.01435900 Ry
     Harris-Foulkes estimate   =   -1808.07075391 Ry
     estimated scf accuracy    <       0.31794024 Ry

     iteration #  9     ecut=    30.00 Ry     beta=0.70
     Davidson diagonalization with overlap
     ethr =  6.21E-05,  avg # of iterations =  5.0

     total cpu time spent up to now is       29.0 secs

     total energy              =   -1807.98240253 Ry
     Harris-Foulkes estimate   =   -1808.05422795 Ry
     estimated scf accuracy    <       0.47799733 Ry

     iteration # 10     ecut=    30.00 Ry     beta=0.70
     Davidson diagonalization with overlap
     ethr =  6.21E-05,  avg # of iterations =  2.0

     total cpu time spent up to now is       30.4 secs

     total energy              =   -1808.00342285 Ry
     Harris-Foulkes estimate   =   -1808.03451185 Ry
     estimated scf accuracy    <       0.17976563 Ry

     iteration # 11     ecut=    30.00 Ry     beta=0.70
     Davidson diagonalization with overlap
     ethr =  3.51E-05,  avg # of iterations =  3.0

     total cpu time spent up to now is       32.1 secs

     total energy              =   -1808.00935337 Ry
     Harris-Foulkes estimate   =   -1808.02332454 Ry
     estimated scf accuracy    <       0.10455296 Ry

     iteration # 12     ecut=    30.00 Ry     beta=0.70
     Davidson diagonalization with overlap
     ethr =  2.04E-05,  avg # of iterations = 11.0

     total cpu time spent up to now is       36.1 secs

     total energy              =   -1808.00629181 Ry
     Harris-Foulkes estimate   =   -1808.02308521 Ry
     estimated scf accuracy    <       0.10807773 Ry

     iteration # 13     ecut=    30.00 Ry     beta=0.70
     Davidson diagonalization with overlap
     ethr =  2.04E-05,  avg # of iterations =  2.0

     total cpu time spent up to now is       37.5 secs

     total energy              =   -1808.00877125 Ry
     Harris-Foulkes estimate   =   -1808.01696929 Ry
     estimated scf accuracy    <       0.04592721 Ry

     iteration # 14     ecut=    30.00 Ry     beta=0.70
     Davidson diagonalization with overlap
     ethr =  8.97E-06,  avg # of iterations =  2.0

     total cpu time spent up to now is       38.9 secs

     total energy              =   -1808.01183266 Ry
     Harris-Foulkes estimate   =   -1808.01513199 Ry
     estimated scf accuracy    <       0.02047630 Ry

     iteration # 15     ecut=    30.00 Ry     beta=0.70
     Davidson diagonalization with overlap
     ethr =  4.00E-06,  avg # of iterations =  4.0

     total cpu time spent up to now is       40.9 secs

     total energy              =   -1808.01310505 Ry
     Harris-Foulkes estimate   =   -1808.01334655 Ry
     estimated scf accuracy    <       0.00065284 Ry

     iteration # 16     ecut=    30.00 Ry     beta=0.70
     Davidson diagonalization with overlap
     ethr =  1.28E-07,  avg # of iterations =  2.0

     total cpu time spent up to now is       42.5 secs

     total energy              =   -1808.01304032 Ry
     Harris-Foulkes estimate   =   -1808.01326212 Ry
     estimated scf accuracy    <       0.00088723 Ry

     iteration # 17     ecut=    30.00 Ry     beta=0.70
     Davidson diagonalization with overlap
     ethr =  1.28E-07,  avg # of iterations =  2.0

     total cpu time spent up to now is       43.9 secs

     total energy              =   -1808.01302449 Ry
     Harris-Foulkes estimate   =   -1808.01324374 Ry
     estimated scf accuracy    <       0.00141141 Ry

     iteration # 18     ecut=    30.00 Ry     beta=0.70
     Davidson diagonalization with overlap
     ethr =  1.28E-07,  avg # of iterations =  2.0

     total cpu time spent up to now is       45.3 secs

     total energy              =   -1808.01304250 Ry
     Harris-Foulkes estimate   =   -1808.01311303 Ry
     estimated scf accuracy    <       0.00032041 Ry

     iteration # 19     ecut=    30.00 Ry     beta=0.70
     Davidson diagonalization with overlap
     ethr =  6.26E-08,  avg # of iterations =  2.0

     total cpu time spent up to now is       46.7 secs

     total energy              =   -1808.01295291 Ry
     Harris-Foulkes estimate   =   -1808.01314732 Ry
     estimated scf accuracy    <       0.00156305 Ry

     iteration # 20     ecut=    30.00 Ry     beta=0.70
     Davidson diagonalization with overlap
     ethr =  6.26E-08,  avg # of iterations =  2.0

     total cpu time spent up to now is       48.4 secs

     total energy              =   -1808.01299118 Ry
     Harris-Foulkes estimate   =   -1808.01314031 Ry
     estimated scf accuracy    <       0.00103341 Ry

     iteration # 21     ecut=    30.00 Ry     beta=0.70
     Davidson diagonalization with overlap
     ethr =  6.26E-08,  avg # of iterations =  2.0

     total cpu time spent up to now is       49.8 secs

     total energy              =   -1808.01304972 Ry
     Harris-Foulkes estimate   =   -1808.01307224 Ry
     estimated scf accuracy    <       0.00012267 Ry

     iteration # 22     ecut=    30.00 Ry     beta=0.70
     Davidson diagonalization with overlap
     ethr =  2.40E-08,  avg # of iterations =  2.0

     total cpu time spent up to now is       51.2 secs

     total energy              =   -1808.01304807 Ry
     Harris-Foulkes estimate   =   -1808.01307737 Ry
     estimated scf accuracy    <       0.00015636 Ry

     iteration # 23     ecut=    30.00 Ry     beta=0.70
     Davidson diagonalization with overlap
     ethr =  2.40E-08,  avg # of iterations =  2.0

     total cpu time spent up to now is       52.6 secs

     total energy              =   -1808.01306200 Ry
     Harris-Foulkes estimate   =   -1808.01306362 Ry
     estimated scf accuracy    <       0.00000851 Ry

     iteration # 24     ecut=    30.00 Ry     beta=0.70
     Davidson diagonalization with overlap
     ethr =  1.66E-09,  avg # of iterations =  2.0

     total cpu time spent up to now is       54.1 secs

     total energy              =   -1808.01306195 Ry
     Harris-Foulkes estimate   =   -1808.01306435 Ry
     estimated scf accuracy    <       0.00001843 Ry

     iteration # 25     ecut=    30.00 Ry     beta=0.70
     Davidson diagonalization with overlap
     ethr =  1.66E-09,  avg # of iterations =  2.0

     total cpu time spent up to now is       55.5 secs

     total energy              =   -1808.01306299 Ry
     Harris-Foulkes estimate   =   -1808.01306345 Ry
     estimated scf accuracy    <       0.00000249 Ry

     iteration # 26     ecut=    30.00 Ry     beta=0.70
     Davidson diagonalization with overlap
     ethr =  4.87E-10,  avg # of iterations =  2.0

     total cpu time spent up to now is       56.9 secs

     total energy              =   -1808.01306317 Ry
     Harris-Foulkes estimate   =   -1808.01306336 Ry
     estimated scf accuracy    <       0.00000078 Ry

     iteration # 27     ecut=    30.00 Ry     beta=0.70
     Davidson diagonalization with overlap
     ethr =  1.52E-10,  avg # of iterations =  2.0

     total cpu time spent up to now is       58.3 secs

     total energy              =   -1808.01306325 Ry
     Harris-Foulkes estimate   =   -1808.01306328 Ry
     estimated scf accuracy    <       0.00000011 Ry

     iteration # 28     ecut=    30.00 Ry     beta=0.70
     Davidson diagonalization with overlap
     ethr =  2.14E-11,  avg # of iterations =  2.0

     total cpu time spent up to now is       59.7 secs

     total energy              =   -1808.01306326 Ry
     Harris-Foulkes estimate   =   -1808.01306327 Ry
     estimated scf accuracy    <       0.00000002 Ry

     iteration # 29     ecut=    30.00 Ry     beta=0.70
     Davidson diagonalization with overlap
     ethr =  3.04E-12,  avg # of iterations =  3.0

     total cpu time spent up to now is       61.8 secs

     total energy              =   -1808.01306325 Ry
     Harris-Foulkes estimate   =   -1808.01306328 Ry
     estimated scf accuracy    <       0.00000032 Ry

     iteration # 30     ecut=    30.00 Ry     beta=0.70
     Davidson diagonalization with overlap
     ethr =  3.04E-12,  avg # of iterations =  2.0

     total cpu time spent up to now is       63.4 secs

     End of self-consistent calculation

          k = 0.0000 0.0000 0.0000 ( 22119 PWs)   bands (ev):

   -40.4727 -39.6280 -38.8476 -38.2383 -37.5307 -37.0374 -36.6994 -36.3012
   -35.7843 -35.4697 -35.0268 -34.4841 -34.2325 -34.0420 -33.6025 -33.4235
   -33.2525 -32.9651 -32.6042 -32.5150 -32.3002 -31.8561 -31.5804 -31.0654
   -30.7336 -30.5632 -30.3087 -30.2377 -30.1435 -29.7854 -29.5877 -29.3263
   -29.2208 -29.0972 -28.9889 -28.6455 -28.5369 -28.4176 -28.3260 -28.2652
   -28.0627 -28.0190 -27.9261 -27.8365 -27.6245 -27.5628 -27.3142 -27.2531
   -27.0024 -26.8688 -26.8271 -26.5230 -26.3156 -26.2168 -26.1026 -25.9741
   -25.8381 -25.5913 -25.3884 -25.3440 -24.9646 -24.7832 -24.3296 -23.0628
   -21.5312 -21.3572 -21.0434 -20.7605 -20.2527 -20.0353 -19.9529 -19.4405
   -19.2216 -18.9276 -18.6140 -18.4817 -18.1517 -18.0299 -17.7374 -17.6651
   -17.4195 -17.0663 -16.8999 -16.5843 -16.2979 -16.1518 -16.0027 -15.9282
   -15.8628 -15.8448 -15.6538 -15.5365 -15.5227 -15.4364 -15.3078 -15.2014
   -15.1689 -14.9969 -14.9658 -14.8842 -14.6753 -14.6491 -14.5743 -14.5192
   -14.1835 -14.0308 -13.9239 -13.8060 -13.6060 -13.5681 -13.3525 -13.2462
   -13.2004 -13.0384 -12.8713 -12.8479 -12.7875 -12.6029 -12.5860 -12.5324
   -12.5219 -12.3447 -12.2623 -12.2055 -11.6091 -11.4522 -11.3865 -10.9027
   -10.0507  -9.5075  -9.4160  -9.1894  -9.0510  -8.8365  -8.7225  -8.5575
    -8.3352  -8.2025  -7.9907  -7.9418  -7.7907  -7.6475  -7.5947  -7.2600
    -7.0036  -6.9166  -6.8507  -6.7013  -6.4932  -6.3805  -6.3438  -6.2769
    -6.0967  -6.0917  -5.8657  -5.8280  -5.7095  -5.6874  -5.5132  -5.4778
    -5.3261  -5.1803  -5.1135  -5.0573  -4.8418  -4.7158  -4.5741  -4.4707
    -4.4164  -4.3568  -4.2785  -4.2578  -4.0413  -3.9288  -3.9012  -3.7355
    -3.5402  -3.5045  -3.4572  -3.4264  -3.2916  -3.2415  -3.1208  -3.0655
    -2.9105  -2.8299  -2.8026  -2.7231  -2.6547  -2.5063  -2.3985  -2.3256
    -2.2046  -2.1087  -2.0502  -1.9302  -1.9092  -1.7906  -1.7502  -1.7070
    -1.5599  -1.5402  -1.4654  -1.3822  -1.2400  -1.1670  -1.1273  -1.0314
    -0.8619  -0.7458  -0.7109  -0.5901  -0.4780  -0.4309  -0.2573  -0.2150
    -0.0531  -0.0252   0.1496   0.2929   0.3354   0.3758   0.5163   0.7116
     1.0079   1.0810   1.2221   1.3183   1.3426   1.4485   1.6745   1.7510
     1.8565   2.0121   2.1915   2.3360   2.5103   2.6489   3.0333   3.1268
     3.2746   3.3655   3.4172   3.5535   3.7845   3.9365   4.0872   4.4760
     4.5337   4.7108   5.0157   5.0568   5.0968   5.2661   5.3621   5.3716
     5.5234   6.2650   6.5528   6.6618   6.9288   6.9921   7.3674   7.5077
     7.5297   7.7972   7.9095   7.9628   8.1438   8.3567   8.5119   8.6753
     8.8291   9.1319   9.1951   9.3877   9.5537   9.7508   9.7979   9.9371
    10.1878  10.2333  10.2826  10.5139  10.5683  10.7227  10.7899  10.8155
    10.8824  11.0818  11.2071  11.2558  11.3281  11.3910  11.4526  11.5289
    11.5869  11.6768  11.7491  11.8365  11.8515  11.9595  12.0352  12.1203
    12.1709  12.2532  12.3241

     the Fermi energy is     5.5154 ev

!    total energy              =   -1808.01306326 Ry
     Harris-Foulkes estimate   =   -1808.01306327 Ry
     estimated scf accuracy    <          3.8E-09 Ry

     The total energy is the sum of the following terms:

     one-electron contribution =  -12732.91810468 Ry
     hartree contribution      =    6539.99256877 Ry
     xc contribution           =    -632.19110267 Ry
     ewald contribution        =    5017.09403614 Ry
     smearing contrib. (-TS)   =       0.00953918 Ry

     convergence has been achieved in  30 iterations

     Writing output data file pwscf.save
 
     init_run     :      0.56s CPU      0.63s WALL (       1 calls)
     electrons    :     60.71s CPU     62.62s WALL (       1 calls)

     Called by init_run:
     wfcinit      :      0.47s CPU      0.52s WALL (       1 calls)
     potinit      :      0.02s CPU      0.03s WALL (       1 calls)

     Called by electrons:
     c_bands      :     57.70s CPU     59.30s WALL (      30 calls)
     sum_band     :      2.48s CPU      2.54s WALL (      30 calls)
     v_of_rho     :      0.24s CPU      0.25s WALL (      31 calls)
     mix_rho      :      0.19s CPU      0.35s WALL (      30 calls)

     Called by c_bands:
     init_us_2    :      0.08s CPU      0.08s WALL (      61 calls)
     cegterg      :     57.51s CPU     58.98s WALL (      30 calls)

     Called by sum_band:

     Called by *egterg:
     h_psi        :     11.01s CPU     11.22s WALL (     128 calls)
     g_psi        :      0.09s CPU      0.09s WALL (      97 calls)
     cdiaghg      :     34.80s CPU     34.85s WALL (     127 calls)

     Called by h_psi:
     h_psi:pot    :     10.74s CPU     10.94s WALL (     128 calls)
     h_psi:calbec :      0.40s CPU      0.40s WALL (     128 calls)
     vloc_psi     :      9.99s CPU     10.18s WALL (     128 calls)
     add_vuspsi   :      0.35s CPU      0.36s WALL (     128 calls)

     General routines
     calbec       :      0.40s CPU      0.40s WALL (     128 calls)
     fft          :      0.14s CPU      0.14s WALL (     340 calls)
     fftw         :     11.17s CPU     11.40s WALL (   50636 calls)
     davcio       :      0.03s CPU      0.17s WALL (     508 calls)
 
     Parallel routines
     fft_scatter  :      4.18s CPU      4.29s WALL (   50976 calls)
 
     PWSCF        :  1m 1.43s CPU     1m 3.80s WALL

 
   This run was terminated on:   4:26:53   3Feb2018            

=------------------------------------------------------------------------------=
   JOB DONE.
=------------------------------------------------------------------------------=
