
     Program PWSCF v.6.0 (svn rev. 13079) starts on  3Feb2018 at  4:29:58 

     This program is part of the open-source Quantum ESPRESSO suite
     for quantum simulation of materials; please cite
         "P. Giannozzi et al., J. Phys.:Condens. Matter 21 395502 (2009);
          URL http://www.quantum-espresso.org", 
     in publications or presentations arising from this work. More details at
     http://www.quantum-espresso.org/quote

     Parallel version (MPI), running on    28 processors
     R & G space division:  proc/nbgrp/npool/nimage =      28
     Reading input from input/scf-bigwater-1/1473.in
Warning: card &IONS ignored
Warning: card     POT_EXTRAPOLATION='SECOND-ORDER' ignored
Warning: card     WFC_EXTRAPOLATION='SECOND-ORDER' ignored
Warning: card     ION_TEMPERATURE = 'ANDERSEN' ignored
Warning: card     TEMPW = 1000 ignored
Warning: card / ignored

     Current dimensions of program PWSCF are:
     Max number of different atomic species (ntypx) = 10
     Max number of k-points (npk) =  40000
     Max angular momentum in pseudopotentials (lmaxx) =  3

     Subspace diagonalization in iterative solution of the eigenvalue problem:
     a serial algorithm will be used

 
     Parallelization info
     --------------------
     sticks:   dense  smooth     PW     G-vecs:    dense   smooth      PW
     Min         136     136     33                 6338     6338     787
     Max         137     137     34                 6341     6341     792
     Sum        3809    3809    949               177509   177509   22119
 


     bravais-lattice index     =            1
     lattice parameter (alat)  =      20.0000  a.u.
     unit-cell volume          =    8000.0000 (a.u.)^3
     number of atoms/cell      =          192
     number of atomic types    =            2
     number of electrons       =       512.00
     number of Kohn-Sham states=          307
     kinetic-energy cutoff     =      30.0000  Ry
     charge density cutoff     =     120.0000  Ry
     convergence threshold     =      1.0E-08
     mixing beta               =       0.7000
     number of iterations used =            8  plain     mixing
     Exchange-correlation      = BLYP ( 1  3  1  3 0 0)

     celldm(1)=  20.000000  celldm(2)=   0.000000  celldm(3)=   0.000000
     celldm(4)=   0.000000  celldm(5)=   0.000000  celldm(6)=   0.000000

     crystal axes: (cart. coord. in units of alat)
               a(1) = (   1.000000   0.000000   0.000000 )  
               a(2) = (   0.000000   1.000000   0.000000 )  
               a(3) = (   0.000000   0.000000   1.000000 )  

     reciprocal axes: (cart. coord. in units 2 pi/alat)
               b(1) = (  1.000000  0.000000  0.000000 )  
               b(2) = (  0.000000  1.000000  0.000000 )  
               b(3) = (  0.000000  0.000000  1.000000 )  


     PseudoPot. # 1 for  H read from file:
     ./H.blyp-hgh.UPF
     MD5 check sum: c576e69559cde411e611be972c763230
     Pseudo is Norm-conserving, Zval =  1.0
     Generated in analytical, separable form
     Using radial grid of  929 points,  0 beta functions with: 

     PseudoPot. # 2 for  O read from file:
     ./O.blyp-hgh.UPF
     MD5 check sum: d0b7156309aa9befef28faac7bc56342
     Pseudo is Norm-conserving, Zval =  6.0
     Generated in analytical, separable form
     Using radial grid of 1095 points,  1 beta functions with: 
                l(1) =   0

     atomic species   valence    mass     pseudopotential
        H              1.00     1.01000      H( 1.00)
        O              6.00    16.00000      O( 1.00)

     No symmetry found



   Cartesian axes

     site n.     atom                  positions (alat units)
         1           O   tau(   1) = (  -0.2966376  -0.0910376   0.0022064  )
         2           O   tau(   2) = (   0.1882488  -0.0810017   0.3032605  )
         3           O   tau(   3) = (  -0.2838655   0.3631780  -0.2769633  )
         4           O   tau(   4) = (   0.1062838   0.1490221  -0.0294917  )
         5           O   tau(   5) = (  -0.2396060   0.0618201   0.2195881  )
         6           O   tau(   6) = (   0.0179729   0.2898240   0.3115687  )
         7           O   tau(   7) = (  -0.1123832  -0.2841141  -0.1300140  )
         8           O   tau(   8) = (   0.2242089   0.0408224   0.2386994  )
         9           O   tau(   9) = (  -0.1100020  -0.3341565   0.3154269  )
        10           O   tau(  10) = (   0.0893817  -0.1450398   0.1798989  )
        11           O   tau(  11) = (   0.0978176  -0.2779609   0.0986312  )
        12           O   tau(  12) = (  -0.1322257  -0.2121898   0.2648206  )
        13           O   tau(  13) = (  -0.1807390  -0.3434211   0.0067726  )
        14           O   tau(  14) = (  -0.1712799  -0.1874820  -0.2263711  )
        15           O   tau(  15) = (   0.1239941  -0.2314051  -0.0544301  )
        16           O   tau(  16) = (  -0.0609194   0.1470857  -0.0875506  )
        17           O   tau(  17) = (  -0.0740186  -0.1430799   0.0532988  )
        18           O   tau(  18) = (  -0.0130405  -0.2413821   0.1697719  )
        19           O   tau(  19) = (   0.1959825  -0.1925215  -0.1865970  )
        20           O   tau(  20) = (   0.2660759   0.2086985   0.0848933  )
        21           O   tau(  21) = (   0.2430631  -0.1977969   0.2284317  )
        22           O   tau(  22) = (  -0.1141886  -0.0509494  -0.1742172  )
        23           O   tau(  23) = (  -0.0685903   0.1662295  -0.2407463  )
        24           O   tau(  24) = (   0.2498337   0.0588869   0.0138958  )
        25           O   tau(  25) = (   0.1788499   0.0765099  -0.1842307  )
        26           O   tau(  26) = (  -0.2439545   0.1902826  -0.3155272  )
        27           O   tau(  27) = (   0.2438264  -0.2696772   0.0352594  )
        28           O   tau(  28) = (   0.0518425  -0.0236160  -0.3014761  )
        29           O   tau(  29) = (  -0.1455717   0.0358976  -0.2660635  )
        30           O   tau(  30) = (   0.0251770  -0.0432759   0.0879818  )
        31           O   tau(  31) = (   0.3056488  -0.1200136  -0.1686982  )
        32           O   tau(  32) = (   0.2022594  -0.0326708  -0.0576616  )
        33           O   tau(  33) = (  -0.0330605   0.2344564   0.1405102  )
        34           O   tau(  34) = (  -0.2396355  -0.0078340  -0.1335531  )
        35           O   tau(  35) = (   0.0036262  -0.2242310  -0.0281419  )
        36           O   tau(  36) = (   0.2903335   0.1525109  -0.4010593  )
        37           O   tau(  37) = (   0.1903019   0.2714814   0.2611575  )
        38           O   tau(  38) = (  -0.3204856   0.3041895  -0.1393497  )
        39           O   tau(  39) = (   0.0151322   0.0363395  -0.1250712  )
        40           O   tau(  40) = (  -0.2363751  -0.2177135  -0.0350079  )
        41           O   tau(  41) = (  -0.1500150   0.3389189   0.1189691  )
        42           O   tau(  42) = (  -0.1190265   0.1568266   0.2141560  )
        43           O   tau(  43) = (  -0.1441293   0.0025765   0.0035856  )
        44           O   tau(  44) = (  -0.0795455  -0.0557211   0.2482389  )
        45           O   tau(  45) = (   0.0628254   0.1008612   0.2659877  )
        46           O   tau(  46) = (  -0.2646501   0.1095683   0.0881914  )
        47           O   tau(  47) = (   0.1709900   0.2612582  -0.0871335  )
        48           O   tau(  48) = (   0.0568080  -0.2933742  -0.1681776  )
        49           O   tau(  49) = (  -0.2191426   0.2356071  -0.1942593  )
        50           O   tau(  50) = (   0.2979550   0.0768064   0.3731073  )
        51           O   tau(  51) = (  -0.0384833   0.0765158   0.1017442  )
        52           O   tau(  52) = (   0.0224212  -0.1110451  -0.1650758  )
        53           O   tau(  53) = (  -0.0133338  -0.1958609  -0.2792233  )
        54           O   tau(  54) = (   0.3388654  -0.2911976   0.2051311  )
        55           O   tau(  55) = (   0.1844790  -0.1428241   0.0745514  )
        56           O   tau(  56) = (   0.2962942  -0.0644571   0.1444419  )
        57           O   tau(  57) = (   0.0835922   0.1979938  -0.2258521  )
        58           O   tau(  58) = (  -0.0155771  -0.4072510   0.0175905  )
        59           O   tau(  59) = (  -0.2298729  -0.0861419  -0.3392148  )
        60           O   tau(  60) = (  -0.2356455   0.0907841  -0.0398573  )
        61           O   tau(  61) = (   0.2062477   0.2119139  -0.2577544  )
        62           O   tau(  62) = (   0.0696569  -0.0429503  -0.0357861  )
        63           O   tau(  63) = (  -0.2628833  -0.2085926   0.0910636  )
        64           O   tau(  64) = (   0.0925409   0.1166896   0.0982411  )
        65           H   tau(  65) = (  -0.2738946  -0.1020241  -0.0400365  )
        66           H   tau(  66) = (  -0.3074197  -0.1365335   0.0183456  )
        67           H   tau(  67) = (   0.1427515  -0.0619317   0.3085598  )
        68           H   tau(  68) = (   0.1846147  -0.1138754   0.2659917  )
        69           H   tau(  69) = (  -0.2962113   0.3235825  -0.2506064  )
        70           H   tau(  70) = (  -0.2387964   0.3727978  -0.2597276  )
        71           H   tau(  71) = (   0.1411863   0.1809602  -0.0167230  )
        72           H   tau(  72) = (   0.0917885   0.1649145  -0.0738984  )
        73           H   tau(  73) = (  -0.2522387   0.0223697   0.2463643  )
        74           H   tau(  74) = (  -0.2075507   0.0421200   0.1892264  )
        75           H   tau(  75) = (   0.0137150   0.3373689   0.3263280  )
        76           H   tau(  76) = (   0.0353677   0.2589846   0.3458928  )
        77           H   tau(  77) = (  -0.1489570  -0.2944199  -0.1602232  )
        78           H   tau(  78) = (  -0.1159590  -0.3032871  -0.0854719  )
        79           H   tau(  79) = (   0.2008057   0.0732676   0.2658099  )
        80           H   tau(  80) = (   0.2019027  -0.0026062   0.2465594  )
        81           H   tau(  81) = (  -0.1363523  -0.3733011   0.3040902  )
        82           H   tau(  82) = (  -0.0634284  -0.3451515   0.3272279  )
        83           H   tau(  83) = (   0.0637026  -0.1065475   0.1578100  )
        84           H   tau(  84) = (   0.1304202  -0.1453158   0.1532324  )
        85           H   tau(  85) = (   0.0613132  -0.2786649   0.1313421  )
        86           H   tau(  86) = (   0.0832238  -0.2527849   0.0593237  )
        87           H   tau(  87) = (  -0.1209184  -0.2537307   0.2908165  )
        88           H   tau(  88) = (  -0.1241596  -0.2357063   0.2229943  )
        89           H   tau(  89) = (  -0.1864774  -0.3899655  -0.0081706  )
        90           H   tau(  90) = (  -0.2133570  -0.3150559  -0.0172455  )
        91           H   tau(  91) = (  -0.1542720  -0.1515021  -0.1974412  )
        92           H   tau(  92) = (  -0.1348466  -0.2168944  -0.2400704  )
        93           H   tau(  93) = (   0.1605917  -0.2105523  -0.0780635  )
        94           H   tau(  94) = (   0.0824943  -0.2052632  -0.0495748  )
        95           H   tau(  95) = (  -0.0827102   0.1730893  -0.1212527  )
        96           H   tau(  96) = (  -0.0442200   0.1778588  -0.0516470  )
        97           H   tau(  97) = (  -0.1000872  -0.1251783   0.0157809  )
        98           H   tau(  98) = (  -0.0403848  -0.1075150   0.0589762  )
        99           H   tau(  99) = (   0.0251005  -0.2093290   0.1624430  )
       100           H   tau( 100) = (  -0.0459854  -0.2359310   0.1336596  )
       101           H   tau( 101) = (   0.1786307  -0.2161291  -0.2275404  )
       102           H   tau( 102) = (   0.1799195  -0.1464999  -0.1940292  )
       103           H   tau( 103) = (   0.2679852   0.2574991   0.0791970  )
       104           H   tau( 104) = (   0.3122699   0.1961946   0.0740336  )
       105           H   tau( 105) = (   0.2809395  -0.1720215   0.2457352  )
       106           H   tau( 106) = (   0.2415096  -0.2342655   0.2622488  )
       107           H   tau( 107) = (  -0.0704848  -0.0747217  -0.1718004  )
       108           H   tau( 108) = (  -0.0997730  -0.0093217  -0.1965431  )
       109           H   tau( 109) = (  -0.0206300   0.1749075  -0.2362580  )
       110           H   tau( 110) = (  -0.0682367   0.1177460  -0.2479593  )
       111           H   tau( 111) = (   0.2711802   0.0945638  -0.0122065  )
       112           H   tau( 112) = (   0.2235034   0.0820813   0.0481894  )
       113           H   tau( 113) = (   0.2050880   0.0841950  -0.1435201  )
       114           H   tau( 114) = (   0.1461050   0.1120531  -0.1885379  )
       115           H   tau( 115) = (  -0.2819591   0.1923536  -0.3494051  )
       116           H   tau( 116) = (  -0.2210323   0.1478788  -0.3222474  )
       117           H   tau( 117) = (   0.1979759  -0.2819408   0.0501311  )
       118           H   tau( 118) = (   0.2340842  -0.2435026  -0.0049714  )
       119           H   tau( 119) = (   0.0161423  -0.0354333  -0.3323134  )
       120           H   tau( 120) = (   0.0592567   0.0236521  -0.3137164  )
       121           H   tau( 121) = (  -0.1553361  -0.0044678  -0.2915722  )
       122           H   tau( 122) = (  -0.1857158   0.0424957  -0.2384406  )
       123           H   tau( 123) = (   0.0030078   0.0010995   0.0951575  )
       124           H   tau( 124) = (   0.0406203  -0.0397916   0.0414536  )
       125           H   tau( 125) = (   0.2834349  -0.1084951  -0.2099273  )
       126           H   tau( 126) = (   0.2864948  -0.1643882  -0.1604804  )
       127           H   tau( 127) = (   0.2132827   0.0113422  -0.0379668  )
       128           H   tau( 128) = (   0.2370472  -0.0612007  -0.0366486  )
       129           H   tau( 129) = (  -0.0337848   0.2801714   0.1579549  )
       130           H   tau( 130) = (  -0.0657038   0.2133271   0.1682483  )
       131           H   tau( 131) = (  -0.1972686  -0.0328230  -0.1328245  )
       132           H   tau( 132) = (  -0.2735114  -0.0435190  -0.1408528  )
       133           H   tau( 133) = (  -0.0082736  -0.2715002  -0.0266968  )
       134           H   tau( 134) = (  -0.0290783  -0.1998896  -0.0001235  )
       135           H   tau( 135) = (   0.2853065   0.1675694  -0.4479633  )
       136           H   tau( 136) = (   0.3179862   0.1123557  -0.4023339  )
       137           H   tau( 137) = (   0.1494949   0.2858741   0.2384712  )
       138           H   tau( 138) = (   0.1857552   0.2887977   0.3061938  )
       139           H   tau( 139) = (  -0.2751292   0.2855549  -0.1475745  )
       140           H   tau( 140) = (  -0.3195271   0.3379121  -0.1026026  )
       141           H   tau( 141) = (  -0.0074478   0.0804011  -0.1188058  )
       142           H   tau( 142) = (   0.0587105   0.0430127  -0.1459030  )
       143           H   tau( 143) = (  -0.2039597  -0.1850814  -0.0209268  )
       144           H   tau( 144) = (  -0.2574475  -0.2356361   0.0050782  )
       145           H   tau( 145) = (  -0.1521272   0.3001435   0.0882571  )
       146           H   tau( 146) = (  -0.1856764   0.3273189   0.1505086  )
       147           H   tau( 147) = (  -0.1650170   0.1429269   0.2080250  )
       148           H   tau( 148) = (  -0.1083553   0.1563632   0.2621838  )
       149           H   tau( 149) = (  -0.1315992  -0.0115802  -0.0421858  )
       150           H   tau( 150) = (  -0.1789745  -0.0305799   0.0122287  )
       151           H   tau( 151) = (  -0.0693314  -0.0416479   0.2024008  )
       152           H   tau( 152) = (  -0.1249034  -0.0745453   0.2470517  )
       153           H   tau( 153) = (   0.0620485   0.1230559   0.2208283  )
       154           H   tau( 154) = (   0.0762618   0.1358880   0.2981414  )
       155           H   tau( 155) = (  -0.2893651   0.0722769   0.1086193  )
       156           H   tau( 156) = (  -0.2366827   0.0888774   0.0539641  )
       157           H   tau( 157) = (   0.1353648   0.2943369  -0.0955607  )
       158           H   tau( 158) = (   0.2120859   0.2870451  -0.0919032  )
       159           H   tau( 159) = (   0.0194526  -0.2682069  -0.1875419  )
       160           H   tau( 160) = (   0.0356005  -0.2957863  -0.1241059  )
       161           H   tau( 161) = (  -0.2453584   0.2201846  -0.2318255  )
       162           H   tau( 162) = (  -0.1908771   0.1985934  -0.1801376  )
       163           H   tau( 163) = (   0.2526518   0.0597858   0.3666642  )
       164           H   tau( 164) = (   0.3078150   0.0927736   0.3284601  )
       165           H   tau( 165) = (  -0.0796933   0.0960518   0.0866907  )
       166           H   tau( 166) = (  -0.0249673   0.1018784   0.1423080  )
       167           H   tau( 167) = (   0.0297827  -0.1091756  -0.1171125  )
       168           H   tau( 168) = (   0.0330096  -0.0646757  -0.1785600  )
       169           H   tau( 169) = (   0.0142046  -0.1806904  -0.2408575  )
       170           H   tau( 170) = (   0.0103451  -0.1767525  -0.3176448  )
       171           H   tau( 171) = (   0.3549113  -0.3005017   0.2506513  )
       172           H   tau( 172) = (   0.3083725  -0.2522035   0.2051724  )
       173           H   tau( 173) = (   0.2031922  -0.1864523   0.0885644  )
       174           H   tau( 174) = (   0.1505910  -0.1517741   0.0402655  )
       175           H   tau( 175) = (   0.2940058  -0.0811626   0.0983880  )
       176           H   tau( 176) = (   0.2577853  -0.0334251   0.1440163  )
       177           H   tau( 177) = (   0.1334063   0.2001896  -0.2330239  )
       178           H   tau( 178) = (   0.0749232   0.2270407  -0.1863691  )
       179           H   tau( 179) = (   0.0008584  -0.4525768   0.0250760  )
       180           H   tau( 180) = (  -0.0212029  -0.3910195   0.0650030  )
       181           H   tau( 181) = (  -0.2269356  -0.1182240  -0.3013984  )
       182           H   tau( 182) = (  -0.2389856  -0.1134646  -0.3788817  )
       183           H   tau( 183) = (  -0.1907276   0.0800459  -0.0223311  )
       184           H   tau( 184) = (  -0.2398547   0.0534349  -0.0733470  )
       185           H   tau( 185) = (   0.2484069   0.2111098  -0.2328148  )
       186           H   tau( 186) = (   0.2183684   0.1953092  -0.3021929  )
       187           H   tau( 187) = (   0.1209683  -0.0392861  -0.0393879  )
       188           H   tau( 188) = (   0.0557376   0.0031425  -0.0463882  )
       189           H   tau( 189) = (  -0.2177885  -0.2135851   0.1108247  )
       190           H   tau( 190) = (  -0.2900568  -0.2389890   0.1169568  )
       191           H   tau( 191) = (   0.0940245   0.1646427   0.1102412  )
       192           H   tau( 192) = (   0.0935561   0.1156286   0.0491709  )

     number of k points=     1  Marzari-Vanderbilt smearing, width (Ry)=  0.0250
                       cart. coord. in units 2pi/alat
        k(    1) = (   0.0000000   0.0000000   0.0000000), wk =   2.0000000

     Dense  grid:   177509 G-vectors     FFT dimensions: (  72,  72,  72)

     Estimated max dynamical RAM per process >      67.80Mb

     Estimated total allocated dynamical RAM >    1898.40Mb

     Initial potential from superposition of free atoms
     Check: negative starting charge=   -0.688986

     starting charge  511.99856, renormalised to  512.00000

     negative rho (up, down):  6.890E-01 0.000E+00
     Starting wfc are  384 randomized atomic wfcs

     total cpu time spent up to now is        0.8 secs

     per-process dynamical memory:    45.9 Mb

     Self-consistent Calculation

     iteration #  1     ecut=    30.00 Ry     beta=0.70
     Davidson diagonalization with overlap
     ethr =  1.00E-02,  avg # of iterations =  8.0

     negative rho (up, down):  1.634E-01 0.000E+00

     total cpu time spent up to now is        9.1 secs

     total energy              =   -1800.24857979 Ry
     Harris-Foulkes estimate   =   -1827.52038864 Ry
     estimated scf accuracy    <      42.64463009 Ry

     iteration #  2     ecut=    30.00 Ry     beta=0.70
     Davidson diagonalization with overlap
     ethr =  8.33E-03,  avg # of iterations =  4.0

     negative rho (up, down):  1.898E-03 0.000E+00

     total cpu time spent up to now is       12.2 secs

     total energy              =   -1781.26807048 Ry
     Harris-Foulkes estimate   =   -1813.81127943 Ry
     estimated scf accuracy    <      71.29631395 Ry

     iteration #  3     ecut=    30.00 Ry     beta=0.70
     Davidson diagonalization with overlap
     ethr =  8.33E-03,  avg # of iterations =  5.0

     negative rho (up, down):  7.796E-05 0.000E+00

     total cpu time spent up to now is       16.1 secs

     total energy              =   -1797.38976949 Ry
     Harris-Foulkes estimate   =   -1816.87979110 Ry
     estimated scf accuracy    <      67.71946471 Ry

     iteration #  4     ecut=    30.00 Ry     beta=0.70
     Davidson diagonalization with overlap
     ethr =  8.33E-03,  avg # of iterations =  3.0

     total cpu time spent up to now is       18.0 secs

     total energy              =   -1808.04726392 Ry
     Harris-Foulkes estimate   =   -1810.59297891 Ry
     estimated scf accuracy    <       7.22973260 Ry

     iteration #  5     ecut=    30.00 Ry     beta=0.70
     Davidson diagonalization with overlap
     ethr =  1.41E-03,  avg # of iterations =  4.0

     total cpu time spent up to now is       20.1 secs

     total energy              =   -1807.79515275 Ry
     Harris-Foulkes estimate   =   -1808.48427585 Ry
     estimated scf accuracy    <       2.51939266 Ry

     iteration #  6     ecut=    30.00 Ry     beta=0.70
     Davidson diagonalization with overlap
     ethr =  4.92E-04,  avg # of iterations =  6.0

     total cpu time spent up to now is       22.9 secs

     total energy              =   -1807.60000738 Ry
     Harris-Foulkes estimate   =   -1807.89852358 Ry
     estimated scf accuracy    <       0.99625622 Ry

     iteration #  7     ecut=    30.00 Ry     beta=0.70
     Davidson diagonalization with overlap
     ethr =  1.95E-04,  avg # of iterations =  7.0

     total cpu time spent up to now is       26.1 secs

     total energy              =   -1807.66709143 Ry
     Harris-Foulkes estimate   =   -1807.70057615 Ry
     estimated scf accuracy    <       0.70834386 Ry

     iteration #  8     ecut=    30.00 Ry     beta=0.70
     Davidson diagonalization with overlap
     ethr =  1.38E-04,  avg # of iterations =  1.0

     total cpu time spent up to now is       27.2 secs

     total energy              =   -1807.62485683 Ry
     Harris-Foulkes estimate   =   -1807.67546974 Ry
     estimated scf accuracy    <       0.35949943 Ry

     iteration #  9     ecut=    30.00 Ry     beta=0.70
     Davidson diagonalization with overlap
     ethr =  7.02E-05,  avg # of iterations =  4.0

     total cpu time spent up to now is       29.2 secs

     total energy              =   -1807.58692660 Ry
     Harris-Foulkes estimate   =   -1807.66240554 Ry
     estimated scf accuracy    <       0.46157685 Ry

     iteration # 10     ecut=    30.00 Ry     beta=0.70
     Davidson diagonalization with overlap
     ethr =  7.02E-05,  avg # of iterations =  6.0

     total cpu time spent up to now is       31.8 secs

     total energy              =   -1807.59484385 Ry
     Harris-Foulkes estimate   =   -1807.63414887 Ry
     estimated scf accuracy    <       0.20654843 Ry

     iteration # 11     ecut=    30.00 Ry     beta=0.70
     Davidson diagonalization with overlap
     ethr =  4.03E-05,  avg # of iterations =  4.0

     total cpu time spent up to now is       33.8 secs

     total energy              =   -1807.61236631 Ry
     Harris-Foulkes estimate   =   -1807.62455435 Ry
     estimated scf accuracy    <       0.10033399 Ry

     iteration # 12     ecut=    30.00 Ry     beta=0.70
     Davidson diagonalization with overlap
     ethr =  1.96E-05,  avg # of iterations = 10.0

     total cpu time spent up to now is       37.6 secs

     total energy              =   -1807.59910797 Ry
     Harris-Foulkes estimate   =   -1807.61976722 Ry
     estimated scf accuracy    <       0.08410520 Ry

     iteration # 13     ecut=    30.00 Ry     beta=0.70
     Davidson diagonalization with overlap
     ethr =  1.64E-05,  avg # of iterations =  3.0

     total cpu time spent up to now is       39.4 secs

     total energy              =   -1807.59550307 Ry
     Harris-Foulkes estimate   =   -1807.62205007 Ry
     estimated scf accuracy    <       0.17413901 Ry

     iteration # 14     ecut=    30.00 Ry     beta=0.70
     Davidson diagonalization with overlap
     ethr =  1.64E-05,  avg # of iterations =  2.0

     total cpu time spent up to now is       40.8 secs

     total energy              =   -1807.60558373 Ry
     Harris-Foulkes estimate   =   -1807.61506775 Ry
     estimated scf accuracy    <       0.07384199 Ry

     iteration # 15     ecut=    30.00 Ry     beta=0.70
     Davidson diagonalization with overlap
     ethr =  1.44E-05,  avg # of iterations =  1.0

     total cpu time spent up to now is       41.9 secs

     total energy              =   -1807.60845901 Ry
     Harris-Foulkes estimate   =   -1807.60974408 Ry
     estimated scf accuracy    <       0.00965745 Ry

     iteration # 16     ecut=    30.00 Ry     beta=0.70
     Davidson diagonalization with overlap
     ethr =  1.89E-06,  avg # of iterations =  6.0

     total cpu time spent up to now is       44.6 secs

     total energy              =   -1807.60857041 Ry
     Harris-Foulkes estimate   =   -1807.60911895 Ry
     estimated scf accuracy    <       0.00271659 Ry

     iteration # 17     ecut=    30.00 Ry     beta=0.70
     Davidson diagonalization with overlap
     ethr =  5.31E-07,  avg # of iterations =  2.0

     total cpu time spent up to now is       46.0 secs

     total energy              =   -1807.60846408 Ry
     Harris-Foulkes estimate   =   -1807.60944490 Ry
     estimated scf accuracy    <       0.01152922 Ry

     iteration # 18     ecut=    30.00 Ry     beta=0.70
     Davidson diagonalization with overlap
     ethr =  5.31E-07,  avg # of iterations =  2.0

     total cpu time spent up to now is       47.4 secs

     total energy              =   -1807.60856427 Ry
     Harris-Foulkes estimate   =   -1807.60898150 Ry
     estimated scf accuracy    <       0.00142770 Ry

     iteration # 19     ecut=    30.00 Ry     beta=0.70
     Davidson diagonalization with overlap
     ethr =  2.79E-07,  avg # of iterations =  2.0

     total cpu time spent up to now is       48.9 secs

     total energy              =   -1807.60851552 Ry
     Harris-Foulkes estimate   =   -1807.60921631 Ry
     estimated scf accuracy    <       0.00348103 Ry

     iteration # 20     ecut=    30.00 Ry     beta=0.70
     Davidson diagonalization with overlap
     ethr =  2.79E-07,  avg # of iterations =  2.0

     total cpu time spent up to now is       50.3 secs

     total energy              =   -1807.60872350 Ry
     Harris-Foulkes estimate   =   -1807.60897955 Ry
     estimated scf accuracy    <       0.00176276 Ry

     iteration # 21     ecut=    30.00 Ry     beta=0.70
     Davidson diagonalization with overlap
     ethr =  2.79E-07,  avg # of iterations =  2.0

     total cpu time spent up to now is       51.7 secs

     total energy              =   -1807.60886001 Ry
     Harris-Foulkes estimate   =   -1807.60887086 Ry
     estimated scf accuracy    <       0.00007553 Ry

     iteration # 22     ecut=    30.00 Ry     beta=0.70
     Davidson diagonalization with overlap
     ethr =  1.48E-08,  avg # of iterations =  2.0

     total cpu time spent up to now is       53.2 secs

     total energy              =   -1807.60886360 Ry
     Harris-Foulkes estimate   =   -1807.60886569 Ry
     estimated scf accuracy    <       0.00001061 Ry

     iteration # 23     ecut=    30.00 Ry     beta=0.70
     Davidson diagonalization with overlap
     ethr =  2.07E-09,  avg # of iterations =  2.0

     total cpu time spent up to now is       54.7 secs

     total energy              =   -1807.60886201 Ry
     Harris-Foulkes estimate   =   -1807.60886785 Ry
     estimated scf accuracy    <       0.00004944 Ry

     iteration # 24     ecut=    30.00 Ry     beta=0.70
     Davidson diagonalization with overlap
     ethr =  2.07E-09,  avg # of iterations =  2.0

     total cpu time spent up to now is       56.1 secs

     total energy              =   -1807.60886481 Ry
     Harris-Foulkes estimate   =   -1807.60886504 Ry
     estimated scf accuracy    <       0.00000151 Ry

     iteration # 25     ecut=    30.00 Ry     beta=0.70
     Davidson diagonalization with overlap
     ethr =  2.96E-10,  avg # of iterations =  2.0

     total cpu time spent up to now is       57.5 secs

     total energy              =   -1807.60886491 Ry
     Harris-Foulkes estimate   =   -1807.60886503 Ry
     estimated scf accuracy    <       0.00000063 Ry

     iteration # 26     ecut=    30.00 Ry     beta=0.70
     Davidson diagonalization with overlap
     ethr =  1.23E-10,  avg # of iterations =  2.0

     total cpu time spent up to now is       58.9 secs

     total energy              =   -1807.60886498 Ry
     Harris-Foulkes estimate   =   -1807.60886500 Ry
     estimated scf accuracy    <       0.00000013 Ry

     iteration # 27     ecut=    30.00 Ry     beta=0.70
     Davidson diagonalization with overlap
     ethr =  2.47E-11,  avg # of iterations =  2.0

     total cpu time spent up to now is       60.4 secs

     total energy              =   -1807.60886499 Ry
     Harris-Foulkes estimate   =   -1807.60886500 Ry
     estimated scf accuracy    <       0.00000001 Ry

     iteration # 28     ecut=    30.00 Ry     beta=0.70
     Davidson diagonalization with overlap
     ethr =  2.14E-12,  avg # of iterations =  3.0

     total cpu time spent up to now is       62.7 secs

     total energy              =   -1807.60886497 Ry
     Harris-Foulkes estimate   =   -1807.60886501 Ry
     estimated scf accuracy    <       0.00000024 Ry

     iteration # 29     ecut=    30.00 Ry     beta=0.70
     Davidson diagonalization with overlap
     ethr =  2.14E-12,  avg # of iterations =  3.0

     total cpu time spent up to now is       64.8 secs

     total energy              =   -1807.60886499 Ry
     Harris-Foulkes estimate   =   -1807.60886499 Ry
     estimated scf accuracy    <       0.00000002 Ry

     iteration # 30     ecut=    30.00 Ry     beta=0.70
     Davidson diagonalization with overlap
     ethr =  2.14E-12,  avg # of iterations =  2.0

     total cpu time spent up to now is       66.2 secs

     End of self-consistent calculation

          k = 0.0000 0.0000 0.0000 ( 22119 PWs)   bands (ev):

   -40.4749 -39.6395 -38.8209 -38.1644 -37.5836 -37.0376 -36.6950 -36.2347
   -35.7952 -35.4485 -34.9885 -34.4254 -34.2658 -34.2173 -33.5644 -33.3984
   -33.1998 -32.9410 -32.6100 -32.5979 -32.3316 -31.8199 -31.5507 -31.0598
   -30.7033 -30.5569 -30.2970 -30.2407 -30.1056 -29.7532 -29.5498 -29.3776
   -29.2296 -29.1771 -29.0258 -28.6481 -28.5962 -28.4422 -28.3212 -28.2399
   -28.0931 -28.0696 -27.9153 -27.8642 -27.6149 -27.5883 -27.3410 -27.2943
   -26.9904 -26.8591 -26.7843 -26.5015 -26.3790 -26.3019 -26.1274 -26.0811
   -25.8067 -25.5975 -25.4763 -25.3798 -24.9299 -24.7136 -24.4870 -23.0003
   -21.5736 -21.4221 -21.0411 -20.6627 -20.2953 -20.0495 -19.9676 -19.4256
   -19.1365 -18.9605 -18.6430 -18.4781 -18.1618 -18.0122 -17.7460 -17.6233
   -17.4866 -17.1193 -16.9527 -16.4775 -16.3377 -16.1810 -16.0545 -15.9763
   -15.8784 -15.8532 -15.6672 -15.5135 -15.4540 -15.4108 -15.3120 -15.1984
   -15.1150 -14.9785 -14.9620 -14.8626 -14.6801 -14.6173 -14.5714 -14.5174
   -13.9816 -13.9315 -13.8269 -13.6829 -13.5886 -13.5090 -13.4158 -13.2445
   -13.0912 -13.0401 -12.9699 -12.9413 -12.7357 -12.6385 -12.5696 -12.5298
   -12.4990 -12.4018 -12.3089 -12.2436 -11.6041 -11.4310 -11.3167 -10.9248
   -10.1111  -9.4457  -9.3904  -9.1575  -9.0212  -8.8334  -8.6751  -8.5771
    -8.3345  -8.1618  -7.9811  -7.8939  -7.7386  -7.6718  -7.5918  -7.2175
    -6.9762  -6.9327  -6.8762  -6.7208  -6.4721  -6.3848  -6.3202  -6.2442
    -6.0930  -6.0627  -5.8504  -5.8250  -5.7076  -5.6787  -5.5407  -5.5000
    -5.2975  -5.1981  -5.0901  -5.0451  -4.8046  -4.7003  -4.5605  -4.4573
    -4.4102  -4.3551  -4.2456  -4.2117  -4.0351  -3.9286  -3.8854  -3.7455
    -3.5400  -3.5371  -3.4694  -3.4238  -3.3018  -3.2401  -3.1388  -3.0399
    -2.9770  -2.8251  -2.7744  -2.7285  -2.6552  -2.4943  -2.4128  -2.3266
    -2.2156  -2.1087  -2.0777  -1.9763  -1.9250  -1.8320  -1.7559  -1.7344
    -1.5663  -1.5301  -1.4412  -1.3963  -1.2409  -1.2095  -1.1513  -1.0211
    -0.8511  -0.7501  -0.7232  -0.5640  -0.4467  -0.4266  -0.2864  -0.1855
    -0.1604  -0.0213   0.1565   0.3281   0.3445   0.3956   0.5090   0.7084
     1.0168   1.1062   1.2275   1.3338   1.3439   1.4539   1.6524   1.7709
     1.8571   2.0349   2.1967   2.3294   2.5200   2.7013   3.0328   3.1507
     3.2843   3.3505   3.4454   3.5580   3.8280   3.9850   4.1166   4.4084
     4.5219   4.6518   5.0042   5.0541   5.0973   5.2643   5.3543   5.3675
     5.5185   6.2562   6.5432   6.6650   6.9211   7.0055   7.3764   7.4951
     7.5220   7.8037   7.9086   7.9624   8.1448   8.3794   8.5071   8.6787
     8.8301   9.1268   9.1898   9.3899   9.5662   9.7532   9.8031   9.9338
    10.1946  10.2249  10.2989  10.5147  10.5706  10.7173  10.7838  10.8214
    10.8939  11.0714  11.2096  11.2592  11.3462  11.3931  11.4611  11.5206
    11.5878  11.6792  11.7576  11.8428  11.8535  11.9595  12.0334  12.1279
    12.1710  12.2488  12.3195

     the Fermi energy is     5.5118 ev

!    total energy              =   -1807.60886498 Ry
     Harris-Foulkes estimate   =   -1807.60886499 Ry
     estimated scf accuracy    <          4.3E-09 Ry

     The total energy is the sum of the following terms:

     one-electron contribution =  -12736.26689734 Ry
     hartree contribution      =    6541.75904767 Ry
     xc contribution           =    -632.28688420 Ry
     ewald contribution        =    5019.17729268 Ry
     smearing contrib. (-TS)   =       0.00857621 Ry

     convergence has been achieved in  30 iterations

     Writing output data file pwscf.save
 
     init_run     :      0.57s CPU      0.64s WALL (       1 calls)
     electrons    :     63.50s CPU     65.45s WALL (       1 calls)

     Called by init_run:
     wfcinit      :      0.48s CPU      0.54s WALL (       1 calls)
     potinit      :      0.02s CPU      0.02s WALL (       1 calls)

     Called by electrons:
     c_bands      :     60.56s CPU     62.16s WALL (      30 calls)
     sum_band     :      2.44s CPU      2.50s WALL (      30 calls)
     v_of_rho     :      0.23s CPU      0.25s WALL (      31 calls)
     mix_rho      :      0.18s CPU      0.35s WALL (      30 calls)

     Called by c_bands:
     init_us_2    :      0.08s CPU      0.08s WALL (      61 calls)
     cegterg      :     60.39s CPU     61.90s WALL (      30 calls)

     Called by sum_band:

     Called by *egterg:
     h_psi        :     11.10s CPU     11.31s WALL (     135 calls)
     g_psi        :      0.09s CPU      0.09s WALL (     104 calls)
     cdiaghg      :     37.07s CPU     37.11s WALL (     134 calls)

     Called by h_psi:
     h_psi:pot    :     10.83s CPU     11.03s WALL (     135 calls)
     h_psi:calbec :      0.43s CPU      0.44s WALL (     135 calls)
     vloc_psi     :     10.04s CPU     10.24s WALL (     135 calls)
     add_vuspsi   :      0.35s CPU      0.36s WALL (     135 calls)

     General routines
     calbec       :      0.43s CPU      0.44s WALL (     135 calls)
     fft          :      0.13s CPU      0.14s WALL (     340 calls)
     fftw         :     11.21s CPU     11.45s WALL (   50676 calls)
     davcio       :      0.03s CPU      0.17s WALL (     508 calls)
 
     Parallel routines
     fft_scatter  :      3.85s CPU      3.96s WALL (   51016 calls)
 
     PWSCF        :  1m 4.24s CPU     1m 6.53s WALL

 
   This run was terminated on:   4:31: 5   3Feb2018            

=------------------------------------------------------------------------------=
   JOB DONE.
=------------------------------------------------------------------------------=
