
     Program PWSCF v.6.0 (svn rev. 13079) starts on  2Feb2018 at  7:27:38 

     This program is part of the open-source Quantum ESPRESSO suite
     for quantum simulation of materials; please cite
         "P. Giannozzi et al., J. Phys.:Condens. Matter 21 395502 (2009);
          URL http://www.quantum-espresso.org", 
     in publications or presentations arising from this work. More details at
     http://www.quantum-espresso.org/quote

     Parallel version (MPI), running on    28 processors
     R & G space division:  proc/nbgrp/npool/nimage =      28
     Reading input from input/scf-bigwater-1/162.in
Warning: card &IONS ignored
Warning: card     POT_EXTRAPOLATION='SECOND-ORDER' ignored
Warning: card     WFC_EXTRAPOLATION='SECOND-ORDER' ignored
Warning: card     ION_TEMPERATURE = 'ANDERSEN' ignored
Warning: card     TEMPW = 1000 ignored
Warning: card / ignored

     Current dimensions of program PWSCF are:
     Max number of different atomic species (ntypx) = 10
     Max number of k-points (npk) =  40000
     Max angular momentum in pseudopotentials (lmaxx) =  3

     Subspace diagonalization in iterative solution of the eigenvalue problem:
     a serial algorithm will be used

 
     Parallelization info
     --------------------
     sticks:   dense  smooth     PW     G-vecs:    dense   smooth      PW
     Min         136     136     33                 6338     6338     787
     Max         137     137     34                 6341     6341     792
     Sum        3809    3809    949               177509   177509   22119
 


     bravais-lattice index     =            1
     lattice parameter (alat)  =      20.0000  a.u.
     unit-cell volume          =    8000.0000 (a.u.)^3
     number of atoms/cell      =          192
     number of atomic types    =            2
     number of electrons       =       512.00
     number of Kohn-Sham states=          307
     kinetic-energy cutoff     =      30.0000  Ry
     charge density cutoff     =     120.0000  Ry
     convergence threshold     =      1.0E-08
     mixing beta               =       0.7000
     number of iterations used =            8  plain     mixing
     Exchange-correlation      = BLYP ( 1  3  1  3 0 0)

     celldm(1)=  20.000000  celldm(2)=   0.000000  celldm(3)=   0.000000
     celldm(4)=   0.000000  celldm(5)=   0.000000  celldm(6)=   0.000000

     crystal axes: (cart. coord. in units of alat)
               a(1) = (   1.000000   0.000000   0.000000 )  
               a(2) = (   0.000000   1.000000   0.000000 )  
               a(3) = (   0.000000   0.000000   1.000000 )  

     reciprocal axes: (cart. coord. in units 2 pi/alat)
               b(1) = (  1.000000  0.000000  0.000000 )  
               b(2) = (  0.000000  1.000000  0.000000 )  
               b(3) = (  0.000000  0.000000  1.000000 )  


     PseudoPot. # 1 for  H read from file:
     ./H.blyp-hgh.UPF
     MD5 check sum: c576e69559cde411e611be972c763230
     Pseudo is Norm-conserving, Zval =  1.0
     Generated in analytical, separable form
     Using radial grid of  929 points,  0 beta functions with: 

     PseudoPot. # 2 for  O read from file:
     ./O.blyp-hgh.UPF
     MD5 check sum: d0b7156309aa9befef28faac7bc56342
     Pseudo is Norm-conserving, Zval =  6.0
     Generated in analytical, separable form
     Using radial grid of 1095 points,  1 beta functions with: 
                l(1) =   0

     atomic species   valence    mass     pseudopotential
        H              1.00     1.01000      H( 1.00)
        O              6.00    16.00000      O( 1.00)

     No symmetry found



   Cartesian axes

     site n.     atom                  positions (alat units)
         1           O   tau(   1) = (  -0.2632379  -0.0740017  -0.0821453  )
         2           O   tau(   2) = (   0.1935649  -0.1028550   0.2694497  )
         3           O   tau(   3) = (  -0.2873832   0.2750904  -0.2713967  )
         4           O   tau(   4) = (  -0.0078757   0.1927521  -0.0733209  )
         5           O   tau(   5) = (  -0.2369401   0.0388396   0.1972079  )
         6           O   tau(   6) = (  -0.0113105   0.2745122   0.2625083  )
         7           O   tau(   7) = (  -0.0069528  -0.2706268  -0.1695221  )
         8           O   tau(   8) = (   0.1239987   0.0048766   0.1793008  )
         9           O   tau(   9) = (  -0.1427497  -0.2652251   0.2838330  )
        10           O   tau(  10) = (   0.1011399  -0.1400292   0.0993814  )
        11           O   tau(  11) = (   0.1288102  -0.3060635   0.1451176  )
        12           O   tau(  12) = (  -0.2011038  -0.1492458   0.2259206  )
        13           O   tau(  13) = (  -0.2218939  -0.2910810   0.0358101  )
        14           O   tau(  14) = (  -0.1808409  -0.2858621  -0.1906392  )
        15           O   tau(  15) = (   0.1218764  -0.1396654  -0.1166027  )
        16           O   tau(  16) = (  -0.1012402   0.1217078   0.0460240  )
        17           O   tau(  17) = (  -0.0606086  -0.0904251   0.0964255  )
        18           O   tau(  18) = (   0.0113836  -0.2091359   0.1889045  )
        19           O   tau(  19) = (   0.2686595  -0.2186827  -0.2494331  )
        20           O   tau(  20) = (   0.2705831   0.2500003   0.1112848  )
        21           O   tau(  21) = (   0.2934458  -0.1502816   0.1631411  )
        22           O   tau(  22) = (  -0.1617695  -0.1422982  -0.1940217  )
        23           O   tau(  23) = (  -0.0444754   0.1339780  -0.2472482  )
        24           O   tau(  24) = (   0.1971383   0.1183126   0.1459881  )
        25           O   tau(  25) = (   0.1167016   0.0708533  -0.1565748  )
        26           O   tau(  26) = (  -0.2409226   0.1315212  -0.3132884  )
        27           O   tau(  27) = (   0.2251194  -0.2996953  -0.0618735  )
        28           O   tau(  28) = (   0.1010960  -0.0629941  -0.2334365  )
        29           O   tau(  29) = (  -0.1031994   0.0058270  -0.2419611  )
        30           O   tau(  30) = (   0.0473465  -0.0166583   0.0412430  )
        31           O   tau(  31) = (   0.2369997  -0.0868208  -0.1804739  )
        32           O   tau(  32) = (   0.2620060   0.0068492  -0.0091045  )
        33           O   tau(  33) = (  -0.0077061   0.2320559   0.0997956  )
        34           O   tau(  34) = (  -0.2463670   0.0372403  -0.2016245  )
        35           O   tau(  35) = (   0.0374514  -0.1914459  -0.0198269  )
        36           O   tau(  36) = (   0.2263116   0.1915918  -0.2261363  )
        37           O   tau(  37) = (   0.1681389   0.2721815   0.2926870  )
        38           O   tau(  38) = (  -0.2665523   0.2019773  -0.0995285  )
        39           O   tau(  39) = (  -0.0200537   0.0482684  -0.0888775  )
        40           O   tau(  40) = (  -0.1557883  -0.1783249  -0.0480893  )
        41           O   tau(  41) = (  -0.1348521   0.2748699   0.1642519  )
        42           O   tau(  42) = (  -0.0797053   0.1404910   0.2119778  )
        43           O   tau(  43) = (  -0.1284870  -0.0181788  -0.0367763  )
        44           O   tau(  44) = (  -0.0769475  -0.1048267   0.2414103  )
        45           O   tau(  45) = (   0.0312851   0.0945861   0.2506718  )
        46           O   tau(  46) = (  -0.2329711   0.1638254   0.0680673  )
        47           O   tau(  47) = (   0.1481146   0.2007700  -0.0341016  )
        48           O   tau(  48) = (   0.1355178  -0.2996186  -0.1841907  )
        49           O   tau(  49) = (  -0.1251350   0.2234526  -0.1164622  )
        50           O   tau(  50) = (   0.2660096   0.0313531   0.2714571  )
        51           O   tau(  51) = (  -0.1469478   0.0153891   0.0983509  )
        52           O   tau(  52) = (  -0.0347676  -0.1165935  -0.1247443  )
        53           O   tau(  53) = (   0.0018585  -0.1695908  -0.2731902  )
        54           O   tau(  54) = (   0.2890522  -0.2967070   0.2128487  )
        55           O   tau(  55) = (   0.2464999  -0.1594980  -0.0062017  )
        56           O   tau(  56) = (   0.2306090  -0.0365909   0.1227833  )
        57           O   tau(  57) = (   0.0624475   0.2169087  -0.2157987  )
        58           O   tau(  58) = (  -0.0380071  -0.2934083   0.0207432  )
        59           O   tau(  59) = (  -0.2745614  -0.0758814  -0.2867728  )
        60           O   tau(  60) = (  -0.2330255   0.0635862  -0.0400301  )
        61           O   tau(  61) = (   0.2577924   0.0720090  -0.1177819  )
        62           O   tau(  62) = (   0.1434202  -0.0151363  -0.0601738  )
        63           O   tau(  63) = (  -0.2633788  -0.0664187   0.0673199  )
        64           O   tau(  64) = (   0.0797339   0.1257294   0.0722542  )
        65           H   tau(  65) = (  -0.2678268  -0.0790679  -0.0331379  )
        66           H   tau(  66) = (  -0.2286498  -0.0390369  -0.0855652  )
        67           H   tau(  67) = (   0.1912918  -0.1432207   0.2969386  )
        68           H   tau(  68) = (   0.1617257  -0.1124833   0.2335294  )
        69           H   tau(  69) = (  -0.3270046   0.2514220  -0.2535936  )
        70           H   tau(  70) = (  -0.2675511   0.2397234  -0.2984559  )
        71           H   tau(  71) = (   0.0046851   0.1446919  -0.0740257  )
        72           H   tau(  72) = (   0.0269728   0.2197329  -0.0932944  )
        73           H   tau(  73) = (  -0.2865792   0.0390790   0.1989607  )
        74           H   tau(  74) = (  -0.2270468   0.0699972   0.2341775  )
        75           H   tau(  75) = (   0.0080724   0.3175815   0.2500498  )
        76           H   tau(  76) = (   0.0090577   0.2599352   0.3038578  )
        77           H   tau(  77) = (  -0.0255995  -0.2697070  -0.1246083  )
        78           H   tau(  78) = (  -0.0479697  -0.2750456  -0.1957794  )
        79           H   tau(  79) = (   0.1446973   0.0491301   0.1735006  )
        80           H   tau(  80) = (   0.0772943   0.0133463   0.1898188  )
        81           H   tau(  81) = (  -0.1670061  -0.2680797   0.3262871  )
        82           H   tau(  82) = (  -0.0967832  -0.2771896   0.2952254  )
        83           H   tau(  83) = (   0.0995298  -0.0995649   0.0721646  )
        84           H   tau(  84) = (   0.1466106  -0.1569737   0.1018307  )
        85           H   tau(  85) = (   0.1627801  -0.3283979   0.1182133  )
        86           H   tau(  86) = (   0.0859337  -0.3231665   0.1296014  )
        87           H   tau(  87) = (  -0.1639583  -0.1770118   0.2098567  )
        88           H   tau(  88) = (  -0.2342379  -0.1528642   0.1875137  )
        89           H   tau(  89) = (  -0.2100702  -0.3342914   0.0162435  )
        90           H   tau(  90) = (  -0.2004304  -0.2568050   0.0082601  )
        91           H   tau(  91) = (  -0.2186344  -0.2581274  -0.1776494  )
        92           H   tau(  92) = (  -0.1899282  -0.3291354  -0.1696636  )
        93           H   tau(  93) = (   0.1273926  -0.0919732  -0.1067610  )
        94           H   tau(  94) = (   0.0832812  -0.1579997  -0.0929463  )
        95           H   tau(  95) = (  -0.0558755   0.1374531   0.0525413  )
        96           H   tau(  96) = (  -0.1054172   0.0728324   0.0495505  )
        97           H   tau(  97) = (  -0.0422242  -0.0499942   0.0790206  )
        98           H   tau(  98) = (  -0.0505038  -0.0900085   0.1447744  )
        99           H   tau(  99) = (   0.0455726  -0.2201442   0.1551225  )
       100           H   tau( 100) = (  -0.0267595  -0.2021530   0.1592741  )
       101           H   tau( 101) = (   0.3139393  -0.2326584  -0.2379432  )
       102           H   tau( 102) = (   0.2702536  -0.1697760  -0.2501657  )
       103           H   tau( 103) = (   0.2773209   0.2628083   0.1576760  )
       104           H   tau( 104) = (   0.3114157   0.2481836   0.0854967  )
       105           H   tau( 105) = (   0.2740837  -0.1105428   0.1416154  )
       106           H   tau( 106) = (   0.2904864  -0.1872423   0.1312774  )
       107           H   tau( 107) = (  -0.1146964  -0.1332167  -0.2020162  )
       108           H   tau( 108) = (  -0.1840085  -0.1465242  -0.2368916  )
       109           H   tau( 109) = (  -0.0208122   0.1397924  -0.2052833  )
       110           H   tau( 110) = (  -0.0733441   0.0950063  -0.2387971  )
       111           H   tau( 111) = (   0.2418882   0.1357174   0.1528800  )
       112           H   tau( 112) = (   0.1737358   0.1531995   0.1213933  )
       113           H   tau( 113) = (   0.1351444   0.0449424  -0.1938632  )
       114           H   tau( 114) = (   0.0802161   0.0971537  -0.1751853  )
       115           H   tau( 115) = (  -0.2490417   0.0958656  -0.2812655  )
       116           H   tau( 116) = (  -0.2000205   0.1515575  -0.2961924  )
       117           H   tau( 117) = (   0.2018637  -0.2569715  -0.0601383  )
       118           H   tau( 118) = (   0.2693264  -0.2869845  -0.0462635  )
       119           H   tau( 119) = (   0.1382320  -0.0707250  -0.2643511  )
       120           H   tau( 120) = (   0.0648086  -0.0436280  -0.2590287  )
       121           H   tau( 121) = (  -0.0866674  -0.0192373  -0.2807810  )
       122           H   tau( 122) = (  -0.1499106   0.0160609  -0.2516447  )
       123           H   tau( 123) = (   0.0382793   0.0277743   0.0599879  )
       124           H   tau( 124) = (   0.0858924  -0.0052525   0.0101878  )
       125           H   tau( 125) = (   0.2010024  -0.1107104  -0.1586169  )
       126           H   tau( 126) = (   0.2697907  -0.0800672  -0.1453261  )
       127           H   tau( 127) = (   0.2769046   0.0462197  -0.0346029  )
       128           H   tau( 128) = (   0.2813776  -0.0265585  -0.0403212  )
       129           H   tau( 129) = (  -0.0191492   0.1984194   0.1330660  )
       130           H   tau( 130) = (  -0.0403169   0.2671803   0.1096347  )
       131           H   tau( 131) = (  -0.2478572   0.0283472  -0.1532525  )
       132           H   tau( 132) = (  -0.2944123   0.0428861  -0.2081295  )
       133           H   tau( 133) = (   0.0189250  -0.2365783  -0.0104134  )
       134           H   tau( 134) = (   0.0698928  -0.1855762   0.0170647  )
       135           H   tau( 135) = (   0.1898630   0.2110930  -0.2532551  )
       136           H   tau( 136) = (   0.2355750   0.1480819  -0.2457339  )
       137           H   tau( 137) = (   0.1684221   0.2725791   0.2436513  )
       138           H   tau( 138) = (   0.1330894   0.3051420   0.3004256  )
       139           H   tau( 139) = (  -0.2768784   0.1833162  -0.0553884  )
       140           H   tau( 140) = (  -0.2226018   0.2236263  -0.0910485  )
       141           H   tau( 141) = (   0.0033448   0.0133726  -0.1131916  )
       142           H   tau( 142) = (  -0.0375545   0.0259031  -0.0490154  )
       143           H   tau( 143) = (  -0.1641675  -0.1432487  -0.0810932  )
       144           H   tau( 144) = (  -0.1160518  -0.2004446  -0.0661965  )
       145           H   tau( 145) = (  -0.1788781   0.2855985   0.1468551  )
       146           H   tau( 146) = (  -0.1343173   0.2853280   0.2117695  )
       147           H   tau( 147) = (  -0.0629313   0.1128924   0.1757721  )
       148           H   tau( 148) = (  -0.1038849   0.1796350   0.1946732  )
       149           H   tau( 149) = (  -0.1070282  -0.0618858  -0.0324682  )
       150           H   tau( 150) = (  -0.1537718  -0.0187424   0.0054000  )
       151           H   tau( 151) = (  -0.1232021  -0.1194729   0.2383343  )
       152           H   tau( 152) = (  -0.0528891  -0.1360545   0.2703599  )
       153           H   tau( 153) = (   0.0630151   0.0736700   0.2807513  )
       154           H   tau( 154) = (   0.0031282   0.1227287   0.2790874  )
       155           H   tau( 155) = (  -0.2492993   0.1745820   0.1124789  )
       156           H   tau( 156) = (  -0.1899009   0.1418846   0.0764743  )
       157           H   tau( 157) = (   0.1717480   0.2411434  -0.0195526  )
       158           H   tau( 158) = (   0.1460876   0.2108021  -0.0818268  )
       159           H   tau( 159) = (   0.1795225  -0.2792765  -0.1885666  )
       160           H   tau( 160) = (   0.1077058  -0.2680450  -0.1592114  )
       161           H   tau( 161) = (  -0.1217108   0.1984993  -0.1581799  )
       162           H   tau( 162) = (  -0.0800136   0.2105920  -0.0980416  )
       163           H   tau( 163) = (   0.2932568  -0.0092015   0.2712324  )
       164           H   tau( 164) = (   0.2208010   0.0150056   0.2632517  )
       165           H   tau( 165) = (  -0.1148260  -0.0218873   0.0983089  )
       166           H   tau( 166) = (  -0.1770950   0.0111757   0.1375813  )
       167           H   tau( 167) = (   0.0125599  -0.1303450  -0.1266992  )
       168           H   tau( 168) = (  -0.0379270  -0.1074420  -0.0767157  )
       169           H   tau( 169) = (   0.0053589  -0.1569560  -0.2264394  )
       170           H   tau( 170) = (   0.0354056  -0.1413699  -0.2941995  )
       171           H   tau( 171) = (   0.2562347  -0.3111995   0.2466212  )
       172           H   tau( 172) = (   0.3213155  -0.2735220   0.2411027  )
       173           H   tau( 173) = (   0.2954750  -0.1580924  -0.0019137  )
       174           H   tau( 174) = (   0.2361535  -0.1121811   0.0019457  )
       175           H   tau( 175) = (   0.2378024   0.0061627   0.0993101  )
       176           H   tau( 176) = (   0.1811346  -0.0352983   0.1296165  )
       177           H   tau( 177) = (   0.0594202   0.2037733  -0.2622895  )
       178           H   tau( 178) = (   0.0807939   0.2623766  -0.2092211  )
       179           H   tau( 179) = (  -0.0618286  -0.3352288   0.0281598  )
       180           H   tau( 180) = (  -0.0708996  -0.2590697   0.0110253  )
       181           H   tau( 181) = (  -0.2539071  -0.0991207  -0.3242850  )
       182           H   tau( 182) = (  -0.2407003  -0.0466912  -0.2669838  )
       183           H   tau( 183) = (  -0.2268958   0.1104273  -0.0525084  )
       184           H   tau( 184) = (  -0.2351005   0.0638073   0.0087237  )
       185           H   tau( 185) = (   0.2890537   0.1094837  -0.1172981  )
       186           H   tau( 186) = (   0.2153578   0.0928460  -0.1318875  )
       187           H   tau( 187) = (   0.1853401   0.0098021  -0.0501913  )
       188           H   tau( 188) = (   0.1180405   0.0133315  -0.0911900  )
       189           H   tau( 189) = (  -0.3090279  -0.0584336   0.0822805  )
       190           H   tau( 190) = (  -0.2371279  -0.0734066   0.1075983  )
       191           H   tau( 191) = (   0.0338937   0.1402455   0.0755483  )
       192           H   tau( 192) = (   0.0957565   0.1535997   0.0348352  )

     number of k points=     1  Marzari-Vanderbilt smearing, width (Ry)=  0.0250
                       cart. coord. in units 2pi/alat
        k(    1) = (   0.0000000   0.0000000   0.0000000), wk =   2.0000000

     Dense  grid:   177509 G-vectors     FFT dimensions: (  72,  72,  72)

     Estimated max dynamical RAM per process >      67.80Mb

     Estimated total allocated dynamical RAM >    1898.40Mb

     Initial potential from superposition of free atoms
     Check: negative starting charge=   -0.845328

     starting charge  511.99856, renormalised to  512.00000

     negative rho (up, down):  8.453E-01 0.000E+00
     Starting wfc are  384 randomized atomic wfcs

     total cpu time spent up to now is        0.8 secs

     per-process dynamical memory:    45.9 Mb

     Self-consistent Calculation

     iteration #  1     ecut=    30.00 Ry     beta=0.70
     Davidson diagonalization with overlap
     ethr =  1.00E-02,  avg # of iterations =  8.0

     negative rho (up, down):  2.064E-01 0.000E+00

     total cpu time spent up to now is        9.0 secs

     total energy              =   -1786.90108371 Ry
     Harris-Foulkes estimate   =   -1814.53900072 Ry
     estimated scf accuracy    <      42.27792491 Ry

     iteration #  2     ecut=    30.00 Ry     beta=0.70
     Davidson diagonalization with overlap
     ethr =  8.26E-03,  avg # of iterations =  4.0

     negative rho (up, down):  1.857E-03 0.000E+00

     total cpu time spent up to now is       12.2 secs

     total energy              =   -1763.41500649 Ry
     Harris-Foulkes estimate   =   -1802.28021919 Ry
     estimated scf accuracy    <      95.62676048 Ry

     iteration #  3     ecut=    30.00 Ry     beta=0.70
     Davidson diagonalization with overlap
     ethr =  8.26E-03,  avg # of iterations =  5.0

     negative rho (up, down):  3.974E-06 0.000E+00

     total cpu time spent up to now is       16.1 secs

     total energy              =   -1789.60219404 Ry
     Harris-Foulkes estimate   =   -1802.25290929 Ry
     estimated scf accuracy    <      40.20770447 Ry

     iteration #  4     ecut=    30.00 Ry     beta=0.70
     Davidson diagonalization with overlap
     ethr =  7.85E-03,  avg # of iterations =  3.0

     total cpu time spent up to now is       17.9 secs

     total energy              =   -1794.87759924 Ry
     Harris-Foulkes estimate   =   -1797.26325723 Ry
     estimated scf accuracy    <       7.66531317 Ry

     iteration #  5     ecut=    30.00 Ry     beta=0.70
     Davidson diagonalization with overlap
     ethr =  1.50E-03,  avg # of iterations =  6.0

     total cpu time spent up to now is       20.8 secs

     total energy              =   -1794.58700621 Ry
     Harris-Foulkes estimate   =   -1795.30456943 Ry
     estimated scf accuracy    <       3.15187971 Ry

     iteration #  6     ecut=    30.00 Ry     beta=0.70
     Davidson diagonalization with overlap
     ethr =  6.16E-04,  avg # of iterations =  5.0

     total cpu time spent up to now is       23.2 secs

     total energy              =   -1794.25563663 Ry
     Harris-Foulkes estimate   =   -1794.66937110 Ry
     estimated scf accuracy    <       1.53196998 Ry

     iteration #  7     ecut=    30.00 Ry     beta=0.70
     Davidson diagonalization with overlap
     ethr =  2.99E-04,  avg # of iterations =  5.0

     total cpu time spent up to now is       25.7 secs

     total energy              =   -1794.28132653 Ry
     Harris-Foulkes estimate   =   -1794.44774912 Ry
     estimated scf accuracy    <       1.54958167 Ry

     iteration #  8     ecut=    30.00 Ry     beta=0.70
     Davidson diagonalization with overlap
     ethr =  2.99E-04,  avg # of iterations =  1.0

     total cpu time spent up to now is       26.8 secs

     total energy              =   -1794.29836125 Ry
     Harris-Foulkes estimate   =   -1794.32524383 Ry
     estimated scf accuracy    <       0.19225417 Ry

     iteration #  9     ecut=    30.00 Ry     beta=0.70
     Davidson diagonalization with overlap
     ethr =  3.75E-05,  avg # of iterations = 12.0

     total cpu time spent up to now is       31.2 secs

     total energy              =   -1794.24681032 Ry
     Harris-Foulkes estimate   =   -1794.31715672 Ry
     estimated scf accuracy    <       0.34701658 Ry

     iteration # 10     ecut=    30.00 Ry     beta=0.70
     Davidson diagonalization with overlap
     ethr =  3.75E-05,  avg # of iterations =  8.0

     total cpu time spent up to now is       34.8 secs

     total energy              =   -1794.27849585 Ry
     Harris-Foulkes estimate   =   -1794.29483167 Ry
     estimated scf accuracy    <       0.10970924 Ry

     iteration # 11     ecut=    30.00 Ry     beta=0.70
     Davidson diagonalization with overlap
     ethr =  2.14E-05,  avg # of iterations =  2.0

     total cpu time spent up to now is       36.3 secs

     total energy              =   -1794.28153488 Ry
     Harris-Foulkes estimate   =   -1794.28832526 Ry
     estimated scf accuracy    <       0.02771761 Ry

     iteration # 12     ecut=    30.00 Ry     beta=0.70
     Davidson diagonalization with overlap
     ethr =  5.41E-06,  avg # of iterations =  5.0

     total cpu time spent up to now is       38.7 secs

     total energy              =   -1794.27993642 Ry
     Harris-Foulkes estimate   =   -1794.28456570 Ry
     estimated scf accuracy    <       0.03618839 Ry

     iteration # 13     ecut=    30.00 Ry     beta=0.70
     Davidson diagonalization with overlap
     ethr =  5.41E-06,  avg # of iterations =  2.0

     total cpu time spent up to now is       40.1 secs

     total energy              =   -1794.27948204 Ry
     Harris-Foulkes estimate   =   -1794.28265498 Ry
     estimated scf accuracy    <       0.01607085 Ry

     iteration # 14     ecut=    30.00 Ry     beta=0.70
     Davidson diagonalization with overlap
     ethr =  3.14E-06,  avg # of iterations =  2.0

     total cpu time spent up to now is       41.5 secs

     total energy              =   -1794.28059303 Ry
     Harris-Foulkes estimate   =   -1794.28157325 Ry
     estimated scf accuracy    <       0.00574710 Ry

     iteration # 15     ecut=    30.00 Ry     beta=0.70
     Davidson diagonalization with overlap
     ethr =  1.12E-06,  avg # of iterations =  2.0

     total cpu time spent up to now is       42.9 secs

     total energy              =   -1794.28110005 Ry
     Harris-Foulkes estimate   =   -1794.28124107 Ry
     estimated scf accuracy    <       0.00067642 Ry

     iteration # 16     ecut=    30.00 Ry     beta=0.70
     Davidson diagonalization with overlap
     ethr =  1.32E-07,  avg # of iterations =  2.0

     total cpu time spent up to now is       44.4 secs

     total energy              =   -1794.28117820 Ry
     Harris-Foulkes estimate   =   -1794.28118918 Ry
     estimated scf accuracy    <       0.00006797 Ry

     iteration # 17     ecut=    30.00 Ry     beta=0.70
     Davidson diagonalization with overlap
     ethr =  1.33E-08,  avg # of iterations =  2.0

     total cpu time spent up to now is       45.8 secs

     total energy              =   -1794.28118527 Ry
     Harris-Foulkes estimate   =   -1794.28118869 Ry
     estimated scf accuracy    <       0.00001983 Ry

     iteration # 18     ecut=    30.00 Ry     beta=0.70
     Davidson diagonalization with overlap
     ethr =  3.87E-09,  avg # of iterations =  2.0

     total cpu time spent up to now is       47.2 secs

     total energy              =   -1794.28118689 Ry
     Harris-Foulkes estimate   =   -1794.28118756 Ry
     estimated scf accuracy    <       0.00000349 Ry

     iteration # 19     ecut=    30.00 Ry     beta=0.70
     Davidson diagonalization with overlap
     ethr =  6.82E-10,  avg # of iterations =  2.0

     total cpu time spent up to now is       48.7 secs

     total energy              =   -1794.28118734 Ry
     Harris-Foulkes estimate   =   -1794.28118738 Ry
     estimated scf accuracy    <       0.00000067 Ry

     iteration # 20     ecut=    30.00 Ry     beta=0.70
     Davidson diagonalization with overlap
     ethr =  1.32E-10,  avg # of iterations =  2.0

     total cpu time spent up to now is       50.1 secs

     total energy              =   -1794.28118745 Ry
     Harris-Foulkes estimate   =   -1794.28118743 Ry
     estimated scf accuracy    <       0.00000013 Ry

     iteration # 21     ecut=    30.00 Ry     beta=0.70
     Davidson diagonalization with overlap
     ethr =  2.46E-11,  avg # of iterations =  2.0

     total cpu time spent up to now is       51.6 secs

     total energy              =   -1794.28118747 Ry
     Harris-Foulkes estimate   =   -1794.28118747 Ry
     estimated scf accuracy    <       0.00000003 Ry

     iteration # 22     ecut=    30.00 Ry     beta=0.70
     Davidson diagonalization with overlap
     ethr =  6.05E-12,  avg # of iterations =  2.0

     total cpu time spent up to now is       53.1 secs

     total energy              =   -1794.28118746 Ry
     Harris-Foulkes estimate   =   -1794.28118747 Ry
     estimated scf accuracy    <       0.00000003 Ry

     iteration # 23     ecut=    30.00 Ry     beta=0.70
     Davidson diagonalization with overlap
     ethr =  5.16E-12,  avg # of iterations =  2.0

     total cpu time spent up to now is       54.6 secs

     End of self-consistent calculation

          k = 0.0000 0.0000 0.0000 ( 22119 PWs)   bands (ev):

   -43.3978 -42.4946 -39.9495 -39.7864 -38.9745 -37.9164 -37.8386 -37.0884
   -36.8432 -36.2340 -35.6528 -35.4468 -34.9336 -34.8379 -34.5050 -34.0663
   -33.6186 -33.5489 -33.4048 -32.8541 -32.6548 -32.3638 -32.2589 -31.9500
   -31.8145 -31.3944 -31.2623 -30.9416 -30.6663 -30.5335 -30.3353 -30.2832
   -29.9657 -29.8965 -29.8137 -29.5489 -29.3406 -29.1636 -28.9582 -28.7906
   -28.7720 -28.5331 -28.2508 -28.1670 -28.0057 -27.9410 -27.7412 -27.6055
   -27.5038 -27.4919 -27.3646 -27.3045 -27.1084 -27.0413 -26.8467 -26.7308
   -26.5802 -26.4835 -26.3508 -26.1897 -25.8400 -25.6623 -25.5470 -25.3095
   -23.5030 -22.8505 -22.1528 -21.9833 -21.5210 -21.4230 -20.9860 -20.5917
   -20.3054 -20.0436 -20.0151 -19.5620 -19.3122 -19.0996 -19.0733 -18.8664
   -18.6165 -18.3927 -18.2975 -18.0421 -17.9051 -17.6423 -17.3881 -17.2550
   -17.1188 -16.9649 -16.8919 -16.6745 -16.5186 -16.3760 -15.9635 -15.8314
   -15.6170 -15.5699 -15.3758 -15.2380 -15.1033 -14.9828 -14.7965 -14.6962
   -14.5038 -14.3480 -14.2373 -14.2111 -14.0084 -13.9824 -13.8569 -13.6823
   -13.6238 -13.4786 -13.2656 -13.2044 -13.1100 -12.8332 -12.7560 -12.6701
   -12.5754 -12.3449 -12.3067 -12.1313 -11.7354 -11.4017 -11.1751 -10.8237
   -10.5399 -10.4129 -10.1360  -9.9252  -9.7191  -9.6192  -9.2777  -9.0049
    -8.8193  -8.4190  -8.1336  -8.0436  -7.7674  -7.6708  -7.5919  -7.4152
    -7.2182  -7.1534  -6.9519  -6.8224  -6.7896  -6.6693  -6.4565  -6.4169
    -6.3247  -6.2699  -6.1410  -5.9305  -5.8790  -5.6525  -5.5945  -5.5564
    -5.4389  -5.3130  -5.2316  -5.0901  -4.9937  -4.9514  -4.8676  -4.7285
    -4.6798  -4.4934  -4.4364  -4.3451  -4.2353  -4.1686  -4.1174  -3.9970
    -3.8418  -3.8039  -3.6921  -3.6477  -3.5557  -3.4868  -3.4415  -3.3684
    -3.3172  -3.2666  -3.0962  -2.9603  -2.8914  -2.7971  -2.6358  -2.5122
    -2.4603  -2.3222  -2.2174  -2.1381  -2.0624  -1.9880  -1.9340  -1.8855
    -1.8658  -1.6451  -1.5715  -1.4267  -1.3540  -1.2849  -1.2098  -1.1322
    -1.0044  -0.8893  -0.7847  -0.7136  -0.5879  -0.5107  -0.4090  -0.3028
    -0.1654  -0.0755   0.0075   0.2671   0.3388   0.4675   0.5590   0.6061
     0.6547   0.8692   1.0664   1.1988   1.3226   1.3234   1.4269   1.4872
     1.6216   1.7354   1.9076   2.0269   2.2557   2.2924   2.4714   2.5842
     2.6998   2.7296   2.9542   3.0548   3.1800   3.5493   3.8206   3.9051
     4.0386   4.3394   4.4941   4.6983   5.1660   5.2202   5.2581   5.3875
     5.6303   6.1003   6.2256   6.5111   6.7049   7.1185   7.2266   7.3638
     7.4216   7.4809   7.6562   7.7734   8.1475   8.3205   8.4677   8.7573
     8.8010   9.0400   9.2086   9.3501   9.5817   9.6210   9.8683   9.9450
    10.0252  10.1518  10.3196  10.3955  10.4696  10.6161  10.6740  10.7462
    10.8942  10.9304  10.9789  11.1902  11.3113  11.3819  11.5362  11.5940
    11.6167  11.6597  11.8257  11.8733  11.9995  12.0695  12.1459  12.2387
    12.2703  12.3391  12.4300

     the Fermi energy is     5.5392 ev

!    total energy              =   -1794.28118745 Ry
     Harris-Foulkes estimate   =   -1794.28118747 Ry
     estimated scf accuracy    <          3.0E-09 Ry

     The total energy is the sum of the following terms:

     one-electron contribution =  -16005.24621430 Ry
     hartree contribution      =    8171.23951438 Ry
     xc contribution           =    -639.22665947 Ry
     ewald contribution        =    6678.94962484 Ry
     smearing contrib. (-TS)   =       0.00254709 Ry

     convergence has been achieved in  23 iterations

     Writing output data file pwscf.save
 
     init_run     :      0.56s CPU      0.62s WALL (       1 calls)
     electrons    :     52.30s CPU     53.85s WALL (       1 calls)

     Called by init_run:
     wfcinit      :      0.46s CPU      0.51s WALL (       1 calls)
     potinit      :      0.02s CPU      0.03s WALL (       1 calls)

     Called by electrons:
     c_bands      :     49.94s CPU     51.22s WALL (      23 calls)
     sum_band     :      1.98s CPU      2.03s WALL (      23 calls)
     v_of_rho     :      0.19s CPU      0.20s WALL (      24 calls)
     mix_rho      :      0.14s CPU      0.27s WALL (      23 calls)

     Called by c_bands:
     init_us_2    :      0.06s CPU      0.07s WALL (      47 calls)
     cegterg      :     49.84s CPU     51.07s WALL (      23 calls)

     Called by sum_band:

     Called by *egterg:
     h_psi        :      8.75s CPU      8.90s WALL (     110 calls)
     g_psi        :      0.07s CPU      0.07s WALL (      86 calls)
     cdiaghg      :     31.48s CPU     31.51s WALL (     109 calls)

     Called by h_psi:
     h_psi:pot    :      8.53s CPU      8.68s WALL (     110 calls)
     h_psi:calbec :      0.31s CPU      0.32s WALL (     110 calls)
     vloc_psi     :      7.94s CPU      8.07s WALL (     110 calls)
     add_vuspsi   :      0.28s CPU      0.28s WALL (     110 calls)

     General routines
     calbec       :      0.31s CPU      0.32s WALL (     110 calls)
     fft          :      0.11s CPU      0.11s WALL (     263 calls)
     fftw         :      8.88s CPU      9.04s WALL (   39161 calls)
     davcio       :      0.02s CPU      0.13s WALL (     368 calls)
 
     Parallel routines
     fft_scatter  :      2.88s CPU      2.95s WALL (   39424 calls)
 
     PWSCF        :    53.03s CPU        54.85s WALL

 
   This run was terminated on:   7:28:33   2Feb2018            

=------------------------------------------------------------------------------=
   JOB DONE.
=------------------------------------------------------------------------------=
