
     Program PWSCF v.6.0 (svn rev. 13079) starts on  2Feb2018 at  7:28:33 

     This program is part of the open-source Quantum ESPRESSO suite
     for quantum simulation of materials; please cite
         "P. Giannozzi et al., J. Phys.:Condens. Matter 21 395502 (2009);
          URL http://www.quantum-espresso.org", 
     in publications or presentations arising from this work. More details at
     http://www.quantum-espresso.org/quote

     Parallel version (MPI), running on    28 processors
     R & G space division:  proc/nbgrp/npool/nimage =      28
     Reading input from input/scf-bigwater-1/163.in
Warning: card &IONS ignored
Warning: card     POT_EXTRAPOLATION='SECOND-ORDER' ignored
Warning: card     WFC_EXTRAPOLATION='SECOND-ORDER' ignored
Warning: card     ION_TEMPERATURE = 'ANDERSEN' ignored
Warning: card     TEMPW = 1000 ignored
Warning: card / ignored

     Current dimensions of program PWSCF are:
     Max number of different atomic species (ntypx) = 10
     Max number of k-points (npk) =  40000
     Max angular momentum in pseudopotentials (lmaxx) =  3

     Subspace diagonalization in iterative solution of the eigenvalue problem:
     a serial algorithm will be used

 
     Parallelization info
     --------------------
     sticks:   dense  smooth     PW     G-vecs:    dense   smooth      PW
     Min         136     136     33                 6338     6338     787
     Max         137     137     34                 6341     6341     792
     Sum        3809    3809    949               177509   177509   22119
 


     bravais-lattice index     =            1
     lattice parameter (alat)  =      20.0000  a.u.
     unit-cell volume          =    8000.0000 (a.u.)^3
     number of atoms/cell      =          192
     number of atomic types    =            2
     number of electrons       =       512.00
     number of Kohn-Sham states=          307
     kinetic-energy cutoff     =      30.0000  Ry
     charge density cutoff     =     120.0000  Ry
     convergence threshold     =      1.0E-08
     mixing beta               =       0.7000
     number of iterations used =            8  plain     mixing
     Exchange-correlation      = BLYP ( 1  3  1  3 0 0)

     celldm(1)=  20.000000  celldm(2)=   0.000000  celldm(3)=   0.000000
     celldm(4)=   0.000000  celldm(5)=   0.000000  celldm(6)=   0.000000

     crystal axes: (cart. coord. in units of alat)
               a(1) = (   1.000000   0.000000   0.000000 )  
               a(2) = (   0.000000   1.000000   0.000000 )  
               a(3) = (   0.000000   0.000000   1.000000 )  

     reciprocal axes: (cart. coord. in units 2 pi/alat)
               b(1) = (  1.000000  0.000000  0.000000 )  
               b(2) = (  0.000000  1.000000  0.000000 )  
               b(3) = (  0.000000  0.000000  1.000000 )  


     PseudoPot. # 1 for  H read from file:
     ./H.blyp-hgh.UPF
     MD5 check sum: c576e69559cde411e611be972c763230
     Pseudo is Norm-conserving, Zval =  1.0
     Generated in analytical, separable form
     Using radial grid of  929 points,  0 beta functions with: 

     PseudoPot. # 2 for  O read from file:
     ./O.blyp-hgh.UPF
     MD5 check sum: d0b7156309aa9befef28faac7bc56342
     Pseudo is Norm-conserving, Zval =  6.0
     Generated in analytical, separable form
     Using radial grid of 1095 points,  1 beta functions with: 
                l(1) =   0

     atomic species   valence    mass     pseudopotential
        H              1.00     1.01000      H( 1.00)
        O              6.00    16.00000      O( 1.00)

     No symmetry found



   Cartesian axes

     site n.     atom                  positions (alat units)
         1           O   tau(   1) = (  -0.2632543  -0.0739276  -0.0822995  )
         2           O   tau(   2) = (   0.1934570  -0.1027675   0.2694612  )
         3           O   tau(   3) = (  -0.2873953   0.2752047  -0.2713331  )
         4           O   tau(   4) = (  -0.0078298   0.1928634  -0.0732341  )
         5           O   tau(   5) = (  -0.2369750   0.0388538   0.1972571  )
         6           O   tau(   6) = (  -0.0113058   0.2745677   0.2625475  )
         7           O   tau(   7) = (  -0.0069748  -0.2706468  -0.1694972  )
         8           O   tau(   8) = (   0.1240828   0.0047916   0.1792836  )
         9           O   tau(   9) = (  -0.1427502  -0.2652458   0.2838751  )
        10           O   tau(  10) = (   0.1012501  -0.1399378   0.0995156  )
        11           O   tau(  11) = (   0.1288494  -0.3060918   0.1451144  )
        12           O   tau(  12) = (  -0.2010337  -0.1491909   0.2259600  )
        13           O   tau(  13) = (  -0.2218868  -0.2910189   0.0357978  )
        14           O   tau(  14) = (  -0.1808553  -0.2858910  -0.1907343  )
        15           O   tau(  15) = (   0.1220071  -0.1397325  -0.1166906  )
        16           O   tau(  16) = (  -0.1013222   0.1217237   0.0457682  )
        17           O   tau(  17) = (  -0.0606009  -0.0905632   0.0965477  )
        18           O   tau(  18) = (   0.0114159  -0.2091165   0.1889223  )
        19           O   tau(  19) = (   0.2686005  -0.2188112  -0.2494552  )
        20           O   tau(  20) = (   0.2705000   0.2500605   0.1113198  )
        21           O   tau(  21) = (   0.2934053  -0.1503213   0.1631371  )
        22           O   tau(  22) = (  -0.1617602  -0.1421931  -0.1940661  )
        23           O   tau(  23) = (  -0.0444850   0.1340319  -0.2472379  )
        24           O   tau(  24) = (   0.1971814   0.1183251   0.1460379  )
        25           O   tau(  25) = (   0.1167078   0.0709613  -0.1566339  )
        26           O   tau(  26) = (  -0.2408444   0.1313947  -0.3133591  )
        27           O   tau(  27) = (   0.2251554  -0.2997122  -0.0618630  )
        28           O   tau(  28) = (   0.1011351  -0.0629425  -0.2335197  )
        29           O   tau(  29) = (  -0.1032390   0.0057526  -0.2419861  )
        30           O   tau(  30) = (   0.0474004  -0.0166627   0.0413116  )
        31           O   tau(  31) = (   0.2369687  -0.0868148  -0.1803806  )
        32           O   tau(  32) = (   0.2620948   0.0068968  -0.0092011  )
        33           O   tau(  33) = (  -0.0076899   0.2321011   0.0999291  )
        34           O   tau(  34) = (  -0.2461821   0.0372649  -0.2016507  )
        35           O   tau(  35) = (   0.0374774  -0.1914621  -0.0198628  )
        36           O   tau(  36) = (   0.2262500   0.1917626  -0.2262192  )
        37           O   tau(  37) = (   0.1680348   0.2721627   0.2926684  )
        38           O   tau(  38) = (  -0.2666793   0.2022110  -0.0995418  )
        39           O   tau(  39) = (  -0.0200702   0.0482170  -0.0889570  )
        40           O   tau(  40) = (  -0.1558039  -0.1784797  -0.0480015  )
        41           O   tau(  41) = (  -0.1349212   0.2748742   0.1642122  )
        42           O   tau(  42) = (  -0.0797956   0.1405180   0.2121161  )
        43           O   tau(  43) = (  -0.1284252  -0.0182857  -0.0368040  )
        44           O   tau(  44) = (  -0.0769181  -0.1047162   0.2413509  )
        45           O   tau(  45) = (   0.0312795   0.0946260   0.2507599  )
        46           O   tau(  46) = (  -0.2328788   0.1637656   0.0680353  )
        47           O   tau(  47) = (   0.1482079   0.2008464  -0.0341672  )
        48           O   tau(  48) = (   0.1355209  -0.2995570  -0.1842609  )
        49           O   tau(  49) = (  -0.1250550   0.2233809  -0.1164726  )
        50           O   tau(  50) = (   0.2658249   0.0313501   0.2715445  )
        51           O   tau(  51) = (  -0.1468464   0.0154245   0.0983263  )
        52           O   tau(  52) = (  -0.0347852  -0.1165348  -0.1248682  )
        53           O   tau(  53) = (   0.0018937  -0.1696675  -0.2731760  )
        54           O   tau(  54) = (   0.2890884  -0.2966703   0.2127937  )
        55           O   tau(  55) = (   0.2464196  -0.1595810  -0.0060939  )
        56           O   tau(  56) = (   0.2305561  -0.0365987   0.1227733  )
        57           O   tau(  57) = (   0.0625585   0.2169306  -0.2158100  )
        58           O   tau(  58) = (  -0.0381097  -0.2934432   0.0206843  )
        59           O   tau(  59) = (  -0.2744968  -0.0759800  -0.2867996  )
        60           O   tau(  60) = (  -0.2330605   0.0635283  -0.0399782  )
        61           O   tau(  61) = (   0.2577500   0.0719532  -0.1175901  )
        62           O   tau(  62) = (   0.1434377  -0.0151496  -0.0603056  )
        63           O   tau(  63) = (  -0.2633613  -0.0664943   0.0673610  )
        64           O   tau(  64) = (   0.0797554   0.1256389   0.0722002  )
        65           H   tau(  65) = (  -0.2678240  -0.0793417  -0.0333560  )
        66           H   tau(  66) = (  -0.2287448  -0.0388578  -0.0854526  )
        67           H   tau(  67) = (   0.1916042  -0.1431971   0.2968981  )
        68           H   tau(  68) = (   0.1618214  -0.1128674   0.2334635  )
        69           H   tau(  69) = (  -0.3271079   0.2515071  -0.2537768  )
        70           H   tau(  70) = (  -0.2673191   0.2397934  -0.2981639  )
        71           H   tau(  71) = (   0.0042762   0.1446543  -0.0745728  )
        72           H   tau(  72) = (   0.0270185   0.2198100  -0.0932436  )
        73           H   tau(  73) = (  -0.2866090   0.0396725   0.1991988  )
        74           H   tau(  74) = (  -0.2267880   0.0700436   0.2341115  )
        75           H   tau(  75) = (   0.0080316   0.3176118   0.2498984  )
        76           H   tau(  76) = (   0.0091340   0.2600394   0.3038907  )
        77           H   tau(  77) = (  -0.0256371  -0.2696361  -0.1245862  )
        78           H   tau(  78) = (  -0.0480109  -0.2748250  -0.1957756  )
        79           H   tau(  79) = (   0.1449325   0.0489394   0.1736133  )
        80           H   tau(  80) = (   0.0774472   0.0134628   0.1899120  )
        81           H   tau(  81) = (  -0.1668332  -0.2679780   0.3264411  )
        82           H   tau(  82) = (  -0.0967631  -0.2773503   0.2950579  )
        83           H   tau(  83) = (   0.0993564  -0.0994703   0.0723354  )
        84           H   tau(  84) = (   0.1466922  -0.1568583   0.1020039  )
        85           H   tau(  85) = (   0.1627743  -0.3284986   0.1182109  )
        86           H   tau(  86) = (   0.0859447  -0.3232418   0.1296798  )
        87           H   tau(  87) = (  -0.1641280  -0.1773591   0.2099544  )
        88           H   tau(  88) = (  -0.2344069  -0.1535995   0.1877927  )
        89           H   tau(  89) = (  -0.2105224  -0.3343457   0.0162165  )
        90           H   tau(  90) = (  -0.2002032  -0.2569389   0.0081638  )
        91           H   tau(  91) = (  -0.2184843  -0.2578959  -0.1777874  )
        92           H   tau(  92) = (  -0.1900865  -0.3289457  -0.1693803  )
        93           H   tau(  93) = (   0.1276462  -0.0920896  -0.1066375  )
        94           H   tau(  94) = (   0.0833371  -0.1580653  -0.0933022  )
        95           H   tau(  95) = (  -0.0559323   0.1372184   0.0525384  )
        96           H   tau(  96) = (  -0.1059030   0.0728655   0.0496059  )
        97           H   tau(  97) = (  -0.0427358  -0.0500266   0.0792945  )
        98           H   tau(  98) = (  -0.0507652  -0.0902397   0.1449694  )
        99           H   tau(  99) = (   0.0453452  -0.2205792   0.1550558  )
       100           H   tau( 100) = (  -0.0269309  -0.2023144   0.1594902  )
       101           H   tau( 101) = (   0.3139461  -0.2323594  -0.2376665  )
       102           H   tau( 102) = (   0.2700843  -0.1699018  -0.2502542  )
       103           H   tau( 103) = (   0.2772406   0.2628557   0.1576040  )
       104           H   tau( 104) = (   0.3113130   0.2482590   0.0855425  )
       105           H   tau( 105) = (   0.2740138  -0.1104564   0.1418554  )
       106           H   tau( 106) = (   0.2899818  -0.1872554   0.1312906  )
       107           H   tau( 107) = (  -0.1146430  -0.1331250  -0.2018545  )
       108           H   tau( 108) = (  -0.1839721  -0.1464895  -0.2369397  )
       109           H   tau( 109) = (  -0.0209063   0.1398101  -0.2052117  )
       110           H   tau( 110) = (  -0.0733344   0.0950441  -0.2389478  )
       111           H   tau( 111) = (   0.2419361   0.1358228   0.1527758  )
       112           H   tau( 112) = (   0.1736979   0.1529947   0.1211920  )
       113           H   tau( 113) = (   0.1349618   0.0446857  -0.1937958  )
       114           H   tau( 114) = (   0.0800455   0.0970201  -0.1752144  )
       115           H   tau( 115) = (  -0.2490635   0.0957434  -0.2813974  )
       116           H   tau( 116) = (  -0.2000267   0.1514882  -0.2961144  )
       117           H   tau( 117) = (   0.2017953  -0.2570228  -0.0598984  )
       118           H   tau( 118) = (   0.2693174  -0.2869828  -0.0461244  )
       119           H   tau( 119) = (   0.1382459  -0.0708387  -0.2644289  )
       120           H   tau( 120) = (   0.0648534  -0.0434700  -0.2590429  )
       121           H   tau( 121) = (  -0.0864265  -0.0190337  -0.2808513  )
       122           H   tau( 122) = (  -0.1500342   0.0156936  -0.2516151  )
       123           H   tau( 123) = (   0.0383377   0.0277420   0.0601337  )
       124           H   tau( 124) = (   0.0860927  -0.0050355   0.0106732  )
       125           H   tau( 125) = (   0.2010661  -0.1107823  -0.1584570  )
       126           H   tau( 126) = (   0.2698800  -0.0800621  -0.1453350  )
       127           H   tau( 127) = (   0.2769613   0.0461691  -0.0347769  )
       128           H   tau( 128) = (   0.2809221  -0.0266012  -0.0403876  )
       129           H   tau( 129) = (  -0.0186852   0.1985483   0.1333606  )
       130           H   tau( 130) = (  -0.0403294   0.2671575   0.1097655  )
       131           H   tau( 131) = (  -0.2481148   0.0281861  -0.1533480  )
       132           H   tau( 132) = (  -0.2942006   0.0429044  -0.2082768  )
       133           H   tau( 133) = (   0.0189785  -0.2364817  -0.0099618  )
       134           H   tau( 134) = (   0.0700117  -0.1854186   0.0169280  )
       135           H   tau( 135) = (   0.1901395   0.2113106  -0.2537688  )
       136           H   tau( 136) = (   0.2356372   0.1482450  -0.2457756  )
       137           H   tau( 137) = (   0.1682945   0.2727989   0.2436234  )
       138           H   tau( 138) = (   0.1330735   0.3052117   0.3004872  )
       139           H   tau( 139) = (  -0.2768506   0.1831450  -0.0555600  )
       140           H   tau( 140) = (  -0.2223540   0.2232680  -0.0912502  )
       141           H   tau( 141) = (   0.0033567   0.0133475  -0.1132986  )
       142           H   tau( 142) = (  -0.0371124   0.0259012  -0.0488216  )
       143           H   tau( 143) = (  -0.1646605  -0.1432699  -0.0806839  )
       144           H   tau( 144) = (  -0.1159959  -0.2001921  -0.0663598  )
       145           H   tau( 145) = (  -0.1789484   0.2855758   0.1468241  )
       146           H   tau( 146) = (  -0.1342963   0.2853398   0.2116834  )
       147           H   tau( 147) = (  -0.0629214   0.1130713   0.1758478  )
       148           H   tau( 148) = (  -0.1037643   0.1798515   0.1950164  )
       149           H   tau( 149) = (  -0.1071562  -0.0620882  -0.0325368  )
       150           H   tau( 150) = (  -0.1537628  -0.0189448   0.0053086  )
       151           H   tau( 151) = (  -0.1231645  -0.1194333   0.2383224  )
       152           H   tau( 152) = (  -0.0529667  -0.1358245   0.2705665  )
       153           H   tau( 153) = (   0.0628500   0.0736037   0.2808972  )
       154           H   tau( 154) = (   0.0028231   0.1226176   0.2790840  )
       155           H   tau( 155) = (  -0.2491845   0.1744083   0.1124647  )
       156           H   tau( 156) = (  -0.1897474   0.1418514   0.0762555  )
       157           H   tau( 157) = (   0.1718551   0.2412821  -0.0197383  )
       158           H   tau( 158) = (   0.1461850   0.2108128  -0.0819060  )
       159           H   tau( 159) = (   0.1795392  -0.2792157  -0.1885772  )
       160           H   tau( 160) = (   0.1077349  -0.2683414  -0.1588482  )
       161           H   tau( 161) = (  -0.1217253   0.1985324  -0.1582673  )
       162           H   tau( 162) = (  -0.0798064   0.2105869  -0.0982980  )
       163           H   tau( 163) = (   0.2930808  -0.0090748   0.2712943  )
       164           H   tau( 164) = (   0.2206499   0.0150217   0.2631746  )
       165           H   tau( 165) = (  -0.1148093  -0.0217766   0.0983183  )
       166           H   tau( 166) = (  -0.1766937   0.0111457   0.1377112  )
       167           H   tau( 167) = (   0.0126505  -0.1298884  -0.1267397  )
       168           H   tau( 168) = (  -0.0380559  -0.1076469  -0.0768077  )
       169           H   tau( 169) = (   0.0050779  -0.1569516  -0.2263915  )
       170           H   tau( 170) = (   0.0353453  -0.1413205  -0.2941427  )
       171           H   tau( 171) = (   0.2564914  -0.3115493   0.2465924  )
       172           H   tau( 172) = (   0.3212868  -0.2734157   0.2410773  )
       173           H   tau( 173) = (   0.2954247  -0.1579843  -0.0022846  )
       174           H   tau( 174) = (   0.2360204  -0.1121913   0.0015973  )
       175           H   tau( 175) = (   0.2376902   0.0063226   0.0996558  )
       176           H   tau( 176) = (   0.1810869  -0.0355029   0.1292437  )
       177           H   tau( 177) = (   0.0593337   0.2038956  -0.2622860  )
       178           H   tau( 178) = (   0.0808885   0.2622206  -0.2090014  )
       179           H   tau( 179) = (  -0.0619401  -0.3352152   0.0283747  )
       180           H   tau( 180) = (  -0.0710948  -0.2592062   0.0109051  )
       181           H   tau( 181) = (  -0.2537111  -0.0992297  -0.3242340  )
       182           H   tau( 182) = (  -0.2409334  -0.0466268  -0.2667486  )
       183           H   tau( 183) = (  -0.2272238   0.1103612  -0.0524972  )
       184           H   tau( 184) = (  -0.2350109   0.0637705   0.0087928  )
       185           H   tau( 185) = (   0.2890213   0.1094256  -0.1171096  )
       186           H   tau( 186) = (   0.2153953   0.0926879  -0.1320517  )
       187           H   tau( 187) = (   0.1852507   0.0098682  -0.0503720  )
       188           H   tau( 188) = (   0.1179364   0.0133415  -0.0911605  )
       189           H   tau( 189) = (  -0.3090405  -0.0586295   0.0823308  )
       190           H   tau( 190) = (  -0.2369995  -0.0733706   0.1075534  )
       191           H   tau( 191) = (   0.0339108   0.1399188   0.0758151  )
       192           H   tau( 192) = (   0.0955985   0.1535756   0.0347684  )

     number of k points=     1  Marzari-Vanderbilt smearing, width (Ry)=  0.0250
                       cart. coord. in units 2pi/alat
        k(    1) = (   0.0000000   0.0000000   0.0000000), wk =   2.0000000

     Dense  grid:   177509 G-vectors     FFT dimensions: (  72,  72,  72)

     Estimated max dynamical RAM per process >      67.80Mb

     Estimated total allocated dynamical RAM >    1898.40Mb

     Initial potential from superposition of free atoms
     Check: negative starting charge=   -0.845395

     starting charge  511.99856, renormalised to  512.00000

     negative rho (up, down):  8.454E-01 0.000E+00
     Starting wfc are  384 randomized atomic wfcs

     total cpu time spent up to now is        0.8 secs

     per-process dynamical memory:    45.9 Mb

     Self-consistent Calculation

     iteration #  1     ecut=    30.00 Ry     beta=0.70
     Davidson diagonalization with overlap
     ethr =  1.00E-02,  avg # of iterations =  8.0

     negative rho (up, down):  2.066E-01 0.000E+00

     total cpu time spent up to now is        9.1 secs

     total energy              =   -1786.78336879 Ry
     Harris-Foulkes estimate   =   -1814.43208418 Ry
     estimated scf accuracy    <      42.30982394 Ry

     iteration #  2     ecut=    30.00 Ry     beta=0.70
     Davidson diagonalization with overlap
     ethr =  8.26E-03,  avg # of iterations =  4.0

     negative rho (up, down):  1.954E-03 0.000E+00

     total cpu time spent up to now is       12.2 secs

     total energy              =   -1763.35574993 Ry
     Harris-Foulkes estimate   =   -1802.16223440 Ry
     estimated scf accuracy    <      95.44756009 Ry

     iteration #  3     ecut=    30.00 Ry     beta=0.70
     Davidson diagonalization with overlap
     ethr =  8.26E-03,  avg # of iterations =  5.0

     negative rho (up, down):  4.345E-06 0.000E+00

     total cpu time spent up to now is       16.1 secs

     total energy              =   -1789.48743069 Ry
     Harris-Foulkes estimate   =   -1802.12531820 Ry
     estimated scf accuracy    <      40.12959813 Ry

     iteration #  4     ecut=    30.00 Ry     beta=0.70
     Davidson diagonalization with overlap
     ethr =  7.84E-03,  avg # of iterations =  3.0

     total cpu time spent up to now is       17.9 secs

     total energy              =   -1794.77011391 Ry
     Harris-Foulkes estimate   =   -1797.15642425 Ry
     estimated scf accuracy    <       7.64872314 Ry

     iteration #  5     ecut=    30.00 Ry     beta=0.70
     Davidson diagonalization with overlap
     ethr =  1.49E-03,  avg # of iterations =  6.0

     total cpu time spent up to now is       20.7 secs

     total energy              =   -1794.47761979 Ry
     Harris-Foulkes estimate   =   -1795.19393395 Ry
     estimated scf accuracy    <       3.14128601 Ry

     iteration #  6     ecut=    30.00 Ry     beta=0.70
     Davidson diagonalization with overlap
     ethr =  6.14E-04,  avg # of iterations =  5.0

     total cpu time spent up to now is       23.1 secs

     total energy              =   -1794.14361380 Ry
     Harris-Foulkes estimate   =   -1794.55984947 Ry
     estimated scf accuracy    <       1.52511892 Ry

     iteration #  7     ecut=    30.00 Ry     beta=0.70
     Davidson diagonalization with overlap
     ethr =  2.98E-04,  avg # of iterations =  5.0

     total cpu time spent up to now is       25.6 secs

     total energy              =   -1794.17326939 Ry
     Harris-Foulkes estimate   =   -1794.33455479 Ry
     estimated scf accuracy    <       1.54113821 Ry

     iteration #  8     ecut=    30.00 Ry     beta=0.70
     Davidson diagonalization with overlap
     ethr =  2.98E-04,  avg # of iterations =  1.0

     total cpu time spent up to now is       26.7 secs

     total energy              =   -1794.19221710 Ry
     Harris-Foulkes estimate   =   -1794.21848250 Ry
     estimated scf accuracy    <       0.18699762 Ry

     iteration #  9     ecut=    30.00 Ry     beta=0.70
     Davidson diagonalization with overlap
     ethr =  3.65E-05,  avg # of iterations = 12.0

     total cpu time spent up to now is       31.1 secs

     total energy              =   -1794.14203306 Ry
     Harris-Foulkes estimate   =   -1794.20860288 Ry
     estimated scf accuracy    <       0.31450169 Ry

     iteration # 10     ecut=    30.00 Ry     beta=0.70
     Davidson diagonalization with overlap
     ethr =  3.65E-05,  avg # of iterations =  9.0

     total cpu time spent up to now is       35.0 secs

     total energy              =   -1794.16922794 Ry
     Harris-Foulkes estimate   =   -1794.18785700 Ry
     estimated scf accuracy    <       0.12352817 Ry

     iteration # 11     ecut=    30.00 Ry     beta=0.70
     Davidson diagonalization with overlap
     ethr =  2.41E-05,  avg # of iterations =  2.0

     total cpu time spent up to now is       36.5 secs

     total energy              =   -1794.17345534 Ry
     Harris-Foulkes estimate   =   -1794.17947211 Ry
     estimated scf accuracy    <       0.02741379 Ry

     iteration # 12     ecut=    30.00 Ry     beta=0.70
     Davidson diagonalization with overlap
     ethr =  5.35E-06,  avg # of iterations =  4.0

     total cpu time spent up to now is       38.6 secs

     total energy              =   -1794.17195919 Ry
     Harris-Foulkes estimate   =   -1794.17594530 Ry
     estimated scf accuracy    <       0.02879502 Ry

     iteration # 13     ecut=    30.00 Ry     beta=0.70
     Davidson diagonalization with overlap
     ethr =  5.35E-06,  avg # of iterations =  2.0

     total cpu time spent up to now is       40.0 secs

     total energy              =   -1794.17227573 Ry
     Harris-Foulkes estimate   =   -1794.17469102 Ry
     estimated scf accuracy    <       0.01511779 Ry

     iteration # 14     ecut=    30.00 Ry     beta=0.70
     Davidson diagonalization with overlap
     ethr =  2.95E-06,  avg # of iterations =  1.0

     total cpu time spent up to now is       41.1 secs

     total energy              =   -1794.17318875 Ry
     Harris-Foulkes estimate   =   -1794.17373242 Ry
     estimated scf accuracy    <       0.00274931 Ry

     iteration # 15     ecut=    30.00 Ry     beta=0.70
     Davidson diagonalization with overlap
     ethr =  5.37E-07,  avg # of iterations =  2.0

     total cpu time spent up to now is       42.5 secs

     total energy              =   -1794.17345815 Ry
     Harris-Foulkes estimate   =   -1794.17359565 Ry
     estimated scf accuracy    <       0.00067593 Ry

     iteration # 16     ecut=    30.00 Ry     beta=0.70
     Davidson diagonalization with overlap
     ethr =  1.32E-07,  avg # of iterations =  2.0

     total cpu time spent up to now is       43.9 secs

     total energy              =   -1794.17352219 Ry
     Harris-Foulkes estimate   =   -1794.17353531 Ry
     estimated scf accuracy    <       0.00004251 Ry

     iteration # 17     ecut=    30.00 Ry     beta=0.70
     Davidson diagonalization with overlap
     ethr =  8.30E-09,  avg # of iterations =  2.0

     total cpu time spent up to now is       45.6 secs

     total energy              =   -1794.17352891 Ry
     Harris-Foulkes estimate   =   -1794.17353636 Ry
     estimated scf accuracy    <       0.00004342 Ry

     iteration # 18     ecut=    30.00 Ry     beta=0.70
     Davidson diagonalization with overlap
     ethr =  8.30E-09,  avg # of iterations =  2.0

     total cpu time spent up to now is       47.0 secs

     total energy              =   -1794.17353330 Ry
     Harris-Foulkes estimate   =   -1794.17353353 Ry
     estimated scf accuracy    <       0.00000174 Ry

     iteration # 19     ecut=    30.00 Ry     beta=0.70
     Davidson diagonalization with overlap
     ethr =  3.40E-10,  avg # of iterations =  2.0

     total cpu time spent up to now is       48.6 secs

     total energy              =   -1794.17353351 Ry
     Harris-Foulkes estimate   =   -1794.17353377 Ry
     estimated scf accuracy    <       0.00000192 Ry

     iteration # 20     ecut=    30.00 Ry     beta=0.70
     Davidson diagonalization with overlap
     ethr =  3.40E-10,  avg # of iterations =  2.0

     total cpu time spent up to now is       50.0 secs

     total energy              =   -1794.17353371 Ry
     Harris-Foulkes estimate   =   -1794.17353374 Ry
     estimated scf accuracy    <       0.00000047 Ry

     iteration # 21     ecut=    30.00 Ry     beta=0.70
     Davidson diagonalization with overlap
     ethr =  9.18E-11,  avg # of iterations =  2.0

     total cpu time spent up to now is       51.5 secs

     total energy              =   -1794.17353375 Ry
     Harris-Foulkes estimate   =   -1794.17353375 Ry
     estimated scf accuracy    <       0.00000002 Ry

     iteration # 22     ecut=    30.00 Ry     beta=0.70
     Davidson diagonalization with overlap
     ethr =  3.70E-12,  avg # of iterations =  3.0

     total cpu time spent up to now is       53.4 secs

     End of self-consistent calculation

          k = 0.0000 0.0000 0.0000 ( 22119 PWs)   bands (ev):

   -43.4264 -42.5014 -39.9771 -39.8008 -38.9675 -37.9172 -37.8426 -37.0991
   -36.8529 -36.2283 -35.6562 -35.4499 -34.9414 -34.8258 -34.5113 -34.0626
   -33.5986 -33.5362 -33.3927 -32.8565 -32.6406 -32.3618 -32.2541 -31.9453
   -31.8097 -31.3930 -31.2696 -30.9386 -30.6640 -30.5363 -30.3332 -30.2785
   -29.9755 -29.8950 -29.8163 -29.5508 -29.3371 -29.1657 -28.9581 -28.7886
   -28.7750 -28.5356 -28.2389 -28.1659 -28.0047 -27.9470 -27.7422 -27.6032
   -27.5173 -27.5018 -27.3640 -27.3100 -27.1122 -27.0408 -26.8508 -26.7251
   -26.5791 -26.4862 -26.3386 -26.1881 -25.8421 -25.6653 -25.5374 -25.3141
   -23.4977 -22.8415 -22.1557 -21.9758 -21.5136 -21.4195 -20.9787 -20.6035
   -20.3162 -20.0405 -20.0176 -19.5747 -19.3153 -19.0998 -19.0712 -18.8623
   -18.6021 -18.4088 -18.3026 -18.0455 -17.9092 -17.6429 -17.3900 -17.2651
   -17.1344 -16.9691 -16.8887 -16.6930 -16.5220 -16.3825 -15.9633 -15.8362
   -15.6260 -15.5726 -15.3859 -15.2460 -15.1127 -14.9695 -14.8010 -14.6976
   -14.5028 -14.3383 -14.2384 -14.2118 -14.0083 -13.9762 -13.8667 -13.6846
   -13.5868 -13.4600 -13.2648 -13.2010 -13.0947 -12.8245 -12.7588 -12.6672
   -12.5783 -12.3450 -12.3009 -12.1410 -11.7424 -11.4089 -11.1819 -10.8512
   -10.5191 -10.4146 -10.1331  -9.9231  -9.7118  -9.6099  -9.2694  -8.9978
    -8.8246  -8.4220  -8.1412  -8.0423  -7.7740  -7.6690  -7.5861  -7.4133
    -7.2056  -7.1483  -6.9684  -6.8203  -6.7833  -6.6745  -6.4544  -6.4107
    -6.3254  -6.2616  -6.1374  -5.9319  -5.8746  -5.6523  -5.5988  -5.5556
    -5.4437  -5.3156  -5.2361  -5.0920  -4.9973  -4.9546  -4.8816  -4.7250
    -4.6691  -4.4898  -4.4377  -4.3437  -4.2346  -4.1668  -4.1175  -4.0029
    -3.8409  -3.8010  -3.6930  -3.6442  -3.5517  -3.4876  -3.4496  -3.3734
    -3.3217  -3.2709  -3.1001  -2.9557  -2.8999  -2.7984  -2.6454  -2.5094
    -2.4621  -2.3203  -2.2250  -2.1437  -2.0646  -1.9840  -1.9354  -1.8939
    -1.8683  -1.6547  -1.5838  -1.4314  -1.3495  -1.3019  -1.2092  -1.1337
    -1.0005  -0.8814  -0.7880  -0.7204  -0.5781  -0.5182  -0.4061  -0.3072
    -0.1669  -0.0830   0.0007   0.2686   0.3375   0.4655   0.5561   0.6092
     0.6453   0.8538   1.0588   1.1772   1.3112   1.3196   1.4124   1.4777
     1.6179   1.7162   1.8974   2.0153   2.2487   2.2778   2.4653   2.5749
     2.6934   2.7397   2.9477   3.0517   3.1715   3.5485   3.8154   3.9036
     4.0370   4.3463   4.4863   4.7057   5.1610   5.2185   5.2563   5.3852
     5.6302   6.0977   6.2264   6.5106   6.7032   7.1175   7.2242   7.3640
     7.4230   7.4800   7.6546   7.7739   8.1467   8.3209   8.4645   8.7565
     8.8000   9.0440   9.2094   9.3474   9.5810   9.6200   9.8669   9.9484
    10.0264  10.1541  10.3189  10.3946  10.4702  10.6163  10.6730  10.7449
    10.8951  10.9296  10.9801  11.1900  11.3117  11.3810  11.5354  11.5932
    11.6158  11.6592  11.8288  11.8737  12.0000  12.0691  12.1429  12.2369
    12.2719  12.3382  12.4312

     the Fermi energy is     5.5372 ev

!    total energy              =   -1794.17353376 Ry
     Harris-Foulkes estimate   =   -1794.17353375 Ry
     estimated scf accuracy    <          9.8E-09 Ry

     The total energy is the sum of the following terms:

     one-electron contribution =  -16002.17243070 Ry
     hartree contribution      =    8169.67779136 Ry
     xc contribution           =    -639.23263843 Ry
     ewald contribution        =    6677.55094424 Ry
     smearing contrib. (-TS)   =       0.00279977 Ry

     convergence has been achieved in  22 iterations

     Writing output data file pwscf.save
 
     init_run     :      0.55s CPU      0.63s WALL (       1 calls)
     electrons    :     51.28s CPU     52.73s WALL (       1 calls)

     Called by init_run:
     wfcinit      :      0.45s CPU      0.52s WALL (       1 calls)
     potinit      :      0.02s CPU      0.02s WALL (       1 calls)

     Called by electrons:
     c_bands      :     49.07s CPU     50.24s WALL (      22 calls)
     sum_band     :      1.87s CPU      1.90s WALL (      22 calls)
     v_of_rho     :      0.18s CPU      0.19s WALL (      23 calls)
     mix_rho      :      0.12s CPU      0.26s WALL (      22 calls)

     Called by c_bands:
     init_us_2    :      0.06s CPU      0.06s WALL (      45 calls)
     cegterg      :     48.97s CPU     50.07s WALL (      22 calls)

     Called by sum_band:

     Called by *egterg:
     h_psi        :      8.52s CPU      8.65s WALL (     107 calls)
     g_psi        :      0.07s CPU      0.07s WALL (      84 calls)
     cdiaghg      :     31.25s CPU     31.28s WALL (     106 calls)

     Called by h_psi:
     h_psi:pot    :      8.31s CPU      8.43s WALL (     107 calls)
     h_psi:calbec :      0.31s CPU      0.31s WALL (     107 calls)
     vloc_psi     :      7.73s CPU      7.85s WALL (     107 calls)
     add_vuspsi   :      0.26s CPU      0.27s WALL (     107 calls)

     General routines
     calbec       :      0.31s CPU      0.31s WALL (     107 calls)
     fft          :      0.10s CPU      0.10s WALL (     252 calls)
     fftw         :      8.58s CPU      8.71s WALL (   37972 calls)
     davcio       :      0.02s CPU      0.14s WALL (     348 calls)
 
     Parallel routines
     fft_scatter  :      2.76s CPU      2.82s WALL (   38224 calls)
 
     PWSCF        :    52.00s CPU        53.73s WALL

 
   This run was terminated on:   7:29:27   2Feb2018            

=------------------------------------------------------------------------------=
   JOB DONE.
=------------------------------------------------------------------------------=
