
     Program PWSCF v.6.0 (svn rev. 13079) starts on  2Feb2018 at  7:29:28 

     This program is part of the open-source Quantum ESPRESSO suite
     for quantum simulation of materials; please cite
         "P. Giannozzi et al., J. Phys.:Condens. Matter 21 395502 (2009);
          URL http://www.quantum-espresso.org", 
     in publications or presentations arising from this work. More details at
     http://www.quantum-espresso.org/quote

     Parallel version (MPI), running on    28 processors
     R & G space division:  proc/nbgrp/npool/nimage =      28
     Reading input from input/scf-bigwater-1/164.in
Warning: card &IONS ignored
Warning: card     POT_EXTRAPOLATION='SECOND-ORDER' ignored
Warning: card     WFC_EXTRAPOLATION='SECOND-ORDER' ignored
Warning: card     ION_TEMPERATURE = 'ANDERSEN' ignored
Warning: card     TEMPW = 1000 ignored
Warning: card / ignored

     Current dimensions of program PWSCF are:
     Max number of different atomic species (ntypx) = 10
     Max number of k-points (npk) =  40000
     Max angular momentum in pseudopotentials (lmaxx) =  3

     Subspace diagonalization in iterative solution of the eigenvalue problem:
     a serial algorithm will be used

 
     Parallelization info
     --------------------
     sticks:   dense  smooth     PW     G-vecs:    dense   smooth      PW
     Min         136     136     33                 6338     6338     787
     Max         137     137     34                 6341     6341     792
     Sum        3809    3809    949               177509   177509   22119
 


     bravais-lattice index     =            1
     lattice parameter (alat)  =      20.0000  a.u.
     unit-cell volume          =    8000.0000 (a.u.)^3
     number of atoms/cell      =          192
     number of atomic types    =            2
     number of electrons       =       512.00
     number of Kohn-Sham states=          307
     kinetic-energy cutoff     =      30.0000  Ry
     charge density cutoff     =     120.0000  Ry
     convergence threshold     =      1.0E-08
     mixing beta               =       0.7000
     number of iterations used =            8  plain     mixing
     Exchange-correlation      = BLYP ( 1  3  1  3 0 0)

     celldm(1)=  20.000000  celldm(2)=   0.000000  celldm(3)=   0.000000
     celldm(4)=   0.000000  celldm(5)=   0.000000  celldm(6)=   0.000000

     crystal axes: (cart. coord. in units of alat)
               a(1) = (   1.000000   0.000000   0.000000 )  
               a(2) = (   0.000000   1.000000   0.000000 )  
               a(3) = (   0.000000   0.000000   1.000000 )  

     reciprocal axes: (cart. coord. in units 2 pi/alat)
               b(1) = (  1.000000  0.000000  0.000000 )  
               b(2) = (  0.000000  1.000000  0.000000 )  
               b(3) = (  0.000000  0.000000  1.000000 )  


     PseudoPot. # 1 for  H read from file:
     ./H.blyp-hgh.UPF
     MD5 check sum: c576e69559cde411e611be972c763230
     Pseudo is Norm-conserving, Zval =  1.0
     Generated in analytical, separable form
     Using radial grid of  929 points,  0 beta functions with: 

     PseudoPot. # 2 for  O read from file:
     ./O.blyp-hgh.UPF
     MD5 check sum: d0b7156309aa9befef28faac7bc56342
     Pseudo is Norm-conserving, Zval =  6.0
     Generated in analytical, separable form
     Using radial grid of 1095 points,  1 beta functions with: 
                l(1) =   0

     atomic species   valence    mass     pseudopotential
        H              1.00     1.01000      H( 1.00)
        O              6.00    16.00000      O( 1.00)

     No symmetry found



   Cartesian axes

     site n.     atom                  positions (alat units)
         1           O   tau(   1) = (  -0.2632709  -0.0738537  -0.0824532  )
         2           O   tau(   2) = (   0.1933478  -0.1026804   0.2694734  )
         3           O   tau(   3) = (  -0.2874074   0.2753187  -0.2712696  )
         4           O   tau(   4) = (  -0.0077840   0.1929737  -0.0731467  )
         5           O   tau(   5) = (  -0.2370107   0.0388682   0.1973064  )
         6           O   tau(   6) = (  -0.0113019   0.2746234   0.2625861  )
         7           O   tau(   7) = (  -0.0069972  -0.2706668  -0.1694719  )
         8           O   tau(   8) = (   0.1241667   0.0047062   0.1792672  )
         9           O   tau(   9) = (  -0.1427505  -0.2652667   0.2839171  )
        10           O   tau(  10) = (   0.1013600  -0.1398476   0.0996500  )
        11           O   tau(  11) = (   0.1288887  -0.3061199   0.1451116  )
        12           O   tau(  12) = (  -0.2009649  -0.1491365   0.2259965  )
        13           O   tau(  13) = (  -0.2218797  -0.2909573   0.0357856  )
        14           O   tau(  14) = (  -0.1808696  -0.2859199  -0.1908294  )
        15           O   tau(  15) = (   0.1221380  -0.1398005  -0.1167798  )
        16           O   tau(  16) = (  -0.1014047   0.1217405   0.0455118  )
        17           O   tau(  17) = (  -0.0605950  -0.0907028   0.0966711  )
        18           O   tau(  18) = (   0.0114485  -0.2090984   0.1889393  )
        19           O   tau(  19) = (   0.2685413  -0.2189396  -0.2494773  )
        20           O   tau(  20) = (   0.2704144   0.2501185   0.1113528  )
        21           O   tau(  21) = (   0.2933655  -0.1503621   0.1631333  )
        22           O   tau(  22) = (  -0.1617511  -0.1420881  -0.1941099  )
        23           O   tau(  23) = (  -0.0444950   0.1340859  -0.2472275  )
        24           O   tau(  24) = (   0.1972246   0.1183374   0.1460880  )
        25           O   tau(  25) = (   0.1167143   0.0710693  -0.1566934  )
        26           O   tau(  26) = (  -0.2407659   0.1312683  -0.3134304  )
        27           O   tau(  27) = (   0.2251911  -0.2997290  -0.0618525  )
        28           O   tau(  28) = (   0.1011740  -0.0628905  -0.2336027  )
        29           O   tau(  29) = (  -0.1032784   0.0056783  -0.2420114  )
        30           O   tau(  30) = (   0.0474551  -0.0166660   0.0413794  )
        31           O   tau(  31) = (   0.2369378  -0.0868085  -0.1802878  )
        32           O   tau(  32) = (   0.2621837   0.0069435  -0.0092977  )
        33           O   tau(  33) = (  -0.0076735   0.2321461   0.1000627  )
        34           O   tau(  34) = (  -0.2459977   0.0372893  -0.2016764  )
        35           O   tau(  35) = (   0.0375037  -0.1914794  -0.0198984  )
        36           O   tau(  36) = (   0.2261881   0.1919336  -0.2263019  )
        37           O   tau(  37) = (   0.1679303   0.2721443   0.2926488  )
        38           O   tau(  38) = (  -0.2668054   0.2024446  -0.0995539  )
        39           O   tau(  39) = (  -0.0200857   0.0481666  -0.0890365  )
        40           O   tau(  40) = (  -0.1558184  -0.1786352  -0.0479129  )
        41           O   tau(  41) = (  -0.1349895   0.2748774   0.1641716  )
        42           O   tau(  42) = (  -0.0798864   0.1405457   0.2122551  )
        43           O   tau(  43) = (  -0.1283630  -0.0183941  -0.0368310  )
        44           O   tau(  44) = (  -0.0768872  -0.1046047   0.2412913  )
        45           O   tau(  45) = (   0.0312748   0.0946657   0.2508477  )
        46           O   tau(  46) = (  -0.2327869   0.1637061   0.0680032  )
        47           O   tau(  47) = (   0.1483011   0.2009231  -0.0342329  )
        48           O   tau(  48) = (   0.1355233  -0.2994949  -0.1843306  )
        49           O   tau(  49) = (  -0.1249751   0.2233088  -0.1164835  )
        50           O   tau(  50) = (   0.2656398   0.0313482   0.2716317  )
        51           O   tau(  51) = (  -0.1467451   0.0154593   0.0983016  )
        52           O   tau(  52) = (  -0.0348019  -0.1164759  -0.1249917  )
        53           O   tau(  53) = (   0.0019284  -0.1697440  -0.2731626  )
        54           O   tau(  54) = (   0.2891243  -0.2966335   0.2127400  )
        55           O   tau(  55) = (   0.2463402  -0.1596630  -0.0059858  )
        56           O   tau(  56) = (   0.2305030  -0.0366057   0.1227623  )
        57           O   tau(  57) = (   0.0626685   0.2169510  -0.2158203  )
        58           O   tau(  58) = (  -0.0382127  -0.2934772   0.0206249  )
        59           O   tau(  59) = (  -0.2744323  -0.0760788  -0.2868266  )
        60           O   tau(  60) = (  -0.2330962   0.0634709  -0.0399268  )
        61           O   tau(  61) = (   0.2577075   0.0718987  -0.1173998  )
        62           O   tau(  62) = (   0.1434540  -0.0151629  -0.0604368  )
        63           O   tau(  63) = (  -0.2633432  -0.0665699   0.0674010  )
        64           O   tau(  64) = (   0.0797773   0.1255480   0.0721457  )
        65           H   tau(  65) = (  -0.2678139  -0.0796144  -0.0335762  )
        66           H   tau(  66) = (  -0.2288401  -0.0386820  -0.0853364  )
        67           H   tau(  67) = (   0.1919214  -0.1431745   0.2968557  )
        68           H   tau(  68) = (   0.1619194  -0.1132486   0.2333976  )
        69           H   tau(  69) = (  -0.3272115   0.2515927  -0.2539579  )
        70           H   tau(  70) = (  -0.2670864   0.2398636  -0.2978716  )
        71           H   tau(  71) = (   0.0038658   0.1446219  -0.0751220  )
        72           H   tau(  72) = (   0.0270686   0.2198847  -0.0931953  )
        73           H   tau(  73) = (  -0.2866332   0.0402636   0.1994358  )
        74           H   tau(  74) = (  -0.2265261   0.0700914   0.2340443  )
        75           H   tau(  75) = (   0.0079928   0.3176447   0.2497470  )
        76           H   tau(  76) = (   0.0092109   0.2601461   0.3039279  )
        77           H   tau(  77) = (  -0.0256732  -0.2695662  -0.1245619  )
        78           H   tau(  78) = (  -0.0480505  -0.2746046  -0.1957736  )
        79           H   tau(  79) = (   0.1451686   0.0487539   0.1737243  )
        80           H   tau(  80) = (   0.0775986   0.0135808   0.1900033  )
        81           H   tau(  81) = (  -0.1666603  -0.2678790   0.3265987  )
        82           H   tau(  82) = (  -0.0967415  -0.2775126   0.2948906  )
        83           H   tau(  83) = (   0.0991832  -0.0993705   0.0725076  )
        84           H   tau(  84) = (   0.1467773  -0.1567400   0.1021735  )
        85           H   tau(  85) = (   0.1627710  -0.3285987   0.1182059  )
        86           H   tau(  86) = (   0.0859540  -0.3233233   0.1297570  )
        87           H   tau(  87) = (  -0.1643042  -0.1777145   0.2100575  )
        88           H   tau(  88) = (  -0.2345753  -0.1543293   0.1880868  )
        89           H   tau(  89) = (  -0.2109744  -0.3343977   0.0161893  )
        90           H   tau(  90) = (  -0.1999766  -0.2570712   0.0080646  )
        91           H   tau(  91) = (  -0.2183317  -0.2576631  -0.1779244  )
        92           H   tau(  92) = (  -0.1902427  -0.3287543  -0.1691002  )
        93           H   tau(  93) = (   0.1278962  -0.0922039  -0.1065055  )
        94           H   tau(  94) = (   0.0833969  -0.1581325  -0.0936454  )
        95           H   tau(  95) = (  -0.0559897   0.1369836   0.0525324  )
        96           H   tau(  96) = (  -0.1063868   0.0729025   0.0496666  )
        97           H   tau(  97) = (  -0.0432256  -0.0500512   0.0795591  )
        98           H   tau(  98) = (  -0.0510272  -0.0904719   0.1451654  )
        99           H   tau(  99) = (   0.0451197  -0.2210095   0.1549956  )
       100           H   tau( 100) = (  -0.0271041  -0.2024739   0.1597098  )
       101           H   tau( 101) = (   0.3139496  -0.2320626  -0.2373930  )
       102           H   tau( 102) = (   0.2699171  -0.1700249  -0.2503364  )
       103           H   tau( 103) = (   0.2771747   0.2629136   0.1575353  )
       104           H   tau( 104) = (   0.3112138   0.2483395   0.0855909  )
       105           H   tau( 105) = (   0.2739404  -0.1103716   0.1420978  )
       106           H   tau( 106) = (   0.2894750  -0.1872660   0.1313049  )
       107           H   tau( 107) = (  -0.1145894  -0.1330325  -0.2016946  )
       108           H   tau( 108) = (  -0.1839346  -0.1464525  -0.2369902  )
       109           H   tau( 109) = (  -0.0209994   0.1398329  -0.2051380  )
       110           H   tau( 110) = (  -0.0733228   0.0950748  -0.2391019  )
       111           H   tau( 111) = (   0.2419853   0.1359304   0.1526721  )
       112           H   tau( 112) = (   0.1736582   0.1527877   0.1209901  )
       113           H   tau( 113) = (   0.1347758   0.0444262  -0.1937275  )
       114           H   tau( 114) = (   0.0798765   0.0968902  -0.1752447  )
       115           H   tau( 115) = (  -0.2490871   0.0956200  -0.2815243  )
       116           H   tau( 116) = (  -0.2000297   0.1514194  -0.2960371  )
       117           H   tau( 117) = (   0.2017258  -0.2570712  -0.0596582  )
       118           H   tau( 118) = (   0.2693111  -0.2869836  -0.0459839  )
       119           H   tau( 119) = (   0.1382613  -0.0709507  -0.2645115  )
       120           H   tau( 120) = (   0.0648982  -0.0433099  -0.2590615  )
       121           H   tau( 121) = (  -0.0861890  -0.0188282  -0.2809220  )
       122           H   tau( 122) = (  -0.1501583   0.0153237  -0.2515837  )
       123           H   tau( 123) = (   0.0384021   0.0277087   0.0602811  )
       124           H   tau( 124) = (   0.0862854  -0.0048255   0.0111594  )
       125           H   tau( 125) = (   0.2011261  -0.1108599  -0.1582951  )
       126           H   tau( 126) = (   0.2699752  -0.0800580  -0.1453434  )
       127           H   tau( 127) = (   0.2770162   0.0461211  -0.0349484  )
       128           H   tau( 128) = (   0.2804664  -0.0266415  -0.0404504  )
       129           H   tau( 129) = (  -0.0182206   0.1986787   0.1336651  )
       130           H   tau( 130) = (  -0.0403432   0.2671346   0.1099019  )
       131           H   tau( 131) = (  -0.2483644   0.0280268  -0.1534461  )
       132           H   tau( 132) = (  -0.2939934   0.0429203  -0.2084281  )
       133           H   tau( 133) = (   0.0190359  -0.2363805  -0.0095124  )
       134           H   tau( 134) = (   0.0701268  -0.1852564   0.0167914  )
       135           H   tau( 135) = (   0.1904203   0.2115256  -0.2542813  )
       136           H   tau( 136) = (   0.2356994   0.1484087  -0.2458205  )
       137           H   tau( 137) = (   0.1681630   0.2730141   0.2435932  )
       138           H   tau( 138) = (   0.1330591   0.3052832   0.3005550  )
       139           H   tau( 139) = (  -0.2768265   0.1829797  -0.0557310  )
       140           H   tau( 140) = (  -0.2221078   0.2229025  -0.0914573  )
       141           H   tau( 141) = (   0.0033677   0.0133208  -0.1134068  )
       142           H   tau( 142) = (  -0.0366744   0.0259005  -0.0486313  )
       143           H   tau( 143) = (  -0.1651601  -0.1432927  -0.0802795  )
       144           H   tau( 144) = (  -0.1159437  -0.1999368  -0.0665265  )
       145           H   tau( 145) = (  -0.1790205   0.2855559   0.1467933  )
       146           H   tau( 146) = (  -0.1342791   0.2853596   0.2116032  )
       147           H   tau( 147) = (  -0.0629174   0.1132508   0.1759214  )
       148           H   tau( 148) = (  -0.1036428   0.1800641   0.1953541  )
       149           H   tau( 149) = (  -0.1072851  -0.0622921  -0.0326082  )
       150           H   tau( 150) = (  -0.1537575  -0.0191407   0.0052177  )
       151           H   tau( 151) = (  -0.1231307  -0.1193876   0.2383151  )
       152           H   tau( 152) = (  -0.0530459  -0.1355964   0.2707748  )
       153           H   tau( 153) = (   0.0626869   0.0735378   0.2810454  )
       154           H   tau( 154) = (   0.0025132   0.1225041   0.2790806  )
       155           H   tau( 155) = (  -0.2490718   0.1742322   0.1124532  )
       156           H   tau( 156) = (  -0.1895871   0.1418213   0.0760341  )
       157           H   tau( 157) = (   0.1719657   0.2414220  -0.0199221  )
       158           H   tau( 158) = (   0.1462823   0.2108193  -0.0819874  )
       159           H   tau( 159) = (   0.1795594  -0.2791535  -0.1885884  )
       160           H   tau( 160) = (   0.1077665  -0.2686367  -0.1584893  )
       161           H   tau( 161) = (  -0.1217449   0.1985658  -0.1583581  )
       162           H   tau( 162) = (  -0.0796005   0.2105853  -0.0985484  )
       163           H   tau( 163) = (   0.2929040  -0.0089547   0.2713643  )
       164           H   tau( 164) = (   0.2204996   0.0150353   0.2630960  )
       165           H   tau( 165) = (  -0.1147989  -0.0216739   0.0983354  )
       166           H   tau( 166) = (  -0.1762922   0.0111217   0.1378411  )
       167           H   tau( 167) = (   0.0127373  -0.1294302  -0.1267842  )
       168           H   tau( 168) = (  -0.0381852  -0.1078539  -0.0769021  )
       169           H   tau( 169) = (   0.0047969  -0.1569498  -0.2263417  )
       170           H   tau( 170) = (   0.0352889  -0.1412726  -0.2940856  )
       171           H   tau( 171) = (   0.2567508  -0.3118951   0.2465663  )
       172           H   tau( 172) = (   0.3212596  -0.2733099   0.2410525  )
       173           H   tau( 173) = (   0.2953704  -0.1578813  -0.0026551  )
       174           H   tau( 174) = (   0.2358818  -0.1122059   0.0012479  )
       175           H   tau( 175) = (   0.2375793   0.0064782   0.1000007  )
       176           H   tau( 176) = (   0.1810431  -0.0357085   0.1288768  )
       177           H   tau( 177) = (   0.0592516   0.2040215  -0.2622842  )
       178           H   tau( 178) = (   0.0809894   0.2620645  -0.2087877  )
       179           H   tau( 179) = (  -0.0620509  -0.3352037   0.0285834  )
       180           H   tau( 180) = (  -0.0712959  -0.2593430   0.0107888  )
       181           H   tau( 181) = (  -0.2535104  -0.0993392  -0.3241851  )
       182           H   tau( 182) = (  -0.2411684  -0.0465643  -0.2665124  )
       183           H   tau( 183) = (  -0.2275463   0.1102931  -0.0524864  )
       184           H   tau( 184) = (  -0.2349226   0.0637339   0.0088616  )
       185           H   tau( 185) = (   0.2889896   0.1093712  -0.1169234  )
       186           H   tau( 186) = (   0.2154336   0.0925286  -0.1322141  )
       187           H   tau( 187) = (   0.1851625   0.0099279  -0.0505491  )
       188           H   tau( 188) = (   0.1178348   0.0133553  -0.0911328  )
       189           H   tau( 189) = (  -0.3090546  -0.0588221   0.0823818  )
       190           H   tau( 190) = (  -0.2368717  -0.0733358   0.1075081  )
       191           H   tau( 191) = (   0.0339251   0.1395986   0.0760843  )
       192           H   tau( 192) = (   0.0954431   0.1535502   0.0346981  )

     number of k points=     1  Marzari-Vanderbilt smearing, width (Ry)=  0.0250
                       cart. coord. in units 2pi/alat
        k(    1) = (   0.0000000   0.0000000   0.0000000), wk =   2.0000000

     Dense  grid:   177509 G-vectors     FFT dimensions: (  72,  72,  72)

     Estimated max dynamical RAM per process >      67.80Mb

     Estimated total allocated dynamical RAM >    1898.40Mb

     Initial potential from superposition of free atoms
     Check: negative starting charge=   -0.845453

     starting charge  511.99856, renormalised to  512.00000

     negative rho (up, down):  8.455E-01 0.000E+00
     Starting wfc are  384 randomized atomic wfcs

     total cpu time spent up to now is        0.8 secs

     per-process dynamical memory:    45.9 Mb

     Self-consistent Calculation

     iteration #  1     ecut=    30.00 Ry     beta=0.70
     Davidson diagonalization with overlap
     ethr =  1.00E-02,  avg # of iterations =  8.0

     negative rho (up, down):  2.070E-01 0.000E+00

     total cpu time spent up to now is        9.0 secs

     total energy              =   -1786.71636149 Ry
     Harris-Foulkes estimate   =   -1814.36686773 Ry
     estimated scf accuracy    <      42.31811930 Ry

     iteration #  2     ecut=    30.00 Ry     beta=0.70
     Davidson diagonalization with overlap
     ethr =  8.27E-03,  avg # of iterations =  4.0

     negative rho (up, down):  1.834E-03 0.000E+00

     total cpu time spent up to now is       12.1 secs

     total energy              =   -1763.36010488 Ry
     Harris-Foulkes estimate   =   -1802.09027166 Ry
     estimated scf accuracy    <      95.17940534 Ry

     iteration #  3     ecut=    30.00 Ry     beta=0.70
     Davidson diagonalization with overlap
     ethr =  8.27E-03,  avg # of iterations =  5.0

     negative rho (up, down):  2.802E-06 0.000E+00

     total cpu time spent up to now is       16.0 secs

     total energy              =   -1789.41197215 Ry
     Harris-Foulkes estimate   =   -1802.03248662 Ry
     estimated scf accuracy    <      40.03376787 Ry

     iteration #  4     ecut=    30.00 Ry     beta=0.70
     Davidson diagonalization with overlap
     ethr =  7.82E-03,  avg # of iterations =  3.0

     total cpu time spent up to now is       17.8 secs

     total energy              =   -1794.70231600 Ry
     Harris-Foulkes estimate   =   -1797.08928056 Ry
     estimated scf accuracy    <       7.64659071 Ry

     iteration #  5     ecut=    30.00 Ry     beta=0.70
     Davidson diagonalization with overlap
     ethr =  1.49E-03,  avg # of iterations =  5.0

     total cpu time spent up to now is       20.3 secs

     total energy              =   -1794.40864854 Ry
     Harris-Foulkes estimate   =   -1795.12700414 Ry
     estimated scf accuracy    <       3.13995162 Ry

     iteration #  6     ecut=    30.00 Ry     beta=0.70
     Davidson diagonalization with overlap
     ethr =  6.13E-04,  avg # of iterations =  5.0

     total cpu time spent up to now is       22.8 secs

     total energy              =   -1794.08841023 Ry
     Harris-Foulkes estimate   =   -1794.49176728 Ry
     estimated scf accuracy    <       1.51887801 Ry

     iteration #  7     ecut=    30.00 Ry     beta=0.70
     Davidson diagonalization with overlap
     ethr =  2.97E-04,  avg # of iterations =  5.0

     total cpu time spent up to now is       25.2 secs

     total energy              =   -1794.10740063 Ry
     Harris-Foulkes estimate   =   -1794.27982630 Ry
     estimated scf accuracy    <       1.58815298 Ry

     iteration #  8     ecut=    30.00 Ry     beta=0.70
     Davidson diagonalization with overlap
     ethr =  2.97E-04,  avg # of iterations =  1.0

     total cpu time spent up to now is       26.4 secs

     total energy              =   -1794.12609128 Ry
     Harris-Foulkes estimate   =   -1794.15263374 Ry
     estimated scf accuracy    <       0.18998863 Ry

     iteration #  9     ecut=    30.00 Ry     beta=0.70
     Davidson diagonalization with overlap
     ethr =  3.71E-05,  avg # of iterations = 11.0

     total cpu time spent up to now is       30.5 secs

     total energy              =   -1794.07326047 Ry
     Harris-Foulkes estimate   =   -1794.14371472 Ry
     estimated scf accuracy    <       0.33590386 Ry

     iteration # 10     ecut=    30.00 Ry     beta=0.70
     Davidson diagonalization with overlap
     ethr =  3.71E-05,  avg # of iterations =  8.0

     total cpu time spent up to now is       34.2 secs

     total energy              =   -1794.10472762 Ry
     Harris-Foulkes estimate   =   -1794.12236953 Ry
     estimated scf accuracy    <       0.11941725 Ry

     iteration # 11     ecut=    30.00 Ry     beta=0.70
     Davidson diagonalization with overlap
     ethr =  2.33E-05,  avg # of iterations =  2.0

     total cpu time spent up to now is       35.6 secs

     total energy              =   -1794.10829609 Ry
     Harris-Foulkes estimate   =   -1794.11498408 Ry
     estimated scf accuracy    <       0.02612897 Ry

     iteration # 12     ecut=    30.00 Ry     beta=0.70
     Davidson diagonalization with overlap
     ethr =  5.10E-06,  avg # of iterations =  5.0

     total cpu time spent up to now is       38.0 secs

     total energy              =   -1794.10694159 Ry
     Harris-Foulkes estimate   =   -1794.11104186 Ry
     estimated scf accuracy    <       0.03002472 Ry

     iteration # 13     ecut=    30.00 Ry     beta=0.70
     Davidson diagonalization with overlap
     ethr =  5.10E-06,  avg # of iterations =  2.0

     total cpu time spent up to now is       39.4 secs

     total energy              =   -1794.10695491 Ry
     Harris-Foulkes estimate   =   -1794.10956637 Ry
     estimated scf accuracy    <       0.01493926 Ry

     iteration # 14     ecut=    30.00 Ry     beta=0.70
     Davidson diagonalization with overlap
     ethr =  2.92E-06,  avg # of iterations =  2.0

     total cpu time spent up to now is       40.8 secs

     total energy              =   -1794.10787440 Ry
     Harris-Foulkes estimate   =   -1794.10864465 Ry
     estimated scf accuracy    <       0.00432007 Ry

     iteration # 15     ecut=    30.00 Ry     beta=0.70
     Davidson diagonalization with overlap
     ethr =  8.44E-07,  avg # of iterations =  2.0

     total cpu time spent up to now is       42.2 secs

     total energy              =   -1794.10826431 Ry
     Harris-Foulkes estimate   =   -1794.10840165 Ry
     estimated scf accuracy    <       0.00068109 Ry

     iteration # 16     ecut=    30.00 Ry     beta=0.70
     Davidson diagonalization with overlap
     ethr =  1.33E-07,  avg # of iterations =  2.0

     total cpu time spent up to now is       43.7 secs

     total energy              =   -1794.10833657 Ry
     Harris-Foulkes estimate   =   -1794.10834472 Ry
     estimated scf accuracy    <       0.00004433 Ry

     iteration # 17     ecut=    30.00 Ry     beta=0.70
     Davidson diagonalization with overlap
     ethr =  8.66E-09,  avg # of iterations =  2.0

     total cpu time spent up to now is       45.2 secs

     total energy              =   -1794.10834049 Ry
     Harris-Foulkes estimate   =   -1794.10834584 Ry
     estimated scf accuracy    <       0.00002828 Ry

     iteration # 18     ecut=    30.00 Ry     beta=0.70
     Davidson diagonalization with overlap
     ethr =  5.52E-09,  avg # of iterations =  2.0

     total cpu time spent up to now is       46.6 secs

     total energy              =   -1794.10834314 Ry
     Harris-Foulkes estimate   =   -1794.10834421 Ry
     estimated scf accuracy    <       0.00000488 Ry

     iteration # 19     ecut=    30.00 Ry     beta=0.70
     Davidson diagonalization with overlap
     ethr =  9.53E-10,  avg # of iterations =  2.0

     total cpu time spent up to now is       48.1 secs

     total energy              =   -1794.10834378 Ry
     Harris-Foulkes estimate   =   -1794.10834405 Ry
     estimated scf accuracy    <       0.00000305 Ry

     iteration # 20     ecut=    30.00 Ry     beta=0.70
     Davidson diagonalization with overlap
     ethr =  5.95E-10,  avg # of iterations =  2.0

     total cpu time spent up to now is       49.5 secs

     total energy              =   -1794.10834405 Ry
     Harris-Foulkes estimate   =   -1794.10834407 Ry
     estimated scf accuracy    <       0.00000041 Ry

     iteration # 21     ecut=    30.00 Ry     beta=0.70
     Davidson diagonalization with overlap
     ethr =  7.91E-11,  avg # of iterations =  2.0

     total cpu time spent up to now is       50.9 secs

     total energy              =   -1794.10834411 Ry
     Harris-Foulkes estimate   =   -1794.10834409 Ry
     estimated scf accuracy    <       0.00000002 Ry

     iteration # 22     ecut=    30.00 Ry     beta=0.70
     Davidson diagonalization with overlap
     ethr =  4.24E-12,  avg # of iterations =  3.0

     total cpu time spent up to now is       52.8 secs

     End of self-consistent calculation

          k = 0.0000 0.0000 0.0000 ( 22119 PWs)   bands (ev):

   -43.4565 -42.5074 -40.0108 -39.8108 -38.9608 -37.9180 -37.8464 -37.1092
   -36.8631 -36.2225 -35.6589 -35.4533 -34.9491 -34.8141 -34.5177 -34.0583
   -33.5811 -33.5223 -33.3793 -32.8592 -32.6252 -32.3599 -32.2494 -31.9404
   -31.8043 -31.3929 -31.2754 -30.9351 -30.6616 -30.5390 -30.3310 -30.2740
   -29.9855 -29.8926 -29.8184 -29.5523 -29.3332 -29.1677 -28.9576 -28.7871
   -28.7770 -28.5380 -28.2270 -28.1648 -28.0032 -27.9522 -27.7427 -27.6006
   -27.5311 -27.5108 -27.3629 -27.3153 -27.1162 -27.0401 -26.8542 -26.7193
   -26.5778 -26.4883 -26.3272 -26.1853 -25.8457 -25.6664 -25.5266 -25.3177
   -23.4933 -22.8323 -22.1587 -21.9688 -21.5067 -21.4158 -20.9712 -20.6151
   -20.3288 -20.0373 -20.0197 -19.5869 -19.3172 -19.1006 -19.0687 -18.8582
   -18.5898 -18.4227 -18.3071 -18.0482 -17.9134 -17.6427 -17.3920 -17.2753
   -17.1497 -16.9734 -16.8851 -16.7109 -16.5247 -16.3881 -15.9636 -15.8406
   -15.6346 -15.5742 -15.3958 -15.2522 -15.1210 -14.9562 -14.8054 -14.6989
   -14.5020 -14.3295 -14.2385 -14.2108 -14.0141 -13.9634 -13.8764 -13.6865
   -13.5512 -13.4406 -13.2629 -13.1959 -13.0784 -12.8152 -12.7617 -12.6659
   -12.5778 -12.3452 -12.2951 -12.1489 -11.7486 -11.4156 -11.1883 -10.8792
   -10.4991 -10.4157 -10.1309  -9.9204  -9.7049  -9.5998  -9.2608  -8.9929
    -8.8282  -8.4247  -8.1519  -8.0385  -7.7807  -7.6685  -7.5790  -7.4122
    -7.1939  -7.1412  -6.9843  -6.8196  -6.7762  -6.6795  -6.4528  -6.4048
    -6.3260  -6.2521  -6.1337  -5.9332  -5.8710  -5.6517  -5.6034  -5.5543
    -5.4482  -5.3183  -5.2398  -5.0961  -4.9985  -4.9574  -4.8956  -4.7212
    -4.6578  -4.4859  -4.4399  -4.3418  -4.2341  -4.1643  -4.1172  -4.0083
    -3.8402  -3.8000  -3.6940  -3.6412  -3.5474  -3.4883  -3.4573  -3.3770
    -3.3260  -3.2742  -3.1036  -2.9521  -2.9070  -2.7988  -2.6548  -2.5077
    -2.4625  -2.3182  -2.2324  -2.1496  -2.0680  -1.9805  -1.9354  -1.9018
    -1.8715  -1.6636  -1.5947  -1.4349  -1.3442  -1.3193  -1.2083  -1.1348
    -0.9959  -0.8746  -0.7919  -0.7265  -0.5673  -0.5249  -0.4022  -0.3110
    -0.1680  -0.0904  -0.0052   0.2705   0.3359   0.4622   0.5538   0.6098
     0.6392   0.8388   1.0512   1.1549   1.2993   1.3159   1.3995   1.4704
     1.6149   1.6968   1.8882   2.0046   2.2422   2.2636   2.4593   2.5646
     2.6876   2.7507   2.9416   3.0483   3.1630   3.5481   3.8103   3.9023
     4.0352   4.3532   4.4779   4.7141   5.1557   5.2168   5.2548   5.3829
     5.6302   6.0952   6.2274   6.5100   6.7016   7.1167   7.2219   7.3643
     7.4244   7.4792   7.6530   7.7743   8.1460   8.3214   8.4613   8.7557
     8.7991   9.0480   9.2102   9.3448   9.5803   9.6190   9.8655   9.9519
    10.0276  10.1565  10.3182  10.3938  10.4710  10.6167  10.6720  10.7436
    10.8962  10.9287  10.9815  11.1898  11.3121  11.3801  11.5345  11.5924
    11.6150  11.6588  11.8320  11.8741  12.0006  12.0686  12.1399  12.2350
    12.2735  12.3372  12.4326

     the Fermi energy is     5.5352 ev

!    total energy              =   -1794.10834411 Ry
     Harris-Foulkes estimate   =   -1794.10834411 Ry
     estimated scf accuracy    <          8.5E-09 Ry

     The total energy is the sum of the following terms:

     one-electron contribution =  -15999.00345856 Ry
     hartree contribution      =    8168.06808811 Ry
     xc contribution           =    -639.23281651 Ry
     ewald contribution        =    6676.05676754 Ry
     smearing contrib. (-TS)   =       0.00307530 Ry

     convergence has been achieved in  22 iterations

     Writing output data file pwscf.save
 
     init_run     :      0.57s CPU      0.63s WALL (       1 calls)
     electrons    :     50.58s CPU     52.11s WALL (       1 calls)

     Called by init_run:
     wfcinit      :      0.48s CPU      0.52s WALL (       1 calls)
     potinit      :      0.02s CPU      0.02s WALL (       1 calls)

     Called by electrons:
     c_bands      :     48.36s CPU     49.63s WALL (      22 calls)
     sum_band     :      1.86s CPU      1.90s WALL (      22 calls)
     v_of_rho     :      0.18s CPU      0.19s WALL (      23 calls)
     mix_rho      :      0.13s CPU      0.26s WALL (      22 calls)

     Called by c_bands:
     init_us_2    :      0.06s CPU      0.06s WALL (      45 calls)
     cegterg      :     48.24s CPU     49.44s WALL (      22 calls)

     Called by sum_band:

     Called by *egterg:
     h_psi        :      8.37s CPU      8.51s WALL (     106 calls)
     g_psi        :      0.07s CPU      0.07s WALL (      83 calls)
     cdiaghg      :     30.65s CPU     30.69s WALL (     105 calls)

     Called by h_psi:
     h_psi:pot    :      8.15s CPU      8.30s WALL (     106 calls)
     h_psi:calbec :      0.30s CPU      0.31s WALL (     106 calls)
     vloc_psi     :      7.59s CPU      7.71s WALL (     106 calls)
     add_vuspsi   :      0.26s CPU      0.27s WALL (     106 calls)

     General routines
     calbec       :      0.30s CPU      0.31s WALL (     106 calls)
     fft          :      0.10s CPU      0.11s WALL (     252 calls)
     fftw         :      8.45s CPU      8.60s WALL (   37686 calls)
     davcio       :      0.02s CPU      0.13s WALL (     348 calls)
 
     Parallel routines
     fft_scatter  :      2.69s CPU      2.75s WALL (   37938 calls)
 
     PWSCF        :    51.32s CPU        53.11s WALL

 
   This run was terminated on:   7:30:21   2Feb2018            

=------------------------------------------------------------------------------=
   JOB DONE.
=------------------------------------------------------------------------------=
