
     Program PWSCF v.6.0 (svn rev. 13079) starts on  2Feb2018 at  7:46: 2 

     This program is part of the open-source Quantum ESPRESSO suite
     for quantum simulation of materials; please cite
         "P. Giannozzi et al., J. Phys.:Condens. Matter 21 395502 (2009);
          URL http://www.quantum-espresso.org", 
     in publications or presentations arising from this work. More details at
     http://www.quantum-espresso.org/quote

     Parallel version (MPI), running on    28 processors
     R & G space division:  proc/nbgrp/npool/nimage =      28
     Reading input from input/scf-bigwater-1/182.in
Warning: card &IONS ignored
Warning: card     POT_EXTRAPOLATION='SECOND-ORDER' ignored
Warning: card     WFC_EXTRAPOLATION='SECOND-ORDER' ignored
Warning: card     ION_TEMPERATURE = 'ANDERSEN' ignored
Warning: card     TEMPW = 1000 ignored
Warning: card / ignored

     Current dimensions of program PWSCF are:
     Max number of different atomic species (ntypx) = 10
     Max number of k-points (npk) =  40000
     Max angular momentum in pseudopotentials (lmaxx) =  3

     Subspace diagonalization in iterative solution of the eigenvalue problem:
     a serial algorithm will be used

 
     Parallelization info
     --------------------
     sticks:   dense  smooth     PW     G-vecs:    dense   smooth      PW
     Min         136     136     33                 6338     6338     787
     Max         137     137     34                 6341     6341     792
     Sum        3809    3809    949               177509   177509   22119
 


     bravais-lattice index     =            1
     lattice parameter (alat)  =      20.0000  a.u.
     unit-cell volume          =    8000.0000 (a.u.)^3
     number of atoms/cell      =          192
     number of atomic types    =            2
     number of electrons       =       512.00
     number of Kohn-Sham states=          307
     kinetic-energy cutoff     =      30.0000  Ry
     charge density cutoff     =     120.0000  Ry
     convergence threshold     =      1.0E-08
     mixing beta               =       0.7000
     number of iterations used =            8  plain     mixing
     Exchange-correlation      = BLYP ( 1  3  1  3 0 0)

     celldm(1)=  20.000000  celldm(2)=   0.000000  celldm(3)=   0.000000
     celldm(4)=   0.000000  celldm(5)=   0.000000  celldm(6)=   0.000000

     crystal axes: (cart. coord. in units of alat)
               a(1) = (   1.000000   0.000000   0.000000 )  
               a(2) = (   0.000000   1.000000   0.000000 )  
               a(3) = (   0.000000   0.000000   1.000000 )  

     reciprocal axes: (cart. coord. in units 2 pi/alat)
               b(1) = (  1.000000  0.000000  0.000000 )  
               b(2) = (  0.000000  1.000000  0.000000 )  
               b(3) = (  0.000000  0.000000  1.000000 )  


     PseudoPot. # 1 for  H read from file:
     ./H.blyp-hgh.UPF
     MD5 check sum: c576e69559cde411e611be972c763230
     Pseudo is Norm-conserving, Zval =  1.0
     Generated in analytical, separable form
     Using radial grid of  929 points,  0 beta functions with: 

     PseudoPot. # 2 for  O read from file:
     ./O.blyp-hgh.UPF
     MD5 check sum: d0b7156309aa9befef28faac7bc56342
     Pseudo is Norm-conserving, Zval =  6.0
     Generated in analytical, separable form
     Using radial grid of 1095 points,  1 beta functions with: 
                l(1) =   0

     atomic species   valence    mass     pseudopotential
        H              1.00     1.01000      H( 1.00)
        O              6.00    16.00000      O( 1.00)

     No symmetry found



   Cartesian axes

     site n.     atom                  positions (alat units)
         1           O   tau(   1) = (  -0.2635830  -0.0725655  -0.0851839  )
         2           O   tau(   2) = (   0.1911459  -0.1012501   0.2697712  )
         3           O   tau(   3) = (  -0.2876414   0.2772672  -0.2701935  )
         4           O   tau(   4) = (  -0.0069746   0.1946905  -0.0714814  )
         5           O   tau(   5) = (  -0.2378228   0.0392357   0.1982467  )
         6           O   tau(   6) = (  -0.0113539   0.2756749   0.2631990  )
         7           O   tau(   7) = (  -0.0075070  -0.2709918  -0.1689399  )
         8           O   tau(   8) = (   0.1255865   0.0031245   0.1791191  )
         9           O   tau(   9) = (  -0.1427056  -0.2656705   0.2846535  )
        10           O   tau(  10) = (   0.1032306  -0.1384116   0.1020841  )
        11           O   tau(  11) = (   0.1295837  -0.3066193   0.1451127  )
        12           O   tau(  12) = (  -0.1999336  -0.1484248   0.2261182  )
        13           O   tau(  13) = (  -0.2217452  -0.2899093   0.0355857  )
        14           O   tau(  14) = (  -0.1811063  -0.2864054  -0.1925024  )
        15           O   tau(  15) = (   0.1245948  -0.1411016  -0.1186209  )
        16           O   tau(  16) = (  -0.1029916   0.1221472   0.0407799  )
        17           O   tau(  17) = (  -0.0607777  -0.0935643   0.0991101  )
        18           O   tau(  18) = (   0.0120103  -0.2090037   0.1891131  )
        19           O   tau(  19) = (   0.2675068  -0.2211829  -0.2498775  )
        20           O   tau(  20) = (   0.2684481   0.2507821   0.1115778  )
        21           O   tau(  21) = (   0.2927514  -0.1512893   0.1630874  )
        22           O   tau(  22) = (  -0.1616462  -0.1401951  -0.1947690  )
        23           O   tau(  23) = (  -0.0447279   0.1351017  -0.2470116  )
        24           O   tau(  24) = (   0.1980474   0.1185271   0.1470072  )
        25           O   tau(  25) = (   0.1168986   0.0729727  -0.1578915  )
        26           O   tau(  26) = (  -0.2392543   0.1290759  -0.3147966  )
        27           O   tau(  27) = (   0.2257890  -0.2999571  -0.0616148  )
        28           O   tau(  28) = (   0.1018280  -0.0618550  -0.2350508  )
        29           O   tau(  29) = (  -0.1039276   0.0044033  -0.2425238  )
        30           O   tau(  30) = (   0.0485073  -0.0165565   0.0425152  )
        31           O   tau(  31) = (   0.2364152  -0.0866513  -0.1786899  )
        32           O   tau(  32) = (   0.2636635   0.0077298  -0.0107986  )
        33           O   tau(  33) = (  -0.0072803   0.2329036   0.1024591  )
        34           O   tau(  34) = (  -0.2428391   0.0376993  -0.2020484  )
        35           O   tau(  35) = (   0.0380521  -0.1919288  -0.0204694  )
        36           O   tau(  36) = (   0.2250326   0.1950096  -0.2278288  )
        37           O   tau(  37) = (   0.1659695   0.2719183   0.2920900  )
        38           O   tau(  38) = (  -0.2688661   0.2066575  -0.0996009  )
        39           O   tau(  39) = (  -0.0202365   0.0473734  -0.0904100  )
        40           O   tau(  40) = (  -0.1559676  -0.1814863  -0.0461933  )
        41           O   tau(  41) = (  -0.1360820   0.2747495   0.1633072  )
        42           O   tau(  42) = (  -0.0816025   0.1411147   0.2149050  )
        43           O   tau(  43) = (  -0.1271683  -0.0206046  -0.0371941  )
        44           O   tau(  44) = (  -0.0761062  -0.1024914   0.2402303  )
        45           O   tau(  45) = (   0.0312916   0.0953482   0.2524167  )
        46           O   tau(  46) = (  -0.2311695   0.1626640   0.0673861  )
        47           O   tau(  47) = (   0.1499811   0.2024169  -0.0354249  )
        48           O   tau(  48) = (   0.1354852  -0.2983195  -0.1855316  )
        49           O   tau(  49) = (  -0.1235910   0.2219254  -0.1168177  )
        50           O   tau(  50) = (   0.2622360   0.0315792   0.2731700  )
        51           O   tau(  51) = (  -0.1450135   0.0160881   0.0978518  )
        52           O   tau(  52) = (  -0.0349419  -0.1153750  -0.1271456  )
        53           O   tau(  53) = (   0.0024584  -0.1710848  -0.2729992  )
        54           O   tau(  54) = (   0.2897026  -0.2959400   0.2119889  )
        55           O   tau(  55) = (   0.2450683  -0.1609560  -0.0040059  )
        56           O   tau(  56) = (   0.2295686  -0.0366652   0.1224064  )
        57           O   tau(  57) = (   0.0643968   0.2169042  -0.2158298  )
        58           O   tau(  58) = (  -0.0401584  -0.2939683   0.0194718  )
        59           O   tau(  59) = (  -0.2733461  -0.0778941  -0.2873566  )
        60           O   tau(  60) = (  -0.2338304   0.0624810  -0.0390604  )
        61           O   tau(  61) = (   0.2569630   0.0711771  -0.1142728  )
        62           O   tau(  62) = (   0.1435075  -0.0154568  -0.0627035  )
        63           O   tau(  63) = (  -0.2629508  -0.0679438   0.0678755  )
        64           O   tau(  64) = (   0.0802753   0.1238330   0.0710743  )
        65           H   tau(  65) = (  -0.2666603  -0.0841644  -0.0375453  )
        66           H   tau(  66) = (  -0.2305835  -0.0359710  -0.0827404  )
        67           H   tau(  67) = (   0.1985133  -0.1426038   0.2957221  )
        68           H   tau(  68) = (   0.1641924  -0.1193149   0.2324301  )
        69           H   tau(  69) = (  -0.3290079   0.2532281  -0.2567220  )
        70           H   tau(  70) = (  -0.2628690   0.2413302  -0.2924801  )
        71           H   tau(  71) = (  -0.0035329   0.1456137  -0.0849768  )
        72           H   tau(  72) = (   0.0285760   0.2206230  -0.0927346  )
        73           H   tau(  73) = (  -0.2861375   0.0500714   0.2033673  )
        74           H   tau(  74) = (  -0.2211641   0.0710354   0.2326008  )
        75           H   tau(  75) = (   0.0075814   0.3184642   0.2472545  )
        76           H   tau(  76) = (   0.0106129   0.2627440   0.3049367  )
        77           H   tau(  77) = (  -0.0260261  -0.2685300  -0.1238613  )
        78           H   tau(  78) = (  -0.0484083  -0.2707433  -0.1959425  )
        79           H   tau(  79) = (   0.1495998   0.0463556   0.1753940  )
        80           H   tau(  80) = (   0.0800522   0.0159287   0.1913399  )
        81           H   tau(  81) = (  -0.1634496  -0.2666453   0.3297240  )
        82           H   tau(  82) = (  -0.0962753  -0.2805994   0.2919576  )
        83           H   tau(  83) = (   0.0963659  -0.0969558   0.0759872  )
        84           H   tau(  84) = (   0.1491236  -0.1539739   0.1044346  )
        85           H   tau(  85) = (   0.1630201  -0.3302103   0.1178026  )
        86           H   tau(  86) = (   0.0862035  -0.3256798   0.1310553  )
        87           H   tau(  87) = (  -0.1684115  -0.1849023   0.2134021  )
        88           H   tau(  88) = (  -0.2374986  -0.1655775   0.1959167  )
        89           H   tau(  89) = (  -0.2189824  -0.3348081   0.0156843  )
        90           H   tau(  90) = (  -0.1962132  -0.2593988   0.0060079  )
        91           H   tau(  91) = (  -0.2149746  -0.2533221  -0.1802681  )
        92           H   tau(  92) = (  -0.1926086  -0.3250876  -0.1646830  )
        93           H   tau(  93) = (   0.1316372  -0.0941874  -0.1027802  )
        94           H   tau(  94) = (   0.0847562  -0.1598586  -0.0975743  )
        95           H   tau(  95) = (  -0.0570228   0.1327551   0.0520432  )
        96           H   tau(  96) = (  -0.1144287   0.0746130   0.0516266  )
        97           H   tau(  97) = (  -0.0482764  -0.0488587   0.0828964  )
        98           H   tau(  98) = (  -0.0557264  -0.0945948   0.1486485  )
        99           H   tau(  99) = (   0.0415232  -0.2278359   0.1547668  )
       100           H   tau( 100) = (  -0.0301807  -0.2049939   0.1643409  )
       101           H   tau( 101) = (   0.3132425  -0.2274008  -0.2330704  )
       102           H   tau( 102) = (   0.2669265  -0.1718408  -0.2508513  )
       103           H   tau( 103) = (   0.2783597   0.2658649   0.1572939  )
       104           H   tau( 104) = (   0.3100787   0.2505652   0.0867027  )
       105           H   tau( 105) = (   0.2721857  -0.1092584   0.1468804  )
       106           H   tau( 106) = (   0.2801161  -0.1868837   0.1317834  )
       107           H   tau( 107) = (  -0.1138464  -0.1312467  -0.1992684  )
       108           H   tau( 108) = (  -0.1828202  -0.1453291  -0.2382913  )
       109           H   tau( 109) = (  -0.0226777   0.1409708  -0.2037401  )
       110           H   tau( 110) = (  -0.0728606   0.0944694  -0.2422419  )
       111           H   tau( 111) = (   0.2427004   0.1381981   0.1507796  )
       112           H   tau( 112) = (   0.1728036   0.1485328   0.1174260  )
       113           H   tau( 113) = (   0.1306739   0.0395874  -0.1920886  )
       114           H   tau( 114) = (   0.0772493   0.0951547  -0.1760296  )
       115           H   tau( 115) = (  -0.2497373   0.0932965  -0.2830919  )
       116           H   tau( 116) = (  -0.1997551   0.1500757  -0.2948420  )
       117           H   tau( 117) = (   0.2005893  -0.2579483  -0.0553581  )
       118           H   tau( 118) = (   0.2694665  -0.2874985  -0.0433296  )
       119           H   tau( 119) = (   0.1384657  -0.0725781  -0.2667182  )
       120           H   tau( 120) = (   0.0659617  -0.0402614  -0.2601429  )
       121           H   tau( 121) = (  -0.0827460  -0.0148864  -0.2823173  )
       122           H   tau( 122) = (  -0.1521539   0.0082157  -0.2507916  )
       123           H   tau( 123) = (   0.0402354   0.0269247   0.0634567  )
       124           H   tau( 124) = (   0.0891824  -0.0023131   0.0191571  )
       125           H   tau( 125) = (   0.2019417  -0.1130324  -0.1553119  )
       126           H   tau( 126) = (   0.2723436  -0.0802071  -0.1456798  )
       127           H   tau( 127) = (   0.2778694   0.0458037  -0.0377632  )
       128           H   tau( 128) = (   0.2729270  -0.0279546  -0.0419916  )
       129           H   tau( 129) = (  -0.0098346   0.2014941   0.1406455  )
       130           H   tau( 130) = (  -0.0409918   0.2666993   0.1134412  )
       131           H   tau( 131) = (  -0.2511831   0.0253546  -0.1552559  )
       132           H   tau( 132) = (  -0.2909286   0.0429250  -0.2121281  )
       133           H   tau( 133) = (   0.0204003  -0.2341181  -0.0019876  )
       134           H   tau( 134) = (   0.0716186  -0.1814493   0.0142766  )
       135           H   tau( 135) = (   0.1960520   0.2149893  -0.2630952  )
       136           H   tau( 136) = (   0.2368133   0.1515858  -0.2469903  )
       137           H   tau( 137) = (   0.1652529   0.2760417   0.2428254  )
       138           H   tau( 138) = (   0.1332204   0.3067359   0.3029415  )
       139           H   tau( 139) = (  -0.2769941   0.1811270  -0.0585327  )
       140           H   tau( 140) = (  -0.2186053   0.2150344  -0.0960430  )
       141           H   tau( 141) = (   0.0032912   0.0127060  -0.1154222  )
       142           H   tau( 142) = (  -0.0292500   0.0263696  -0.0463630  )
       143           H   tau( 143) = (  -0.1750373  -0.1442362  -0.0736790  )
       144           H   tau( 144) = (  -0.1155074  -0.1949782  -0.0702702  )
       145           H   tau( 145) = (  -0.1805297   0.2856481   0.1463029  )
       146           H   tau( 146) = (  -0.1347192   0.2870449   0.2110592  )
       147           H   tau( 147) = (  -0.0638409   0.1166975   0.1768837  )
       148           H   tau( 148) = (  -0.1014216   0.1833819   0.2002762  )
       149           H   tau( 149) = (  -0.1096291  -0.0661692  -0.0344602  )
       150           H   tau( 150) = (  -0.1543738  -0.0215002   0.0037336  )
       151           H   tau( 151) = (  -0.1229774  -0.1174715   0.2387084  )
       152           H   tau( 152) = (  -0.0547716  -0.1315365   0.2744676  )
       153           H   tau( 153) = (   0.0600825   0.0725024   0.2842495  )
       154           H   tau( 154) = (  -0.0032950   0.1197061   0.2787795  )
       155           H   tau( 155) = (  -0.2472535   0.1705650   0.1126939  )
       156           H   tau( 156) = (  -0.1859071   0.1421315   0.0717409  )
       157           H   tau( 157) = (   0.1743812   0.2438260  -0.0230066  )
       158           H   tau( 158) = (   0.1479677   0.2101252  -0.0837680  )
       159           H   tau( 159) = (   0.1801125  -0.2778733  -0.1887224  )
       160           H   tau( 160) = (   0.1088545  -0.2735419  -0.1527981  )
       161           H   tau( 161) = (  -0.1229652   0.1993578  -0.1603694  )
       162           H   tau( 162) = (  -0.0761672   0.2112383  -0.1017802  )
       163           H   tau( 163) = (   0.2900373  -0.0085753   0.2738278  )
       164           H   tau( 164) = (   0.2178939   0.0148219   0.2614375  )
       165           H   tau( 165) = (  -0.1148997  -0.0218735   0.0996173  )
       166           H   tau( 166) = (  -0.1696877   0.0119545   0.1403831  )
       167           H   tau( 167) = (   0.0138509  -0.1210254  -0.1283637  )
       168           H   tau( 168) = (  -0.0407153  -0.1118937  -0.0788135  )
       169           H   tau( 169) = (  -0.0001514  -0.1574558  -0.2257614  )
       170           H   tau( 170) = (   0.0349971  -0.1406283  -0.2928451  )
       171           H   tau( 171) = (   0.2618036  -0.3174094   0.2465676  )
       172           H   tau( 172) = (   0.3209121  -0.2715619   0.2406385  )
       173           H   tau( 173) = (   0.2937403  -0.1569883  -0.0090895  )
       174           H   tau( 174) = (   0.2324570  -0.1133751  -0.0050481  )
       175           H   tau( 175) = (   0.2360159   0.0089134   0.1059577  )
       176           H   tau( 176) = (   0.1804601  -0.0396682   0.1233786  )
       177           H   tau( 177) = (   0.0585817   0.2069119  -0.2627083  )
       178           H   tau( 178) = (   0.0843224   0.2604077  -0.2060637  )
       179           H   tau( 179) = (  -0.0637441  -0.3352391   0.0312805  )
       180           H   tau( 180) = (  -0.0756469  -0.2619166   0.0093479  )
       181           H   tau( 181) = (  -0.2490409  -0.1010039  -0.3233602  )
       182           H   tau( 182) = (  -0.2455431  -0.0460023  -0.2623855  )
       183           H   tau( 183) = (  -0.2322684   0.1090504  -0.0523820  )
       184           H   tau( 184) = (  -0.2336476   0.0631545   0.0098900  )
       185           H   tau( 185) = (   0.2883485   0.1089207  -0.1140740  )
       186           H   tau( 186) = (   0.2161367   0.0895866  -0.1347942  )
       187           H   tau( 187) = (   0.1842405   0.0102822  -0.0530110  )
       188           H   tau( 188) = (   0.1163150   0.0142729  -0.0910311  )
       189           H   tau( 189) = (  -0.3092147  -0.0617959   0.0833557  )
       190           H   tau( 190) = (  -0.2346978  -0.0730128   0.1069352  )
       191           H   tau( 191) = (   0.0338469   0.1350169   0.0811329  )
       192           H   tau( 192) = (   0.0927885   0.1529348   0.0328941  )

     number of k points=     1  Marzari-Vanderbilt smearing, width (Ry)=  0.0250
                       cart. coord. in units 2pi/alat
        k(    1) = (   0.0000000   0.0000000   0.0000000), wk =   2.0000000

     Dense  grid:   177509 G-vectors     FFT dimensions: (  72,  72,  72)

     Estimated max dynamical RAM per process >      67.80Mb

     Estimated total allocated dynamical RAM >    1898.40Mb

     Initial potential from superposition of free atoms
     Check: negative starting charge=   -0.843537

     starting charge  511.99856, renormalised to  512.00000

     negative rho (up, down):  8.435E-01 0.000E+00
     Starting wfc are  384 randomized atomic wfcs

     total cpu time spent up to now is        0.8 secs

     per-process dynamical memory:    45.9 Mb

     Self-consistent Calculation

     iteration #  1     ecut=    30.00 Ry     beta=0.70
     Davidson diagonalization with overlap
     ethr =  1.00E-02,  avg # of iterations =  8.0

     negative rho (up, down):  2.050E-01 0.000E+00

     total cpu time spent up to now is        8.8 secs

     total energy              =   -1791.80872288 Ry
     Harris-Foulkes estimate   =   -1818.96402627 Ry
     estimated scf accuracy    <      41.66388146 Ry

     iteration #  2     ecut=    30.00 Ry     beta=0.70
     Davidson diagonalization with overlap
     ethr =  8.14E-03,  avg # of iterations =  4.0

     negative rho (up, down):  1.949E-03 0.000E+00

     total cpu time spent up to now is       11.9 secs

     total energy              =   -1768.99382295 Ry
     Harris-Foulkes estimate   =   -1806.91675939 Ry
     estimated scf accuracy    <      93.08488045 Ry

     iteration #  3     ecut=    30.00 Ry     beta=0.70
     Davidson diagonalization with overlap
     ethr =  8.14E-03,  avg # of iterations =  5.0

     negative rho (up, down):  3.600E-07 0.000E+00

     total cpu time spent up to now is       15.8 secs

     total energy              =   -1794.79417707 Ry
     Harris-Foulkes estimate   =   -1806.50709153 Ry
     estimated scf accuracy    <      36.83225944 Ry

     iteration #  4     ecut=    30.00 Ry     beta=0.70
     Davidson diagonalization with overlap
     ethr =  7.19E-03,  avg # of iterations =  3.0

     total cpu time spent up to now is       17.7 secs

     total energy              =   -1799.66019185 Ry
     Harris-Foulkes estimate   =   -1801.84938324 Ry
     estimated scf accuracy    <       7.20146307 Ry

     iteration #  5     ecut=    30.00 Ry     beta=0.70
     Davidson diagonalization with overlap
     ethr =  1.41E-03,  avg # of iterations =  4.0

     total cpu time spent up to now is       19.8 secs

     total energy              =   -1799.30954412 Ry
     Harris-Foulkes estimate   =   -1800.02631084 Ry
     estimated scf accuracy    <       3.04334463 Ry

     iteration #  6     ecut=    30.00 Ry     beta=0.70
     Davidson diagonalization with overlap
     ethr =  5.94E-04,  avg # of iterations =  6.0

     total cpu time spent up to now is       22.6 secs

     total energy              =   -1799.06268388 Ry
     Harris-Foulkes estimate   =   -1799.39779102 Ry
     estimated scf accuracy    <       1.30806731 Ry

     iteration #  7     ecut=    30.00 Ry     beta=0.70
     Davidson diagonalization with overlap
     ethr =  2.55E-04,  avg # of iterations =  5.0

     total cpu time spent up to now is       25.0 secs

     total energy              =   -1799.07619764 Ry
     Harris-Foulkes estimate   =   -1799.13793852 Ry
     estimated scf accuracy    <       0.37492117 Ry

     iteration #  8     ecut=    30.00 Ry     beta=0.70
     Davidson diagonalization with overlap
     ethr =  7.32E-05,  avg # of iterations =  2.0

     total cpu time spent up to now is       26.4 secs

     total energy              =   -1799.09136766 Ry
     Harris-Foulkes estimate   =   -1799.12891664 Ry
     estimated scf accuracy    <       0.26832301 Ry

     iteration #  9     ecut=    30.00 Ry     beta=0.70
     Davidson diagonalization with overlap
     ethr =  5.24E-05,  avg # of iterations =  5.0

     total cpu time spent up to now is       28.7 secs

     total energy              =   -1799.02204418 Ry
     Harris-Foulkes estimate   =   -1799.10926843 Ry
     estimated scf accuracy    <       0.32314651 Ry

     iteration # 10     ecut=    30.00 Ry     beta=0.70
     Davidson diagonalization with overlap
     ethr =  5.24E-05,  avg # of iterations =  7.0

     total cpu time spent up to now is       31.9 secs

     total energy              =   -1799.06205123 Ry
     Harris-Foulkes estimate   =   -1799.08030244 Ry
     estimated scf accuracy    <       0.11389651 Ry

     iteration # 11     ecut=    30.00 Ry     beta=0.70
     Davidson diagonalization with overlap
     ethr =  2.22E-05,  avg # of iterations =  1.0

     total cpu time spent up to now is       33.0 secs

     total energy              =   -1799.06702645 Ry
     Harris-Foulkes estimate   =   -1799.07289562 Ry
     estimated scf accuracy    <       0.04303197 Ry

     iteration # 12     ecut=    30.00 Ry     beta=0.70
     Davidson diagonalization with overlap
     ethr =  8.40E-06,  avg # of iterations =  3.0

     total cpu time spent up to now is       34.7 secs

     total energy              =   -1799.06824460 Ry
     Harris-Foulkes estimate   =   -1799.07074855 Ry
     estimated scf accuracy    <       0.00788754 Ry

     iteration # 13     ecut=    30.00 Ry     beta=0.70
     Davidson diagonalization with overlap
     ethr =  1.54E-06,  avg # of iterations =  7.0

     total cpu time spent up to now is       38.1 secs

     total energy              =   -1799.06935663 Ry
     Harris-Foulkes estimate   =   -1799.07041973 Ry
     estimated scf accuracy    <       0.00684994 Ry

     iteration # 14     ecut=    30.00 Ry     beta=0.70
     Davidson diagonalization with overlap
     ethr =  1.34E-06,  avg # of iterations =  2.0

     total cpu time spent up to now is       39.6 secs

     total energy              =   -1799.06957441 Ry
     Harris-Foulkes estimate   =   -1799.07009028 Ry
     estimated scf accuracy    <       0.00233704 Ry

     iteration # 15     ecut=    30.00 Ry     beta=0.70
     Davidson diagonalization with overlap
     ethr =  4.56E-07,  avg # of iterations =  2.0

     total cpu time spent up to now is       41.0 secs

     total energy              =   -1799.06984515 Ry
     Harris-Foulkes estimate   =   -1799.06991361 Ry
     estimated scf accuracy    <       0.00025177 Ry

     iteration # 16     ecut=    30.00 Ry     beta=0.70
     Davidson diagonalization with overlap
     ethr =  4.92E-08,  avg # of iterations =  2.0

     total cpu time spent up to now is       42.5 secs

     total energy              =   -1799.06987508 Ry
     Harris-Foulkes estimate   =   -1799.06989040 Ry
     estimated scf accuracy    <       0.00008548 Ry

     iteration # 17     ecut=    30.00 Ry     beta=0.70
     Davidson diagonalization with overlap
     ethr =  1.67E-08,  avg # of iterations =  2.0

     total cpu time spent up to now is       43.9 secs

     total energy              =   -1799.06988421 Ry
     Harris-Foulkes estimate   =   -1799.06988476 Ry
     estimated scf accuracy    <       0.00000425 Ry

     iteration # 18     ecut=    30.00 Ry     beta=0.70
     Davidson diagonalization with overlap
     ethr =  8.31E-10,  avg # of iterations =  2.0

     total cpu time spent up to now is       45.5 secs

     total energy              =   -1799.06988386 Ry
     Harris-Foulkes estimate   =   -1799.06988592 Ry
     estimated scf accuracy    <       0.00001859 Ry

     iteration # 19     ecut=    30.00 Ry     beta=0.70
     Davidson diagonalization with overlap
     ethr =  8.31E-10,  avg # of iterations =  2.0

     total cpu time spent up to now is       46.9 secs

     total energy              =   -1799.06988495 Ry
     Harris-Foulkes estimate   =   -1799.06988550 Ry
     estimated scf accuracy    <       0.00000503 Ry

     iteration # 20     ecut=    30.00 Ry     beta=0.70
     Davidson diagonalization with overlap
     ethr =  8.31E-10,  avg # of iterations =  2.0

     total cpu time spent up to now is       48.4 secs

     total energy              =   -1799.06988517 Ry
     Harris-Foulkes estimate   =   -1799.06988559 Ry
     estimated scf accuracy    <       0.00000270 Ry

     iteration # 21     ecut=    30.00 Ry     beta=0.70
     Davidson diagonalization with overlap
     ethr =  5.27E-10,  avg # of iterations =  2.0

     total cpu time spent up to now is       49.8 secs

     total energy              =   -1799.06988543 Ry
     Harris-Foulkes estimate   =   -1799.06988543 Ry
     estimated scf accuracy    <       0.00000008 Ry

     iteration # 22     ecut=    30.00 Ry     beta=0.70
     Davidson diagonalization with overlap
     ethr =  1.57E-11,  avg # of iterations =  2.0

     total cpu time spent up to now is       51.4 secs

     total energy              =   -1799.06988544 Ry
     Harris-Foulkes estimate   =   -1799.06988545 Ry
     estimated scf accuracy    <       0.00000005 Ry

     iteration # 23     ecut=    30.00 Ry     beta=0.70
     Davidson diagonalization with overlap
     ethr =  1.02E-11,  avg # of iterations =  2.0

     total cpu time spent up to now is       52.9 secs

     total energy              =   -1799.06988544 Ry
     Harris-Foulkes estimate   =   -1799.06988546 Ry
     estimated scf accuracy    <       0.00000006 Ry

     iteration # 24     ecut=    30.00 Ry     beta=0.70
     Davidson diagonalization with overlap
     ethr =  1.02E-11,  avg # of iterations =  2.0

     total cpu time spent up to now is       54.4 secs

     total energy              =   -1799.06988546 Ry
     Harris-Foulkes estimate   =   -1799.06988545 Ry
     estimated scf accuracy    <       0.00000001 Ry

     iteration # 25     ecut=    30.00 Ry     beta=0.70
     Davidson diagonalization with overlap
     ethr =  2.78E-12,  avg # of iterations =  3.0

     total cpu time spent up to now is       56.2 secs

     End of self-consistent calculation

          k = 0.0000 0.0000 0.0000 ( 22119 PWs)   bands (ev):

   -44.1959 -42.4619 -40.8423 -39.9096 -38.8612 -37.9676 -37.8820 -37.2014
   -37.0467 -36.1896 -35.6571 -35.5304 -35.0578 -34.6958 -34.5848 -33.9187
   -33.3777 -33.3704 -33.0658 -32.8528 -32.3941 -32.2968 -32.1628 -31.8402
   -31.6241 -31.5710 -31.1859 -30.8168 -30.6833 -30.5530 -30.2655 -30.2479
   -30.0936 -29.8386 -29.7788 -29.5493 -29.2724 -29.2049 -28.9001 -28.8156
   -28.7142 -28.5626 -28.1684 -28.0954 -27.9847 -27.8674 -27.7496 -27.7031
   -27.5348 -27.5255 -27.3851 -27.2927 -27.1810 -27.0390 -26.7995 -26.6615
   -26.5261 -26.4208 -26.2984 -26.0647 -25.9403 -25.4832 -25.2611 -25.2185
   -23.5807 -22.5918 -22.2177 -21.8447 -21.4852 -21.2700 -20.8581 -20.7820
   -20.4422 -20.1368 -19.9912 -19.5887 -19.2617 -19.1218 -18.8720 -18.8259
   -18.6446 -18.3330 -18.2305 -18.0198 -17.9687 -17.6447 -17.5056 -17.3589
   -17.2099 -17.1175 -16.9239 -16.7733 -16.4531 -16.4109 -16.0253 -15.7870
   -15.7236 -15.5451 -15.4791 -15.3562 -14.9223 -14.7788 -14.6923 -14.6132
   -14.5730 -14.2508 -14.1228 -14.0573 -13.9427 -13.8718 -13.7104 -13.6679
   -13.3712 -13.2640 -13.0752 -12.9324 -12.7970 -12.6755 -12.5802 -12.5185
   -12.3744 -12.3316 -12.1766 -12.0623 -11.7291 -11.4420 -11.4081 -11.2157
   -10.4068 -10.2766 -10.2249  -9.8332  -9.6692  -9.4131  -9.1751  -8.9980
    -8.7629  -8.4496  -8.4142  -8.0145  -7.8674  -7.6691  -7.5663  -7.4715
    -7.1751  -7.0423  -6.9285  -6.8505  -6.7218  -6.6698  -6.4422  -6.3235
    -6.2612  -6.1025  -6.0596  -5.9680  -5.8745  -5.6968  -5.5835  -5.5541
    -5.4113  -5.3884  -5.2801  -5.1549  -5.0613  -4.9668  -4.8730  -4.6458
    -4.5659  -4.4747  -4.4054  -4.2631  -4.2219  -4.1370  -4.0538  -4.0420
    -3.9708  -3.8769  -3.8200  -3.6402  -3.5423  -3.4484  -3.4091  -3.3538
    -3.3137  -3.2639  -3.1284  -3.0493  -2.7906  -2.7715  -2.6566  -2.5444
    -2.4704  -2.3392  -2.2922  -2.2455  -2.2074  -2.0941  -1.9969  -1.8648
    -1.8107  -1.7261  -1.5741  -1.4352  -1.4287  -1.3266  -1.0763  -1.0732
    -0.9251  -0.9095  -0.8182  -0.6832  -0.4810  -0.3991  -0.3024  -0.2297
    -0.1630  -0.0917   0.0144   0.2267   0.2871   0.3383   0.4523   0.5628
     0.6260   0.7985   0.8262   0.9493   1.1340   1.1535   1.3212   1.4317
     1.5252   1.7164   1.8562   1.9365   2.0900   2.1998   2.2582   2.3612
     2.6798   2.7012   2.8930   3.0304   3.2173   3.5606   3.7562   3.8974
     3.9939   4.1840   4.4290   4.9834   5.0311   5.2088   5.2265   5.3491
     5.6284   6.0490   6.2515   6.5065   6.6772   7.1029   7.1942   7.3512
     7.4433   7.4875   7.6274   7.7792   8.1406   8.3475   8.4046   8.7460
     8.7873   9.1170   9.2255   9.2995   9.5696   9.6063   9.8360  10.0154
    10.0442  10.1811  10.3087  10.4004  10.5041  10.6244  10.6583  10.7238
    10.9053  10.9228  11.0193  11.1924  11.3098  11.3767  11.5165  11.5813
    11.5947  11.6714  11.8693  11.8935  12.0214  12.0546  12.0856  12.1984
    12.2964  12.3138  12.4665

     the Fermi energy is     5.4995 ev

!    total energy              =   -1799.06988546 Ry
     Harris-Foulkes estimate   =   -1799.06988546 Ry
     estimated scf accuracy    <          2.2E-09 Ry

     The total energy is the sum of the following terms:

     one-electron contribution =  -15927.38145458 Ry
     hartree contribution      =    8131.83754135 Ry
     xc contribution           =    -638.42488830 Ry
     ewald contribution        =    6634.88891078 Ry
     smearing contrib. (-TS)   =       0.01000530 Ry

     convergence has been achieved in  25 iterations

     Writing output data file pwscf.save
 
     init_run     :      0.54s CPU      0.63s WALL (       1 calls)
     electrons    :     53.76s CPU     55.50s WALL (       1 calls)

     Called by init_run:
     wfcinit      :      0.45s CPU      0.52s WALL (       1 calls)
     potinit      :      0.02s CPU      0.02s WALL (       1 calls)

     Called by electrons:
     c_bands      :     51.24s CPU     52.66s WALL (      25 calls)
     sum_band     :      2.11s CPU      2.17s WALL (      25 calls)
     v_of_rho     :      0.20s CPU      0.22s WALL (      26 calls)
     mix_rho      :      0.16s CPU      0.31s WALL (      25 calls)

     Called by c_bands:
     init_us_2    :      0.06s CPU      0.07s WALL (      51 calls)
     cegterg      :     51.13s CPU     52.48s WALL (      25 calls)

     Called by sum_band:

     Called by *egterg:
     h_psi        :      9.47s CPU      9.65s WALL (     111 calls)
     g_psi        :      0.08s CPU      0.08s WALL (      85 calls)
     cdiaghg      :     31.28s CPU     31.32s WALL (     110 calls)

     Called by h_psi:
     h_psi:pot    :      9.23s CPU      9.40s WALL (     111 calls)
     h_psi:calbec :      0.35s CPU      0.35s WALL (     111 calls)
     vloc_psi     :      8.58s CPU      8.75s WALL (     111 calls)
     add_vuspsi   :      0.30s CPU      0.31s WALL (     111 calls)

     General routines
     calbec       :      0.35s CPU      0.35s WALL (     111 calls)
     fft          :      0.11s CPU      0.12s WALL (     285 calls)
     fftw         :      9.55s CPU      9.75s WALL (   42601 calls)
     davcio       :      0.02s CPU      0.16s WALL (     408 calls)
 
     Parallel routines
     fft_scatter  :      3.36s CPU      3.46s WALL (   42886 calls)
 
     PWSCF        :    54.45s CPU        56.46s WALL

 
   This run was terminated on:   7:46:59   2Feb2018            

=------------------------------------------------------------------------------=
   JOB DONE.
=------------------------------------------------------------------------------=
