
     Program PWSCF v.6.0 (svn rev. 13079) starts on  2Feb2018 at  8:26:20 

     This program is part of the open-source Quantum ESPRESSO suite
     for quantum simulation of materials; please cite
         "P. Giannozzi et al., J. Phys.:Condens. Matter 21 395502 (2009);
          URL http://www.quantum-espresso.org", 
     in publications or presentations arising from this work. More details at
     http://www.quantum-espresso.org/quote

     Parallel version (MPI), running on    28 processors
     R & G space division:  proc/nbgrp/npool/nimage =      28
     Reading input from input/scf-bigwater-1/225.in
Warning: card &IONS ignored
Warning: card     POT_EXTRAPOLATION='SECOND-ORDER' ignored
Warning: card     WFC_EXTRAPOLATION='SECOND-ORDER' ignored
Warning: card     ION_TEMPERATURE = 'ANDERSEN' ignored
Warning: card     TEMPW = 1000 ignored
Warning: card / ignored

     Current dimensions of program PWSCF are:
     Max number of different atomic species (ntypx) = 10
     Max number of k-points (npk) =  40000
     Max angular momentum in pseudopotentials (lmaxx) =  3

     Subspace diagonalization in iterative solution of the eigenvalue problem:
     a serial algorithm will be used

 
     Parallelization info
     --------------------
     sticks:   dense  smooth     PW     G-vecs:    dense   smooth      PW
     Min         136     136     33                 6338     6338     787
     Max         137     137     34                 6341     6341     792
     Sum        3809    3809    949               177509   177509   22119
 


     bravais-lattice index     =            1
     lattice parameter (alat)  =      20.0000  a.u.
     unit-cell volume          =    8000.0000 (a.u.)^3
     number of atoms/cell      =          192
     number of atomic types    =            2
     number of electrons       =       512.00
     number of Kohn-Sham states=          307
     kinetic-energy cutoff     =      30.0000  Ry
     charge density cutoff     =     120.0000  Ry
     convergence threshold     =      1.0E-08
     mixing beta               =       0.7000
     number of iterations used =            8  plain     mixing
     Exchange-correlation      = BLYP ( 1  3  1  3 0 0)

     celldm(1)=  20.000000  celldm(2)=   0.000000  celldm(3)=   0.000000
     celldm(4)=   0.000000  celldm(5)=   0.000000  celldm(6)=   0.000000

     crystal axes: (cart. coord. in units of alat)
               a(1) = (   1.000000   0.000000   0.000000 )  
               a(2) = (   0.000000   1.000000   0.000000 )  
               a(3) = (   0.000000   0.000000   1.000000 )  

     reciprocal axes: (cart. coord. in units 2 pi/alat)
               b(1) = (  1.000000  0.000000  0.000000 )  
               b(2) = (  0.000000  1.000000  0.000000 )  
               b(3) = (  0.000000  0.000000  1.000000 )  


     PseudoPot. # 1 for  H read from file:
     ./H.blyp-hgh.UPF
     MD5 check sum: c576e69559cde411e611be972c763230
     Pseudo is Norm-conserving, Zval =  1.0
     Generated in analytical, separable form
     Using radial grid of  929 points,  0 beta functions with: 

     PseudoPot. # 2 for  O read from file:
     ./O.blyp-hgh.UPF
     MD5 check sum: d0b7156309aa9befef28faac7bc56342
     Pseudo is Norm-conserving, Zval =  6.0
     Generated in analytical, separable form
     Using radial grid of 1095 points,  1 beta functions with: 
                l(1) =   0

     atomic species   valence    mass     pseudopotential
        H              1.00     1.01000      H( 1.00)
        O              6.00    16.00000      O( 1.00)

     No symmetry found



   Cartesian axes

     site n.     atom                  positions (alat units)
         1           O   tau(   1) = (  -0.2635154  -0.0701937  -0.0907558  )
         2           O   tau(   2) = (   0.1848953  -0.1003134   0.2713257  )
         3           O   tau(   3) = (  -0.2883331   0.2812058  -0.2685520  )
         4           O   tau(   4) = (  -0.0048528   0.1965379  -0.0681698  )
         5           O   tau(   5) = (  -0.2397904   0.0416362   0.2012484  )
         6           O   tau(   6) = (  -0.0120427   0.2789232   0.2642106  )
         7           O   tau(   7) = (  -0.0092557  -0.2714399  -0.1670823  )
         8           O   tau(   8) = (   0.1280216   0.0006462   0.1800363  )
         9           O   tau(   9) = (  -0.1419532  -0.2669323   0.2867243  )
        10           O   tau(  10) = (   0.1071341  -0.1359696   0.1075956  )
        11           O   tau(  11) = (   0.1308068  -0.3085577   0.1450043  )
        12           O   tau(  12) = (  -0.1989771  -0.1510739   0.2235587  )
        13           O   tau(  13) = (  -0.2213795  -0.2880096   0.0349313  )
        14           O   tau(  14) = (  -0.1815898  -0.2868359  -0.1959849  )
        15           O   tau(  15) = (   0.1299915  -0.1435510  -0.1227451  )
        16           O   tau(  16) = (  -0.1072406   0.1231119   0.0291797  )
        17           O   tau(  17) = (  -0.0626122  -0.0998931   0.1050896  )
        18           O   tau(  18) = (   0.0128356  -0.2106502   0.1895253  )
        19           O   tau(  19) = (   0.2655073  -0.2246783  -0.2506492  )
        20           O   tau(  20) = (   0.2636508   0.2509973   0.1120181  )
        21           O   tau(  21) = (   0.2909112  -0.1547141   0.1631076  )
        22           O   tau(  22) = (  -0.1620521  -0.1359875  -0.1956069  )
        23           O   tau(  23) = (  -0.0462151   0.1369623  -0.2466531  )
        24           O   tau(  24) = (   0.2003861   0.1188264   0.1491051  )
        25           O   tau(  25) = (   0.1175806   0.0762424  -0.1621906  )
        26           O   tau(  26) = (  -0.2349978   0.1244975  -0.3179943  )
        27           O   tau(  27) = (   0.2269706  -0.2996870  -0.0604667  )
        28           O   tau(  28) = (   0.1030322  -0.0584647  -0.2387939  )
        29           O   tau(  29) = (  -0.1046804   0.0020422  -0.2440541  )
        30           O   tau(  30) = (   0.0513948  -0.0151378   0.0453258  )
        31           O   tau(  31) = (   0.2355774  -0.0863992  -0.1748417  )
        32           O   tau(  32) = (   0.2656578   0.0077519  -0.0119675  )
        33           O   tau(  33) = (  -0.0057701   0.2338176   0.1102056  )
        34           O   tau(  34) = (  -0.2377284   0.0381898  -0.2027944  )
        35           O   tau(  35) = (   0.0402571  -0.1935204  -0.0208346  )
        36           O   tau(  36) = (   0.2222806   0.2021821  -0.2329918  )
        37           O   tau(  37) = (   0.1606232   0.2723052   0.2892961  )
        38           O   tau(  38) = (  -0.2705071   0.2157317  -0.0987993  )
        39           O   tau(  39) = (  -0.0195576   0.0463044  -0.0936160  )
        40           O   tau(  40) = (  -0.1557999  -0.1872759  -0.0428079  )
        41           O   tau(  41) = (  -0.1382252   0.2739657   0.1619706  )
        42           O   tau(  42) = (  -0.0864475   0.1428632   0.2215919  )
        43           O   tau(  43) = (  -0.1244512  -0.0275259  -0.0371273  )
        44           O   tau(  44) = (  -0.0738025  -0.0974001   0.2387268  )
        45           O   tau(  45) = (   0.0318245   0.0965403   0.2564090  )
        46           O   tau(  46) = (  -0.2275556   0.1603483   0.0658128  )
        47           O   tau(  47) = (   0.1539128   0.2067943  -0.0384543  )
        48           O   tau(  48) = (   0.1352162  -0.2949344  -0.1880703  )
        49           O   tau(  49) = (  -0.1214751   0.2181726  -0.1188235  )
        50           O   tau(  50) = (   0.2544485   0.0322750   0.2767386  )
        51           O   tau(  51) = (  -0.1410407   0.0162931   0.0984420  )
        52           O   tau(  52) = (  -0.0342913  -0.1123441  -0.1320407  )
        53           O   tau(  53) = (   0.0027480  -0.1736741  -0.2734776  )
        54           O   tau(  54) = (   0.2906538  -0.2943967   0.2123527  )
        55           O   tau(  55) = (   0.2425469  -0.1628588   0.0005528  )
        56           O   tau(  56) = (   0.2282518  -0.0370142   0.1204836  )
        57           O   tau(  57) = (   0.0672396   0.2153956  -0.2148000  )
        58           O   tau(  58) = (  -0.0461645  -0.2942968   0.0163018  )
        59           O   tau(  59) = (  -0.2715887  -0.0827411  -0.2890662  )
        60           O   tau(  60) = (  -0.2359531   0.0602510  -0.0376040  )
        61           O   tau(  61) = (   0.2556572   0.0720043  -0.1102472  )
        62           O   tau(  62) = (   0.1422325  -0.0162448  -0.0673257  )
        63           O   tau(  63) = (  -0.2613441  -0.0712114   0.0672718  )
        64           O   tau(  64) = (   0.0814805   0.1196352   0.0679893  )
        65           H   tau(  65) = (  -0.2638358  -0.0905588  -0.0461351  )
        66           H   tau(  66) = (  -0.2357481  -0.0312588  -0.0770114  )
        67           H   tau(  67) = (   0.2183622  -0.1323006   0.2891607  )
        68           H   tau(  68) = (   0.1702500  -0.1245276   0.2313423  )
        69           H   tau(  69) = (  -0.3297468   0.2567370  -0.2580442  )
        70           H   tau(  70) = (  -0.2549812   0.2468342  -0.2775546  )
        71           H   tau(  71) = (  -0.0160177   0.1598227  -0.0982020  )
        72           H   tau(  72) = (   0.0318775   0.2173373  -0.0924974  )
        73           H   tau(  73) = (  -0.2826725   0.0634743   0.2101993  )
        74           H   tau(  74) = (  -0.2077846   0.0693761   0.2257331  )
        75           H   tau(  75) = (   0.0073197   0.3200504   0.2450407  )
        76           H   tau(  76) = (   0.0120414   0.2744157   0.3065051  )
        77           H   tau(  77) = (  -0.0260161  -0.2681957  -0.1214849  )
        78           H   tau(  78) = (  -0.0476878  -0.2634775  -0.1958752  )
        79           H   tau(  79) = (   0.1575477   0.0394370   0.1768233  )
        80           H   tau(  80) = (   0.0857678   0.0213491   0.1930292  )
        81           H   tau(  81) = (  -0.1546176  -0.2693027   0.3342793  )
        82           H   tau(  82) = (  -0.0969301  -0.2871615   0.2858900  )
        83           H   tau(  83) = (   0.0940139  -0.0917841   0.0899071  )
        84           H   tau(  84) = (   0.1553293  -0.1401262   0.1020179  )
        85           H   tau(  85) = (   0.1652433  -0.3304223   0.1177158  )
        86           H   tau(  86) = (   0.0905162  -0.3343309   0.1343385  )
        87           H   tau(  87) = (  -0.1776147  -0.1949422   0.2365464  )
        88           H   tau(  88) = (  -0.2467544  -0.1666530   0.2218290  )
        89           H   tau(  89) = (  -0.2349702  -0.3300625   0.0141415  )
        90           H   tau(  90) = (  -0.1927879  -0.2662016   0.0016737  )
        91           H   tau(  91) = (  -0.2008745  -0.2429473  -0.1853403  )
        92           H   tau(  92) = (  -0.1944785  -0.3160977  -0.1590065  )
        93           H   tau(  93) = (   0.1347517  -0.1047001  -0.0926469  )
        94           H   tau(  94) = (   0.0953512  -0.1679926  -0.0982850  )
        95           H   tau(  95) = (  -0.0627363   0.1252428   0.0484218  )
        96           H   tau(  96) = (  -0.1242333   0.0853326   0.0581149  )
        97           H   tau(  97) = (  -0.0404913  -0.0590967   0.0925928  )
        98           H   tau(  98) = (  -0.0632295  -0.1008042   0.1544166  )
        99           H   tau(  99) = (   0.0361245  -0.2364855   0.1554479  )
       100           H   tau( 100) = (  -0.0343193  -0.2088271   0.1772970  )
       101           H   tau( 101) = (   0.3077678  -0.2269248  -0.2263382  )
       102           H   tau( 102) = (   0.2551777  -0.1767944  -0.2465838  )
       103           H   tau( 103) = (   0.2828682   0.2789770   0.1484296  )
       104           H   tau( 104) = (   0.3042491   0.2569487   0.0856660  )
       105           H   tau( 105) = (   0.2686230  -0.1104647   0.1620215  )
       106           H   tau( 106) = (   0.2608344  -0.1816938   0.1357353  )
       107           H   tau( 107) = (  -0.1141139  -0.1254725  -0.1968881  )
       108           H   tau( 108) = (  -0.1751325  -0.1390203  -0.2424648  )
       109           H   tau( 109) = (  -0.0279225   0.1456275  -0.2025051  )
       110           H   tau( 110) = (  -0.0674491   0.0930745  -0.2463032  )
       111           H   tau( 111) = (   0.2406296   0.1467212   0.1451091  )
       112           H   tau( 112) = (   0.1712298   0.1330114   0.1118283  )
       113           H   tau( 113) = (   0.1173237   0.0312480  -0.1835285  )
       114           H   tau( 114) = (   0.0762498   0.0963837  -0.1783382  )
       115           H   tau( 115) = (  -0.2503383   0.0911244  -0.2867764  )
       116           H   tau( 116) = (  -0.1978265   0.1446069  -0.2937527  )
       117           H   tau( 117) = (   0.2008136  -0.2609019  -0.0455882  )
       118           H   tau( 118) = (   0.2694616  -0.2926842  -0.0376264  )
       119           H   tau( 119) = (   0.1353605  -0.0729006  -0.2734332  )
       120           H   tau( 120) = (   0.0717397  -0.0337406  -0.2669071  )
       121           H   tau( 121) = (  -0.0837014  -0.0064706  -0.2873176  )
       122           H   tau( 122) = (  -0.1519494  -0.0101049  -0.2484421  )
       123           H   tau( 123) = (   0.0455395   0.0230051   0.0753636  )
       124           H   tau( 124) = (   0.0955027  -0.0053069   0.0256300  )
       125           H   tau( 125) = (   0.2074187  -0.1190441  -0.1518894  )
       126           H   tau( 126) = (   0.2777631  -0.0833721  -0.1503804  )
       127           H   tau( 127) = (   0.2792338   0.0436269  -0.0417110  )
       128           H   tau( 128) = (   0.2627210  -0.0272027  -0.0441503  )
       129           H   tau( 129) = (   0.0103802   0.2188656   0.1540646  )
       130           H   tau( 130) = (  -0.0430729   0.2616781   0.1259245  )
       131           H   tau( 131) = (  -0.2466144   0.0201055  -0.1584310  )
       132           H   tau( 132) = (  -0.2812998   0.0414610  -0.2240509  )
       133           H   tau( 133) = (   0.0222348  -0.2281391   0.0090627  )
       134           H   tau( 134) = (   0.0707639  -0.1673800   0.0078391  )
       135           H   tau( 135) = (   0.2082452   0.2220759  -0.2760292  )
       136           H   tau( 136) = (   0.2402665   0.1594211  -0.2486030  )
       137           H   tau( 137) = (   0.1543618   0.2795993   0.2409769  )
       138           H   tau( 138) = (   0.1395934   0.3087379   0.3146647  )
       139           H   tau( 139) = (  -0.2833613   0.1865851  -0.0617348  )
       140           H   tau( 140) = (  -0.2266840   0.1960381  -0.1105155  )
       141           H   tau( 141) = (  -0.0003603   0.0106967  -0.1205115  )
       142           H   tau( 142) = (  -0.0146409   0.0303789  -0.0472696  )
       143           H   tau( 143) = (  -0.1940378  -0.1602116  -0.0560033  )
       144           H   tau( 144) = (  -0.1252350  -0.1812632  -0.0805909  )
       145           H   tau( 145) = (  -0.1814036   0.2871127   0.1433882  )
       146           H   tau( 146) = (  -0.1407087   0.2957198   0.2055553  )
       147           H   tau( 147) = (  -0.0713404   0.1252772   0.1786560  )
       148           H   tau( 148) = (  -0.0973604   0.1884450   0.2070630  )
       149           H   tau( 149) = (  -0.1162275  -0.0752535  -0.0401369  )
       150           H   tau( 150) = (  -0.1565361  -0.0216019  -0.0010148  )
       151           H   tau( 151) = (  -0.1222934  -0.1053294   0.2393109  )
       152           H   tau( 152) = (  -0.0573547  -0.1210137   0.2787096  )
       153           H   tau( 153) = (   0.0536128   0.0741948   0.2934450  )
       154           H   tau( 154) = (  -0.0123978   0.1085678   0.2744855  )
       155           H   tau( 155) = (  -0.2401461   0.1569775   0.1126184  )
       156           H   tau( 156) = (  -0.1781005   0.1542586   0.0617471  )
       157           H   tau( 157) = (   0.1816720   0.2469102  -0.0311009  )
       158           H   tau( 158) = (   0.1524619   0.2029882  -0.0870872  )
       159           H   tau( 159) = (   0.1802760  -0.2757488  -0.1874652  )
       160           H   tau( 160) = (   0.1154094  -0.2810593  -0.1459570  )
       161           H   tau( 161) = (  -0.1258124   0.2031615  -0.1646864  )
       162           H   tau( 162) = (  -0.0747349   0.2180139  -0.1026008  )
       163           H   tau( 163) = (   0.2795918  -0.0081625   0.2850857  )
       164           H   tau( 164) = (   0.2139330   0.0128629   0.2573402  )
       165           H   tau( 165) = (  -0.1203414  -0.0284103   0.1019021  )
       166           H   tau( 166) = (  -0.1627778   0.0253026   0.1414931  )
       167           H   tau( 167) = (   0.0134123  -0.1017445  -0.1353542  )
       168           H   tau( 168) = (  -0.0439576  -0.1234069  -0.0855699  )
       169           H   tau( 169) = (  -0.0086774  -0.1622080  -0.2270835  )
       170           H   tau( 170) = (   0.0381294  -0.1420677  -0.2850364  )
       171           H   tau( 171) = (   0.2754905  -0.3248432   0.2477736  )
       172           H   tau( 172) = (   0.3215846  -0.2676794   0.2389688  )
       173           H   tau( 173) = (   0.2866467  -0.1609471  -0.0201206  )
       174           H   tau( 174) = (   0.2196534  -0.1234759  -0.0177969  )
       175           H   tau( 175) = (   0.2335779   0.0115211   0.1184854  )
       176           H   tau( 176) = (   0.1808413  -0.0467046   0.1178224  )
       177           H   tau( 177) = (   0.0636480   0.2151635  -0.2632292  )
       178           H   tau( 178) = (   0.0972965   0.2540125  -0.2088056  )
       179           H   tau( 179) = (  -0.0630813  -0.3376421   0.0310690  )
       180           H   tau( 180) = (  -0.0866477  -0.2680435   0.0094068  )
       181           H   tau( 181) = (  -0.2341488  -0.0974452  -0.3178490  )
       182           H   tau( 182) = (  -0.2536265  -0.0510023  -0.2565758  )
       183           H   tau( 183) = (  -0.2339631   0.1065421  -0.0513105  )
       184           H   tau( 184) = (  -0.2345597   0.0630399   0.0113662  )
       185           H   tau( 185) = (   0.2840327   0.1116132  -0.1125778  )
       186           H   tau( 186) = (   0.2166756   0.0832485  -0.1378055  )
       187           H   tau( 187) = (   0.1841663   0.0062414  -0.0534315  )
       188           H   tau( 188) = (   0.1167988   0.0181683  -0.0913804  )
       189           H   tau( 189) = (  -0.3066974  -0.0657433   0.0850636  )
       190           H   tau( 190) = (  -0.2333441  -0.0750856   0.1065270  )
       191           H   tau( 191) = (   0.0406104   0.1326215   0.0905868  )
       192           H   tau( 192) = (   0.0836484   0.1492125   0.0288674  )

     number of k points=     1  Marzari-Vanderbilt smearing, width (Ry)=  0.0250
                       cart. coord. in units 2pi/alat
        k(    1) = (   0.0000000   0.0000000   0.0000000), wk =   2.0000000

     Dense  grid:   177509 G-vectors     FFT dimensions: (  72,  72,  72)

     Estimated max dynamical RAM per process >      67.80Mb

     Estimated total allocated dynamical RAM >    1898.40Mb

     Initial potential from superposition of free atoms
     Check: negative starting charge=   -0.837806

     starting charge  511.99856, renormalised to  512.00000

     negative rho (up, down):  8.378E-01 0.000E+00
     Starting wfc are  384 randomized atomic wfcs

     total cpu time spent up to now is        0.8 secs

     per-process dynamical memory:    45.9 Mb

     Self-consistent Calculation

     iteration #  1     ecut=    30.00 Ry     beta=0.70
     Davidson diagonalization with overlap
     ethr =  1.00E-02,  avg # of iterations =  8.0

     negative rho (up, down):  2.032E-01 0.000E+00

     total cpu time spent up to now is        8.9 secs

     total energy              =   -1789.69541647 Ry
     Harris-Foulkes estimate   =   -1817.16453691 Ry
     estimated scf accuracy    <      42.04566193 Ry

     iteration #  2     ecut=    30.00 Ry     beta=0.70
     Davidson diagonalization with overlap
     ethr =  8.21E-03,  avg # of iterations =  4.0

     negative rho (up, down):  1.834E-03 0.000E+00

     total cpu time spent up to now is       12.1 secs

     total energy              =   -1765.33822461 Ry
     Harris-Foulkes estimate   =   -1804.71012742 Ry
     estimated scf accuracy    <      98.30930077 Ry

     iteration #  3     ecut=    30.00 Ry     beta=0.70
     Davidson diagonalization with overlap
     ethr =  8.21E-03,  avg # of iterations =  5.0

     negative rho (up, down):  2.304E-06 0.000E+00

     total cpu time spent up to now is       16.0 secs

     total energy              =   -1793.13149278 Ry
     Harris-Foulkes estimate   =   -1804.66425756 Ry
     estimated scf accuracy    <      36.79976623 Ry

     iteration #  4     ecut=    30.00 Ry     beta=0.70
     Davidson diagonalization with overlap
     ethr =  7.19E-03,  avg # of iterations =  3.0

     total cpu time spent up to now is       17.8 secs

     total energy              =   -1797.64060503 Ry
     Harris-Foulkes estimate   =   -1799.67972682 Ry
     estimated scf accuracy    <       7.08454157 Ry

     iteration #  5     ecut=    30.00 Ry     beta=0.70
     Davidson diagonalization with overlap
     ethr =  1.38E-03,  avg # of iterations =  5.0

     total cpu time spent up to now is       20.3 secs

     total energy              =   -1797.23560586 Ry
     Harris-Foulkes estimate   =   -1797.97752762 Ry
     estimated scf accuracy    <       3.14815637 Ry

     iteration #  6     ecut=    30.00 Ry     beta=0.70
     Davidson diagonalization with overlap
     ethr =  6.15E-04,  avg # of iterations =  5.0

     total cpu time spent up to now is       22.7 secs

     total energy              =   -1797.17633932 Ry
     Harris-Foulkes estimate   =   -1797.33819102 Ry
     estimated scf accuracy    <       1.16313977 Ry

     iteration #  7     ecut=    30.00 Ry     beta=0.70
     Davidson diagonalization with overlap
     ethr =  2.27E-04,  avg # of iterations =  4.0

     total cpu time spent up to now is       24.7 secs

     total energy              =   -1796.90519808 Ry
     Harris-Foulkes estimate   =   -1797.20368496 Ry
     estimated scf accuracy    <       0.97348206 Ry

     iteration #  8     ecut=    30.00 Ry     beta=0.70
     Davidson diagonalization with overlap
     ethr =  1.90E-04,  avg # of iterations =  6.0

     total cpu time spent up to now is       27.5 secs

     total energy              =   -1797.00827589 Ry
     Harris-Foulkes estimate   =   -1797.06262832 Ry
     estimated scf accuracy    <       0.33894053 Ry

     iteration #  9     ecut=    30.00 Ry     beta=0.70
     Davidson diagonalization with overlap
     ethr =  6.62E-05,  avg # of iterations =  4.0

     total cpu time spent up to now is       29.5 secs

     total energy              =   -1797.00471520 Ry
     Harris-Foulkes estimate   =   -1797.02785433 Ry
     estimated scf accuracy    <       0.15409333 Ry

     iteration # 10     ecut=    30.00 Ry     beta=0.70
     Davidson diagonalization with overlap
     ethr =  3.01E-05,  avg # of iterations =  7.0

     total cpu time spent up to now is       32.4 secs

     total energy              =   -1796.99519330 Ry
     Harris-Foulkes estimate   =   -1797.01679007 Ry
     estimated scf accuracy    <       0.11055956 Ry

     iteration # 11     ecut=    30.00 Ry     beta=0.70
     Davidson diagonalization with overlap
     ethr =  2.16E-05,  avg # of iterations =  3.0

     total cpu time spent up to now is       34.1 secs

     total energy              =   -1797.00343006 Ry
     Harris-Foulkes estimate   =   -1797.00986412 Ry
     estimated scf accuracy    <       0.05896012 Ry

     iteration # 12     ecut=    30.00 Ry     beta=0.70
     Davidson diagonalization with overlap
     ethr =  1.15E-05,  avg # of iterations =  4.0

     total cpu time spent up to now is       36.1 secs

     total energy              =   -1797.00026314 Ry
     Harris-Foulkes estimate   =   -1797.00785021 Ry
     estimated scf accuracy    <       0.04303658 Ry

     iteration # 13     ecut=    30.00 Ry     beta=0.70
     Davidson diagonalization with overlap
     ethr =  8.41E-06,  avg # of iterations =  2.0

     total cpu time spent up to now is       37.5 secs

     total energy              =   -1797.00433524 Ry
     Harris-Foulkes estimate   =   -1797.00546440 Ry
     estimated scf accuracy    <       0.00531982 Ry

     iteration # 14     ecut=    30.00 Ry     beta=0.70
     Davidson diagonalization with overlap
     ethr =  1.04E-06,  avg # of iterations =  9.0

     total cpu time spent up to now is       41.2 secs

     total energy              =   -1797.00442798 Ry
     Harris-Foulkes estimate   =   -1797.00507043 Ry
     estimated scf accuracy    <       0.00365293 Ry

     iteration # 15     ecut=    30.00 Ry     beta=0.70
     Davidson diagonalization with overlap
     ethr =  7.13E-07,  avg # of iterations =  2.0

     total cpu time spent up to now is       42.7 secs

     total energy              =   -1797.00478468 Ry
     Harris-Foulkes estimate   =   -1797.00495762 Ry
     estimated scf accuracy    <       0.00100795 Ry

     iteration # 16     ecut=    30.00 Ry     beta=0.70
     Davidson diagonalization with overlap
     ethr =  1.97E-07,  avg # of iterations =  2.0

     total cpu time spent up to now is       44.1 secs

     total energy              =   -1797.00480671 Ry
     Harris-Foulkes estimate   =   -1797.00486021 Ry
     estimated scf accuracy    <       0.00032636 Ry

     iteration # 17     ecut=    30.00 Ry     beta=0.70
     Davidson diagonalization with overlap
     ethr =  6.37E-08,  avg # of iterations =  2.0

     total cpu time spent up to now is       45.5 secs

     total energy              =   -1797.00482785 Ry
     Harris-Foulkes estimate   =   -1797.00483514 Ry
     estimated scf accuracy    <       0.00002212 Ry

     iteration # 18     ecut=    30.00 Ry     beta=0.70
     Davidson diagonalization with overlap
     ethr =  4.32E-09,  avg # of iterations =  2.0

     total cpu time spent up to now is       47.0 secs

     total energy              =   -1797.00483178 Ry
     Harris-Foulkes estimate   =   -1797.00483338 Ry
     estimated scf accuracy    <       0.00000675 Ry

     iteration # 19     ecut=    30.00 Ry     beta=0.70
     Davidson diagonalization with overlap
     ethr =  1.32E-09,  avg # of iterations =  2.0

     total cpu time spent up to now is       48.5 secs

     total energy              =   -1797.00483266 Ry
     Harris-Foulkes estimate   =   -1797.00483291 Ry
     estimated scf accuracy    <       0.00000170 Ry

     iteration # 20     ecut=    30.00 Ry     beta=0.70
     Davidson diagonalization with overlap
     ethr =  3.32E-10,  avg # of iterations =  2.0

     total cpu time spent up to now is       49.9 secs

     total energy              =   -1797.00483284 Ry
     Harris-Foulkes estimate   =   -1797.00483287 Ry
     estimated scf accuracy    <       0.00000021 Ry

     iteration # 21     ecut=    30.00 Ry     beta=0.70
     Davidson diagonalization with overlap
     ethr =  4.17E-11,  avg # of iterations =  3.0

     total cpu time spent up to now is       51.7 secs

     total energy              =   -1797.00483287 Ry
     Harris-Foulkes estimate   =   -1797.00483289 Ry
     estimated scf accuracy    <       0.00000006 Ry

     iteration # 22     ecut=    30.00 Ry     beta=0.70
     Davidson diagonalization with overlap
     ethr =  1.22E-11,  avg # of iterations =  3.0

     total cpu time spent up to now is       53.6 secs

     total energy              =   -1797.00483288 Ry
     Harris-Foulkes estimate   =   -1797.00483289 Ry
     estimated scf accuracy    <       0.00000007 Ry

     iteration # 23     ecut=    30.00 Ry     beta=0.70
     Davidson diagonalization with overlap
     ethr =  1.22E-11,  avg # of iterations =  2.0

     total cpu time spent up to now is       55.0 secs

     End of self-consistent calculation

          k = 0.0000 0.0000 0.0000 ( 22119 PWs)   bands (ev):

   -45.1855 -42.5054 -41.1761 -39.9414 -38.4422 -38.0629 -37.7909 -37.0513
   -36.8006 -36.2682 -35.7195 -35.4585 -35.1608 -34.3590 -33.8902 -33.5486
   -33.4395 -33.1530 -32.8287 -32.6295 -32.3467 -32.2887 -32.0925 -31.9179
   -31.3929 -31.2488 -31.2130 -30.8509 -30.6956 -30.4782 -30.3327 -30.1947
   -30.0518 -29.9153 -29.8516 -29.5947 -29.4624 -29.3559 -29.0082 -28.7968
   -28.6863 -28.4761 -28.3946 -28.2500 -27.9989 -27.9933 -27.7709 -27.7261
   -27.5279 -27.4354 -27.3719 -27.1620 -27.1507 -27.0124 -26.8781 -26.6516
   -26.5357 -26.3511 -26.1543 -25.9394 -25.7616 -25.4205 -25.2069 -24.9667
   -23.9057 -21.9823 -21.7141 -21.3649 -21.0225 -20.8756 -20.4726 -20.3961
   -19.9441 -19.6594 -19.5755 -19.2811 -19.1506 -18.8618 -18.6082 -18.4668
   -18.2212 -18.1333 -17.8221 -17.7994 -17.6254 -17.5316 -17.4211 -17.2132
   -16.9294 -16.7742 -16.6574 -16.4577 -16.3082 -16.2660 -16.0245 -15.8702
   -15.6085 -15.5147 -15.1348 -15.0758 -14.9489 -14.8150 -14.7363 -14.3975
   -14.2853 -14.2564 -14.0076 -13.9969 -13.7850 -13.7364 -13.7005 -13.6333
   -13.5589 -13.2065 -13.1556 -12.9162 -12.8287 -12.6588 -12.5227 -12.4218
   -12.3176 -12.0472 -11.8898 -11.6754 -11.5999 -11.4957 -11.3853 -10.9878
   -10.7302 -10.4826 -10.2059  -9.8901  -9.7958  -9.5936  -9.1810  -8.9269
    -8.7209  -8.5493  -8.3848  -8.3017  -8.0751  -7.7979  -7.7580  -7.5224
    -7.3435  -7.1733  -6.9637  -6.8732  -6.8008  -6.5076  -6.4365  -6.2653
    -6.2102  -6.1178  -6.0538  -5.9356  -5.7848  -5.5740  -5.4732  -5.4139
    -5.3966  -5.2535  -5.1864  -5.0819  -4.9859  -4.8386  -4.7511  -4.6232
    -4.5792  -4.5219  -4.3871  -4.3452  -4.2017  -4.0856  -4.0610  -3.9743
    -3.8731  -3.8171  -3.6391  -3.5385  -3.4926  -3.3589  -3.2473  -3.1843
    -3.0977  -3.0292  -2.9553  -2.8681  -2.7232  -2.7088  -2.5930  -2.4781
    -2.4136  -2.3663  -2.2964  -2.2315  -2.1284  -2.0900  -1.9198  -1.8615
    -1.8106  -1.5743  -1.5107  -1.4139  -1.2860  -1.2092  -1.0493  -1.0119
    -0.9328  -0.8727  -0.7777  -0.6446  -0.5464  -0.3894  -0.2916  -0.1740
    -0.1584  -0.0815  -0.0416   0.0376   0.1318   0.1810   0.2362   0.4761
     0.5414   0.5881   0.8191   0.9228   0.9298   1.1855   1.3453   1.4431
     1.6145   1.7490   1.8010   1.9139   2.0459   2.0823   2.4637   2.5791
     2.6542   2.8705   2.9935   3.0750   3.2234   3.4002   3.4874   3.6862
     3.8247   3.9041   4.2908   4.6491   4.8383   5.0656   5.1285   5.2297
     5.5579   5.9638   6.1950   6.3947   6.6636   7.0348   7.1361   7.2939
     7.3925   7.4243   7.5335   7.7919   8.1434   8.3203   8.4244   8.7198
     8.7334   9.1304   9.1902   9.2485   9.5456   9.6393   9.7744   9.9382
    10.0547  10.1393  10.2829  10.4522  10.5042  10.5373  10.6911  10.7456
    10.8629  10.9801  11.0433  11.2035  11.2378  11.3816  11.4442  11.5469
    11.6009  11.7246  11.8067  11.8923  11.9639  12.0276  12.0897  12.1875
    12.2600  12.3303  12.4488

     the Fermi energy is     5.4027 ev

!    total energy              =   -1797.00483288 Ry
     Harris-Foulkes estimate   =   -1797.00483289 Ry
     estimated scf accuracy    <          3.9E-09 Ry

     The total energy is the sum of the following terms:

     one-electron contribution =  -15764.02518305 Ry
     hartree contribution      =    8051.14807461 Ry
     xc contribution           =    -638.49051363 Ry
     ewald contribution        =    6554.35475834 Ry
     smearing contrib. (-TS)   =       0.00803085 Ry

     convergence has been achieved in  23 iterations

     Writing output data file pwscf.save
 
     init_run     :      0.61s CPU      0.66s WALL (       1 calls)
     electrons    :     52.80s CPU     54.27s WALL (       1 calls)

     Called by init_run:
     wfcinit      :      0.51s CPU      0.56s WALL (       1 calls)
     potinit      :      0.02s CPU      0.02s WALL (       1 calls)

     Called by electrons:
     c_bands      :     50.48s CPU     51.69s WALL (      23 calls)
     sum_band     :      1.95s CPU      1.99s WALL (      23 calls)
     v_of_rho     :      0.19s CPU      0.20s WALL (      24 calls)
     mix_rho      :      0.14s CPU      0.27s WALL (      23 calls)

     Called by c_bands:
     init_us_2    :      0.06s CPU      0.07s WALL (      47 calls)
     cegterg      :     50.36s CPU     51.50s WALL (      23 calls)

     Called by sum_band:

     Called by *egterg:
     h_psi        :      8.78s CPU      8.92s WALL (     113 calls)
     g_psi        :      0.07s CPU      0.07s WALL (      89 calls)
     cdiaghg      :     31.91s CPU     31.94s WALL (     112 calls)

     Called by h_psi:
     h_psi:pot    :      8.56s CPU      8.70s WALL (     113 calls)
     h_psi:calbec :      0.31s CPU      0.32s WALL (     113 calls)
     vloc_psi     :      7.97s CPU      8.10s WALL (     113 calls)
     add_vuspsi   :      0.28s CPU      0.28s WALL (     113 calls)

     General routines
     calbec       :      0.31s CPU      0.32s WALL (     113 calls)
     fft          :      0.10s CPU      0.11s WALL (     263 calls)
     fftw         :      8.88s CPU      9.03s WALL (   39091 calls)
     davcio       :      0.02s CPU      0.14s WALL (     368 calls)
 
     Parallel routines
     fft_scatter  :      2.90s CPU      2.97s WALL (   39354 calls)
 
     PWSCF        :    53.58s CPU        55.28s WALL

 
   This run was terminated on:   8:27:16   2Feb2018            

=------------------------------------------------------------------------------=
   JOB DONE.
=------------------------------------------------------------------------------=
