
     Program PWSCF v.6.0 (svn rev. 13079) starts on  2Feb2018 at 10:21:11 

     This program is part of the open-source Quantum ESPRESSO suite
     for quantum simulation of materials; please cite
         "P. Giannozzi et al., J. Phys.:Condens. Matter 21 395502 (2009);
          URL http://www.quantum-espresso.org", 
     in publications or presentations arising from this work. More details at
     http://www.quantum-espresso.org/quote

     Parallel version (MPI), running on    28 processors
     R & G space division:  proc/nbgrp/npool/nimage =      28
     Reading input from input/scf-bigwater-1/354.in
Warning: card &IONS ignored
Warning: card     POT_EXTRAPOLATION='SECOND-ORDER' ignored
Warning: card     WFC_EXTRAPOLATION='SECOND-ORDER' ignored
Warning: card     ION_TEMPERATURE = 'ANDERSEN' ignored
Warning: card     TEMPW = 1000 ignored
Warning: card / ignored

     Current dimensions of program PWSCF are:
     Max number of different atomic species (ntypx) = 10
     Max number of k-points (npk) =  40000
     Max angular momentum in pseudopotentials (lmaxx) =  3

     Subspace diagonalization in iterative solution of the eigenvalue problem:
     a serial algorithm will be used

 
     Parallelization info
     --------------------
     sticks:   dense  smooth     PW     G-vecs:    dense   smooth      PW
     Min         136     136     33                 6338     6338     787
     Max         137     137     34                 6341     6341     792
     Sum        3809    3809    949               177509   177509   22119
 


     bravais-lattice index     =            1
     lattice parameter (alat)  =      20.0000  a.u.
     unit-cell volume          =    8000.0000 (a.u.)^3
     number of atoms/cell      =          192
     number of atomic types    =            2
     number of electrons       =       512.00
     number of Kohn-Sham states=          307
     kinetic-energy cutoff     =      30.0000  Ry
     charge density cutoff     =     120.0000  Ry
     convergence threshold     =      1.0E-08
     mixing beta               =       0.7000
     number of iterations used =            8  plain     mixing
     Exchange-correlation      = BLYP ( 1  3  1  3 0 0)

     celldm(1)=  20.000000  celldm(2)=   0.000000  celldm(3)=   0.000000
     celldm(4)=   0.000000  celldm(5)=   0.000000  celldm(6)=   0.000000

     crystal axes: (cart. coord. in units of alat)
               a(1) = (   1.000000   0.000000   0.000000 )  
               a(2) = (   0.000000   1.000000   0.000000 )  
               a(3) = (   0.000000   0.000000   1.000000 )  

     reciprocal axes: (cart. coord. in units 2 pi/alat)
               b(1) = (  1.000000  0.000000  0.000000 )  
               b(2) = (  0.000000  1.000000  0.000000 )  
               b(3) = (  0.000000  0.000000  1.000000 )  


     PseudoPot. # 1 for  H read from file:
     ./H.blyp-hgh.UPF
     MD5 check sum: c576e69559cde411e611be972c763230
     Pseudo is Norm-conserving, Zval =  1.0
     Generated in analytical, separable form
     Using radial grid of  929 points,  0 beta functions with: 

     PseudoPot. # 2 for  O read from file:
     ./O.blyp-hgh.UPF
     MD5 check sum: d0b7156309aa9befef28faac7bc56342
     Pseudo is Norm-conserving, Zval =  6.0
     Generated in analytical, separable form
     Using radial grid of 1095 points,  1 beta functions with: 
                l(1) =   0

     atomic species   valence    mass     pseudopotential
        H              1.00     1.01000      H( 1.00)
        O              6.00    16.00000      O( 1.00)

     No symmetry found



   Cartesian axes

     site n.     atom                  positions (alat units)
         1           O   tau(   1) = (  -0.2588054  -0.0663229  -0.0976584  )
         2           O   tau(   2) = (   0.1783659  -0.1090809   0.2793957  )
         3           O   tau(   3) = (  -0.2885193   0.2867764  -0.2680779  )
         4           O   tau(   4) = (   0.0028686   0.1996611  -0.0608916  )
         5           O   tau(   5) = (  -0.2381651   0.0470563   0.2006667  )
         6           O   tau(   6) = (  -0.0149526   0.2972011   0.2669156  )
         7           O   tau(   7) = (  -0.0154600  -0.2706288  -0.1565639  )
         8           O   tau(   8) = (   0.1246053   0.0074926   0.1917062  )
         9           O   tau(   9) = (  -0.1351173  -0.2730018   0.2933443  )
        10           O   tau(  10) = (   0.1232827  -0.1290889   0.1201449  )
        11           O   tau(  11) = (   0.1326351  -0.3186857   0.1447855  )
        12           O   tau(  12) = (  -0.2021137  -0.1699269   0.2275264  )
        13           O   tau(  13) = (  -0.2245039  -0.2880691   0.0305019  )
        14           O   tau(  14) = (  -0.1780604  -0.2764120  -0.2018715  )
        15           O   tau(  15) = (   0.1415901  -0.1536520  -0.1238155  )
        16           O   tau(  16) = (  -0.1150371   0.1262781   0.0032142  )
        17           O   tau(  17) = (  -0.0674284  -0.1139424   0.1185712  )
        18           O   tau(  18) = (   0.0128924  -0.2264773   0.1953315  )
        19           O   tau(  19) = (   0.2516067  -0.2275336  -0.2495687  )
        20           O   tau(  20) = (   0.2525036   0.2543636   0.1127628  )
        21           O   tau(  21) = (   0.2806119  -0.1641821   0.1706722  )
        22           O   tau(  22) = (  -0.1604831  -0.1270498  -0.1970638  )
        23           O   tau(  23) = (  -0.0560518   0.1386216  -0.2448848  )
        24           O   tau(  24) = (   0.2074380   0.1170708   0.1472006  )
        25           O   tau(  25) = (   0.1223178   0.0771590  -0.1767183  )
        26           O   tau(  26) = (  -0.2183638   0.1243589  -0.3207215  )
        27           O   tau(  27) = (   0.2320853  -0.2931080  -0.0524073  )
        28           O   tau(  28) = (   0.0986190  -0.0428806  -0.2543198  )
        29           O   tau(  29) = (  -0.0979519  -0.0031574  -0.2543459  )
        30           O   tau(  30) = (   0.0603379  -0.0188639   0.0552022  )
        31           O   tau(  31) = (   0.2436534  -0.0869743  -0.1700891  )
        32           O   tau(  32) = (   0.2569593  -0.0044847  -0.0053266  )
        33           O   tau(  33) = (   0.0034991   0.2346755   0.1450768  )
        34           O   tau(  34) = (  -0.2310291   0.0333292  -0.2080797  )
        35           O   tau(  35) = (   0.0508039  -0.1932941  -0.0181137  )
        36           O   tau(  36) = (   0.2209622   0.2197667  -0.2523522  )
        37           O   tau(  37) = (   0.1411658   0.2781390   0.2824876  )
        38           O   tau(  38) = (  -0.2728399   0.2359038  -0.0953937  )
        39           O   tau(  39) = (  -0.0102669   0.0474875  -0.1069445  )
        40           O   tau(  40) = (  -0.1602410  -0.1985773  -0.0432727  )
        41           O   tau(  41) = (  -0.1454200   0.2750076   0.1610683  )
        42           O   tau(  42) = (  -0.1042401   0.1458376   0.2365309  )
        43           O   tau(  43) = (  -0.1186889  -0.0525043  -0.0373580  )
        44           O   tau(  44) = (  -0.0699269  -0.0773608   0.2465293  )
        45           O   tau(  45) = (   0.0368418   0.0913118   0.2671225  )
        46           O   tau(  46) = (  -0.2255045   0.1595223   0.0637882  )
        47           O   tau(  47) = (   0.1623056   0.2153130  -0.0509103  )
        48           O   tau(  48) = (   0.1393099  -0.2824224  -0.1961288  )
        49           O   tau(  49) = (  -0.1271698   0.2113024  -0.1313517  )
        50           O   tau(  50) = (   0.2359817   0.0331465   0.2886953  )
        51           O   tau(  51) = (  -0.1316437   0.0201084   0.1077763  )
        52           O   tau(  52) = (  -0.0289237  -0.1049617  -0.1449474  )
        53           O   tau(  53) = (   0.0003650  -0.1729029  -0.2766965  )
        54           O   tau(  54) = (   0.2937725  -0.2934285   0.2200586  )
        55           O   tau(  55) = (   0.2281534  -0.1668823   0.0069032  )
        56           O   tau(  56) = (   0.2343740  -0.0398973   0.1150927  )
        57           O   tau(  57) = (   0.0743560   0.2071804  -0.2126076  )
        58           O   tau(  58) = (  -0.0643315  -0.2914880   0.0036014  )
        59           O   tau(  59) = (  -0.2639687  -0.0954163  -0.2962913  )
        60           O   tau(  60) = (  -0.2397028   0.0598997  -0.0386487  )
        61           O   tau(  61) = (   0.2532855   0.0914303  -0.1228385  )
        62           O   tau(  62) = (   0.1344367  -0.0180037  -0.0671018  )
        63           O   tau(  63) = (  -0.2520439  -0.0806981   0.0585282  )
        64           O   tau(  64) = (   0.0830700   0.1144702   0.0625348  )
        65           H   tau(  65) = (  -0.2676211  -0.0929198  -0.0574446  )
        66           H   tau(  66) = (  -0.2529056  -0.0207990  -0.0789741  )
        67           H   tau(  67) = (   0.2144351  -0.0800203   0.2631570  )
        68           H   tau(  68) = (   0.1502688  -0.1122242   0.2392084  )
        69           H   tau(  69) = (  -0.3272198   0.2639972  -0.2471652  )
        70           H   tau(  70) = (  -0.2472968   0.2846258  -0.2422388  )
        71           H   tau(  71) = (  -0.0037483   0.1515661  -0.0735177  )
        72           H   tau(  72) = (   0.0456874   0.2064296  -0.0845882  )
        73           H   tau(  73) = (  -0.2841561   0.0550705   0.2160477  )
        74           H   tau(  74) = (  -0.2098123   0.0742267   0.2312311  )
        75           H   tau(  75) = (   0.0022446   0.3392480   0.2447773  )
        76           H   tau(  76) = (   0.0048718   0.2997351   0.3114826  )
        77           H   tau(  77) = (  -0.0325119  -0.2786464  -0.1113548  )
        78           H   tau(  78) = (  -0.0553928  -0.2730432  -0.1848111  )
        79           H   tau(  79) = (   0.1558267   0.0455153   0.1837063  )
        80           H   tau(  80) = (   0.0893186   0.0280761   0.2198019  )
        81           H   tau(  81) = (  -0.1548055  -0.3035114   0.3262443  )
        82           H   tau(  82) = (  -0.0895072  -0.2910850   0.2841985  )
        83           H   tau(  83) = (   0.0922304  -0.0921780   0.1307861  )
        84           H   tau(  84) = (   0.1363100  -0.1119571   0.0754563  )
        85           H   tau(  85) = (   0.1811399  -0.3295480   0.1400214  )
        86           H   tau(  86) = (   0.1095215  -0.3453221   0.1109889  )
        87           H   tau(  87) = (  -0.1970008  -0.1907021   0.2719552  )
        88           H   tau(  88) = (  -0.2348611  -0.1339242   0.2296855  )
        89           H   tau(  89) = (  -0.2446696  -0.3301765   0.0147926  )
        90           H   tau(  90) = (  -0.1936195  -0.2808899  -0.0079431  )
        91           H   tau(  91) = (  -0.1496696  -0.2367361  -0.1963064  )
        92           H   tau(  92) = (  -0.1752212  -0.3025084  -0.1605165  )
        93           H   tau(  93) = (   0.1176557  -0.1138392  -0.1075781  )
        94           H   tau(  94) = (   0.1197585  -0.1863702  -0.0936079  )
        95           H   tau(  95) = (  -0.0676399   0.1376051  -0.0043031  )
        96           H   tau(  96) = (  -0.1050258   0.0821284   0.0233472  )
        97           H   tau(  97) = (  -0.0289413  -0.1364180   0.0964405  )
        98           H   tau(  98) = (  -0.0610678  -0.1077200   0.1675027  )
        99           H   tau(  99) = (   0.0371393  -0.2211523   0.1530102  )
       100           H   tau( 100) = (  -0.0307082  -0.2053181   0.1900271  )
       101           H   tau( 101) = (   0.2905212  -0.2560961  -0.2387630  )
       102           H   tau( 102) = (   0.2446100  -0.1925783  -0.2157981  )
       103           H   tau( 103) = (   0.2870305   0.2822243   0.1341053  )
       104           H   tau( 104) = (   0.2642639   0.2508379   0.0657987  )
       105           H   tau( 105) = (   0.2706540  -0.1157417   0.1685390  )
       106           H   tau( 106) = (   0.2371755  -0.1820892   0.1569671  )
       107           H   tau( 107) = (  -0.1193331  -0.1056644  -0.1793746  )
       108           H   tau( 108) = (  -0.1482160  -0.1321561  -0.2441995  )
       109           H   tau( 109) = (  -0.0252266   0.1597280  -0.2136884  )
       110           H   tau( 110) = (  -0.0739142   0.0962727  -0.2265241  )
       111           H   tau( 111) = (   0.2099146   0.1661796   0.1430796  )
       112           H   tau( 112) = (   0.1745112   0.1045750   0.1128432  )
       113           H   tau( 113) = (   0.0956607   0.0454162  -0.2037316  )
       114           H   tau( 114) = (   0.1029497   0.1217199  -0.1871473  )
       115           H   tau( 115) = (  -0.2385800   0.0900236  -0.2924002  )
       116           H   tau( 116) = (  -0.1718846   0.1237013  -0.3048861  )
       117           H   tau( 117) = (   0.2184241  -0.2660897  -0.0131967  )
       118           H   tau( 118) = (   0.2763907  -0.3104276  -0.0410428  )
       119           H   tau( 119) = (   0.1375929  -0.0664816  -0.2753600  )
       120           H   tau( 120) = (   0.0806873  -0.0227079  -0.2951599  )
       121           H   tau( 121) = (  -0.1115128  -0.0122132  -0.3007518  )
       122           H   tau( 122) = (  -0.1385666  -0.0113419  -0.2283950  )
       123           H   tau( 123) = (   0.0821754   0.0211936   0.0726089  )
       124           H   tau( 124) = (   0.0728396  -0.0194969   0.0076911  )
       125           H   tau( 125) = (   0.2100795  -0.1199120  -0.1537705  )
       126           H   tau( 126) = (   0.2870508  -0.0958953  -0.1485575  )
       127           H   tau( 127) = (   0.2693975   0.0371800  -0.0280148  )
       128           H   tau( 128) = (   0.2840552  -0.0380345  -0.0303886  )
       129           H   tau( 129) = (   0.0161296   0.2610302   0.1854577  )
       130           H   tau( 130) = (  -0.0452929   0.2365260   0.1520032  )
       131           H   tau( 131) = (  -0.2153321   0.0234081  -0.1628077  )
       132           H   tau( 132) = (  -0.2802942   0.0331226  -0.2066504  )
       133           H   tau( 133) = (   0.0151520  -0.2252712  -0.0062595  )
       134           H   tau( 134) = (   0.0406683  -0.1514263   0.0043953  )
       135           H   tau( 135) = (   0.1925568   0.2271190  -0.2929471  )
       136           H   tau( 136) = (   0.2334486   0.1728746  -0.2563987  )
       137           H   tau( 137) = (   0.1357996   0.2963265   0.2362976  )
       138           H   tau( 138) = (   0.1698538   0.3096205   0.3069430  )
       139           H   tau( 139) = (  -0.3044980   0.2164357  -0.0635339  )
       140           H   tau( 140) = (  -0.2560250   0.1948300  -0.1172187  )
       141           H   tau( 141) = (  -0.0546381   0.0239211  -0.1106607  )
       142           H   tau( 142) = (  -0.0019768   0.0331724  -0.0609121  )
       143           H   tau( 143) = (  -0.1813733  -0.1936438   0.0021751  )
       144           H   tau( 144) = (  -0.1958582  -0.1835399  -0.0743914  )
       145           H   tau( 145) = (  -0.1583838   0.2837963   0.1147678  )
       146           H   tau( 146) = (  -0.1676566   0.3119161   0.1857992  )
       147           H   tau( 147) = (  -0.1033453   0.1416500   0.1879581  )
       148           H   tau( 148) = (  -0.1007590   0.1945901   0.2406988  )
       149           H   tau( 149) = (  -0.1397389  -0.0951758  -0.0260608  )
       150           H   tau( 150) = (  -0.1400713  -0.0188827  -0.0091895  )
       151           H   tau( 151) = (  -0.1145669  -0.0994062   0.2417388  )
       152           H   tau( 152) = (  -0.0469164  -0.1121141   0.2740162  )
       153           H   tau( 153) = (   0.0305671   0.1107357   0.3121454  )
       154           H   tau( 154) = (  -0.0038776   0.1145785   0.2490487  )
       155           H   tau( 155) = (  -0.2033831   0.1308957   0.0970015  )
       156           H   tau( 156) = (  -0.1842219   0.1744359   0.0403711  )
       157           H   tau( 157) = (   0.1844433   0.2558884  -0.0691481  )
       158           H   tau( 158) = (   0.1744981   0.1738962  -0.0738125  )
       159           H   tau( 159) = (   0.1877416  -0.2770600  -0.1896733  )
       160           H   tau( 160) = (   0.1201730  -0.2915728  -0.1522768  )
       161           H   tau( 161) = (  -0.1012651   0.2131334  -0.1724452  )
       162           H   tau( 162) = (  -0.1071119   0.2361203  -0.0946423  )
       163           H   tau( 163) = (   0.2491727  -0.0017930   0.3216417  )
       164           H   tau( 164) = (   0.1958933   0.0138961   0.2679265  )
       165           H   tau( 165) = (  -0.1094570  -0.0241955   0.1071876  )
       166           H   tau( 166) = (  -0.1797797   0.0159706   0.1168448  )
       167           H   tau( 167) = (   0.0033441  -0.0792869  -0.1716117  )
       168           H   tau( 168) = (  -0.0065420  -0.1455793  -0.1295052  )
       169           H   tau( 169) = (  -0.0187508  -0.1906813  -0.2357444  )
       170           H   tau( 170) = (   0.0483322  -0.1682768  -0.2675209  )
       171           H   tau( 171) = (   0.3199225  -0.3125395   0.2574894  )
       172           H   tau( 172) = (   0.3117112  -0.2477363   0.2149468  )
       173           H   tau( 173) = (   0.2703216  -0.1808383  -0.0130091  )
       174           H   tau( 174) = (   0.1937958  -0.1781699  -0.0260153  )
       175           H   tau( 175) = (   0.2566345   0.0030170   0.1211817  )
       176           H   tau( 176) = (   0.1905572  -0.0400252   0.1373206  )
       177           H   tau( 177) = (   0.0847450   0.1959093  -0.2591312  )
       178           H   tau( 178) = (   0.1177418   0.2285961  -0.2032411  )
       179           H   tau( 179) = (  -0.0471009  -0.3371431   0.0098014  )
       180           H   tau( 180) = (  -0.1069845  -0.2930188   0.0279728  )
       181           H   tau( 181) = (  -0.2400279  -0.0524047  -0.3050684  )
       182           H   tau( 182) = (  -0.2705344  -0.0929736  -0.2475145  )
       183           H   tau( 183) = (  -0.1910441   0.0681230  -0.0347665  )
       184           H   tau( 184) = (  -0.2531028   0.0623225   0.0083287  )
       185           H   tau( 185) = (   0.2504011   0.1375530  -0.1387382  )
       186           H   tau( 186) = (   0.2093280   0.0736543  -0.1377899  )
       187           H   tau( 187) = (   0.1765947  -0.0165545  -0.0419920  )
       188           H   tau( 188) = (   0.1305495   0.0233487  -0.0935117  )
       189           H   tau( 189) = (  -0.2994337  -0.0700289   0.0674330  )
       190           H   tau( 190) = (  -0.2438108  -0.1119669   0.0961126  )
       191           H   tau( 191) = (   0.0817244   0.1537779   0.0926072  )
       192           H   tau( 192) = (   0.0740172   0.1357498   0.0189712  )

     number of k points=     1  Marzari-Vanderbilt smearing, width (Ry)=  0.0250
                       cart. coord. in units 2pi/alat
        k(    1) = (   0.0000000   0.0000000   0.0000000), wk =   2.0000000

     Dense  grid:   177509 G-vectors     FFT dimensions: (  72,  72,  72)

     Estimated max dynamical RAM per process >      67.80Mb

     Estimated total allocated dynamical RAM >    1898.40Mb

     Initial potential from superposition of free atoms
     Check: negative starting charge=   -0.838742

     starting charge  511.99856, renormalised to  512.00000

     negative rho (up, down):  8.387E-01 0.000E+00
     Starting wfc are  384 randomized atomic wfcs

     total cpu time spent up to now is        0.8 secs

     per-process dynamical memory:    45.9 Mb

     Self-consistent Calculation

     iteration #  1     ecut=    30.00 Ry     beta=0.70
     Davidson diagonalization with overlap
     ethr =  1.00E-02,  avg # of iterations =  8.0

     negative rho (up, down):  2.042E-01 0.000E+00

     total cpu time spent up to now is        9.1 secs

     total energy              =   -1799.02500209 Ry
     Harris-Foulkes estimate   =   -1825.93391409 Ry
     estimated scf accuracy    <      41.28870890 Ry

     iteration #  2     ecut=    30.00 Ry     beta=0.70
     Davidson diagonalization with overlap
     ethr =  8.06E-03,  avg # of iterations =  4.0

     negative rho (up, down):  3.557E-03 0.000E+00

     total cpu time spent up to now is       12.2 secs

     total energy              =   -1779.48835222 Ry
     Harris-Foulkes estimate   =   -1812.63943924 Ry
     estimated scf accuracy    <      75.73880609 Ry

     iteration #  3     ecut=    30.00 Ry     beta=0.70
     Davidson diagonalization with overlap
     ethr =  8.06E-03,  avg # of iterations =  5.0

     negative rho (up, down):  2.003E-05 0.000E+00

     total cpu time spent up to now is       16.0 secs

     total energy              =   -1801.89319232 Ry
     Harris-Foulkes estimate   =   -1813.54410786 Ry
     estimated scf accuracy    <      35.52190834 Ry

     iteration #  4     ecut=    30.00 Ry     beta=0.70
     Davidson diagonalization with overlap
     ethr =  6.94E-03,  avg # of iterations =  3.0

     total cpu time spent up to now is       17.8 secs

     total energy              =   -1806.53127594 Ry
     Harris-Foulkes estimate   =   -1808.47917094 Ry
     estimated scf accuracy    <       6.36445827 Ry

     iteration #  5     ecut=    30.00 Ry     beta=0.70
     Davidson diagonalization with overlap
     ethr =  1.24E-03,  avg # of iterations =  4.0

     total cpu time spent up to now is       20.0 secs

     total energy              =   -1806.18821804 Ry
     Harris-Foulkes estimate   =   -1806.86209505 Ry
     estimated scf accuracy    <       2.62539331 Ry

     iteration #  6     ecut=    30.00 Ry     beta=0.70
     Davidson diagonalization with overlap
     ethr =  5.13E-04,  avg # of iterations =  4.0

     total cpu time spent up to now is       22.1 secs

     total energy              =   -1805.93804070 Ry
     Harris-Foulkes estimate   =   -1806.27914117 Ry
     estimated scf accuracy    <       1.07195086 Ry

     iteration #  7     ecut=    30.00 Ry     beta=0.70
     Davidson diagonalization with overlap
     ethr =  2.09E-04,  avg # of iterations =  6.0

     total cpu time spent up to now is       25.0 secs

     total energy              =   -1806.05559271 Ry
     Harris-Foulkes estimate   =   -1806.06634847 Ry
     estimated scf accuracy    <       0.51171942 Ry

     iteration #  8     ecut=    30.00 Ry     beta=0.70
     Davidson diagonalization with overlap
     ethr =  9.99E-05,  avg # of iterations =  1.0

     total cpu time spent up to now is       26.1 secs

     total energy              =   -1805.99861269 Ry
     Harris-Foulkes estimate   =   -1806.05762200 Ry
     estimated scf accuracy    <       0.41592744 Ry

     iteration #  9     ecut=    30.00 Ry     beta=0.70
     Davidson diagonalization with overlap
     ethr =  8.12E-05,  avg # of iterations =  5.0

     total cpu time spent up to now is       28.4 secs

     total energy              =   -1805.98555396 Ry
     Harris-Foulkes estimate   =   -1806.05637404 Ry
     estimated scf accuracy    <       0.78729720 Ry

     iteration # 10     ecut=    30.00 Ry     beta=0.70
     Davidson diagonalization with overlap
     ethr =  8.12E-05,  avg # of iterations =  2.0

     total cpu time spent up to now is       29.8 secs

     total energy              =   -1806.00267599 Ry
     Harris-Foulkes estimate   =   -1806.01099886 Ry
     estimated scf accuracy    <       0.10648094 Ry

     iteration # 11     ecut=    30.00 Ry     beta=0.70
     Davidson diagonalization with overlap
     ethr =  2.08E-05,  avg # of iterations =  8.0

     total cpu time spent up to now is       33.1 secs

     total energy              =   -1806.00076440 Ry
     Harris-Foulkes estimate   =   -1806.01178315 Ry
     estimated scf accuracy    <       0.22659190 Ry

     iteration # 12     ecut=    30.00 Ry     beta=0.70
     Davidson diagonalization with overlap
     ethr =  2.08E-05,  avg # of iterations =  1.0

     total cpu time spent up to now is       34.2 secs

     total energy              =   -1805.99691761 Ry
     Harris-Foulkes estimate   =   -1806.00398519 Ry
     estimated scf accuracy    <       0.10119140 Ry

     iteration # 13     ecut=    30.00 Ry     beta=0.70
     Davidson diagonalization with overlap
     ethr =  1.98E-05,  avg # of iterations =  1.0

     total cpu time spent up to now is       35.4 secs

     total energy              =   -1805.99809379 Ry
     Harris-Foulkes estimate   =   -1806.00006097 Ry
     estimated scf accuracy    <       0.03325712 Ry

     iteration # 14     ecut=    30.00 Ry     beta=0.70
     Davidson diagonalization with overlap
     ethr =  6.50E-06,  avg # of iterations =  3.0

     total cpu time spent up to now is       37.1 secs

     total energy              =   -1805.99826163 Ry
     Harris-Foulkes estimate   =   -1805.99876822 Ry
     estimated scf accuracy    <       0.00650370 Ry

     iteration # 15     ecut=    30.00 Ry     beta=0.70
     Davidson diagonalization with overlap
     ethr =  1.27E-06,  avg # of iterations =  6.0

     total cpu time spent up to now is       39.7 secs

     total energy              =   -1805.99847107 Ry
     Harris-Foulkes estimate   =   -1805.99853125 Ry
     estimated scf accuracy    <       0.00025750 Ry

     iteration # 16     ecut=    30.00 Ry     beta=0.70
     Davidson diagonalization with overlap
     ethr =  5.03E-08,  avg # of iterations =  2.0

     total cpu time spent up to now is       41.2 secs

     total energy              =   -1805.99849690 Ry
     Harris-Foulkes estimate   =   -1805.99850570 Ry
     estimated scf accuracy    <       0.00007733 Ry

     iteration # 17     ecut=    30.00 Ry     beta=0.70
     Davidson diagonalization with overlap
     ethr =  1.51E-08,  avg # of iterations =  2.0

     total cpu time spent up to now is       42.6 secs

     total energy              =   -1805.99850122 Ry
     Harris-Foulkes estimate   =   -1805.99850242 Ry
     estimated scf accuracy    <       0.00000464 Ry

     iteration # 18     ecut=    30.00 Ry     beta=0.70
     Davidson diagonalization with overlap
     ethr =  9.06E-10,  avg # of iterations =  2.0

     total cpu time spent up to now is       44.2 secs

     total energy              =   -1805.99850189 Ry
     Harris-Foulkes estimate   =   -1805.99850210 Ry
     estimated scf accuracy    <       0.00000105 Ry

     iteration # 19     ecut=    30.00 Ry     beta=0.70
     Davidson diagonalization with overlap
     ethr =  2.04E-10,  avg # of iterations =  2.0

     total cpu time spent up to now is       45.7 secs

     total energy              =   -1805.99850201 Ry
     Harris-Foulkes estimate   =   -1805.99850206 Ry
     estimated scf accuracy    <       0.00000024 Ry

     iteration # 20     ecut=    30.00 Ry     beta=0.70
     Davidson diagonalization with overlap
     ethr =  4.75E-11,  avg # of iterations =  2.0

     total cpu time spent up to now is       47.1 secs

     total energy              =   -1805.99850202 Ry
     Harris-Foulkes estimate   =   -1805.99850203 Ry
     estimated scf accuracy    <       0.00000001 Ry

     iteration # 21     ecut=    30.00 Ry     beta=0.70
     Davidson diagonalization with overlap
     ethr =  2.76E-12,  avg # of iterations =  3.0

     total cpu time spent up to now is       49.4 secs

     total energy              =   -1805.99850203 Ry
     Harris-Foulkes estimate   =   -1805.99850203 Ry
     estimated scf accuracy    <       0.00000001 Ry

     iteration # 22     ecut=    30.00 Ry     beta=0.70
     Davidson diagonalization with overlap
     ethr =  2.22E-12,  avg # of iterations =  2.0

     total cpu time spent up to now is       51.0 secs

     End of self-consistent calculation

          k = 0.0000 0.0000 0.0000 ( 22119 PWs)   bands (ev):

   -41.2574 -39.8009 -39.5292 -38.2929 -37.8831 -37.2816 -36.9490 -36.5356
   -36.1722 -35.6903 -35.3419 -35.2274 -34.8546 -34.3940 -34.2212 -33.3869
   -33.1681 -32.9449 -32.5254 -32.4388 -32.0018 -31.8731 -31.6077 -31.3363
   -31.1246 -31.0885 -30.7868 -30.6691 -30.4351 -30.1067 -30.0419 -29.9579
   -29.7141 -29.4333 -29.3532 -29.1487 -29.0180 -28.8994 -28.7908 -28.5887
   -28.5416 -28.3214 -27.9693 -27.7626 -27.6744 -27.5449 -27.4109 -27.1804
   -27.0135 -26.8371 -26.6841 -26.6356 -26.4449 -26.3838 -26.2560 -26.2204
   -25.9817 -25.9174 -25.7936 -25.7512 -25.5725 -25.3899 -24.5854 -24.3294
   -21.8812 -21.3516 -20.5961 -20.2893 -20.1312 -19.9360 -19.7988 -19.4995
   -19.3164 -18.9368 -18.6989 -18.5589 -18.2927 -18.1772 -17.7791 -17.6303
   -17.4128 -17.3793 -17.2541 -17.0757 -16.8940 -16.7394 -16.6743 -16.5824
   -16.5036 -16.4166 -16.3254 -16.1720 -15.9455 -15.7304 -15.6824 -15.4381
   -15.1500 -14.9569 -14.8803 -14.8159 -14.7912 -14.6024 -14.3514 -14.2571
   -14.1710 -13.9519 -13.8851 -13.8350 -13.5936 -13.5073 -13.4630 -13.3855
   -13.2409 -13.1436 -13.0269 -12.9986 -12.8924 -12.6275 -12.5341 -12.3664
   -12.2003 -11.9987 -11.9188 -11.7438 -11.6014 -11.4451 -11.0559 -10.9678
   -10.8782 -10.4405 -10.1509  -9.8549  -9.6950  -9.3816  -9.2355  -8.8885
    -8.7672  -8.7173  -8.4131  -8.3127  -7.8211  -7.7736  -7.5746  -7.4610
    -7.3242  -7.1369  -6.9988  -6.8411  -6.7018  -6.5250  -6.4310  -6.3396
    -6.3190  -6.2397  -5.9966  -5.9171  -5.8734  -5.7257  -5.5934  -5.4585
    -5.3611  -5.2205  -5.1681  -5.1144  -4.9299  -4.8382  -4.7537  -4.6422
    -4.5557  -4.4938  -4.4436  -4.3615  -4.0619  -3.9933  -3.8967  -3.8532
    -3.7157  -3.6274  -3.4993  -3.4163  -3.3520  -3.3117  -3.2726  -3.1791
    -3.1482  -2.9302  -2.8481  -2.7761  -2.6745  -2.5275  -2.4287  -2.4035
    -2.3115  -2.2250  -2.0709  -2.0575  -1.9992  -1.8203  -1.7433  -1.6379
    -1.5316  -1.4192  -1.3347  -1.2371  -1.1617  -1.0500  -0.9706  -0.7673
    -0.7410  -0.5733  -0.4944  -0.4783  -0.4024  -0.2869  -0.1949  -0.0745
     0.1140   0.2780   0.3306   0.3798   0.4240   0.5511   0.5949   0.7414
     0.7973   0.9030   0.9800   1.0604   1.1361   1.3082   1.4961   1.5381
     1.6088   1.7736   1.8633   2.0434   2.2725   2.3051   2.5438   2.5836
     2.7339   2.8475   3.0669   3.2964   3.3285   3.3584   3.5692   3.7300
     3.9225   4.2229   4.2971   4.5012   4.6630   4.9538   5.1697   5.2201
     5.4669   6.0135   6.2199   6.5915   6.6669   6.9884   7.2218   7.4088
     7.5904   7.6657   7.6875   7.9520   8.2244   8.3786   8.6191   8.7394
     8.9049   9.0645   9.2288   9.2697   9.5772   9.7409   9.8044  10.0729
    10.0926  10.2365  10.3723  10.4075  10.5116  10.6872  10.7698  10.7922
    10.9058  11.0819  11.2102  11.2418  11.2895  11.3622  11.5946  11.6216
    11.6788  11.8137  11.8575  11.8665  12.0142  12.1355  12.2452  12.3220
    12.3357  12.3743  12.4250

     the Fermi energy is     5.3884 ev

!    total energy              =   -1805.99850203 Ry
     Harris-Foulkes estimate   =   -1805.99850203 Ry
     estimated scf accuracy    <          1.8E-09 Ry

     The total energy is the sum of the following terms:

     one-electron contribution =  -15222.65496617 Ry
     hartree contribution      =    7784.74226594 Ry
     xc contribution           =    -636.84891128 Ry
     ewald contribution        =    6268.76317637 Ry
     smearing contrib. (-TS)   =      -0.00006689 Ry

     convergence has been achieved in  22 iterations

     Writing output data file pwscf.save
 
     init_run     :      0.55s CPU      0.61s WALL (       1 calls)
     electrons    :     48.80s CPU     50.33s WALL (       1 calls)

     Called by init_run:
     wfcinit      :      0.46s CPU      0.51s WALL (       1 calls)
     potinit      :      0.02s CPU      0.02s WALL (       1 calls)

     Called by electrons:
     c_bands      :     46.45s CPU     47.73s WALL (      22 calls)
     sum_band     :      1.88s CPU      1.93s WALL (      22 calls)
     v_of_rho     :      0.21s CPU      0.23s WALL (      23 calls)
     mix_rho      :      0.18s CPU      0.31s WALL (      22 calls)

     Called by c_bands:
     init_us_2    :      0.06s CPU      0.06s WALL (      45 calls)
     cegterg      :     46.33s CPU     47.55s WALL (      22 calls)

     Called by sum_band:

     Called by *egterg:
     h_psi        :      8.48s CPU      8.64s WALL (      99 calls)
     g_psi        :      0.07s CPU      0.07s WALL (      76 calls)
     cdiaghg      :     28.82s CPU     28.86s WALL (      98 calls)

     Called by h_psi:
     h_psi:pot    :      8.26s CPU      8.42s WALL (      99 calls)
     h_psi:calbec :      0.31s CPU      0.31s WALL (      99 calls)
     vloc_psi     :      7.69s CPU      7.83s WALL (      99 calls)
     add_vuspsi   :      0.26s CPU      0.27s WALL (      99 calls)

     General routines
     calbec       :      0.31s CPU      0.31s WALL (      99 calls)
     fft          :      0.10s CPU      0.11s WALL (     252 calls)
     fftw         :      8.56s CPU      8.74s WALL (   38010 calls)
     davcio       :      0.02s CPU      0.13s WALL (     348 calls)
 
     Parallel routines
     fft_scatter  :      3.05s CPU      3.13s WALL (   38262 calls)
 
     PWSCF        :    49.61s CPU        51.42s WALL

 
   This run was terminated on:  10:22: 2   2Feb2018            

=------------------------------------------------------------------------------=
   JOB DONE.
=------------------------------------------------------------------------------=
