
     Program PWSCF v.6.0 (svn rev. 13079) starts on  2Feb2018 at 10:27:13 

     This program is part of the open-source Quantum ESPRESSO suite
     for quantum simulation of materials; please cite
         "P. Giannozzi et al., J. Phys.:Condens. Matter 21 395502 (2009);
          URL http://www.quantum-espresso.org", 
     in publications or presentations arising from this work. More details at
     http://www.quantum-espresso.org/quote

     Parallel version (MPI), running on    28 processors
     R & G space division:  proc/nbgrp/npool/nimage =      28
     Reading input from input/scf-bigwater-1/361.in
Warning: card &IONS ignored
Warning: card     POT_EXTRAPOLATION='SECOND-ORDER' ignored
Warning: card     WFC_EXTRAPOLATION='SECOND-ORDER' ignored
Warning: card     ION_TEMPERATURE = 'ANDERSEN' ignored
Warning: card     TEMPW = 1000 ignored
Warning: card / ignored

     Current dimensions of program PWSCF are:
     Max number of different atomic species (ntypx) = 10
     Max number of k-points (npk) =  40000
     Max angular momentum in pseudopotentials (lmaxx) =  3

     Subspace diagonalization in iterative solution of the eigenvalue problem:
     a serial algorithm will be used

 
     Parallelization info
     --------------------
     sticks:   dense  smooth     PW     G-vecs:    dense   smooth      PW
     Min         136     136     33                 6338     6338     787
     Max         137     137     34                 6341     6341     792
     Sum        3809    3809    949               177509   177509   22119
 


     bravais-lattice index     =            1
     lattice parameter (alat)  =      20.0000  a.u.
     unit-cell volume          =    8000.0000 (a.u.)^3
     number of atoms/cell      =          192
     number of atomic types    =            2
     number of electrons       =       512.00
     number of Kohn-Sham states=          307
     kinetic-energy cutoff     =      30.0000  Ry
     charge density cutoff     =     120.0000  Ry
     convergence threshold     =      1.0E-08
     mixing beta               =       0.7000
     number of iterations used =            8  plain     mixing
     Exchange-correlation      = BLYP ( 1  3  1  3 0 0)

     celldm(1)=  20.000000  celldm(2)=   0.000000  celldm(3)=   0.000000
     celldm(4)=   0.000000  celldm(5)=   0.000000  celldm(6)=   0.000000

     crystal axes: (cart. coord. in units of alat)
               a(1) = (   1.000000   0.000000   0.000000 )  
               a(2) = (   0.000000   1.000000   0.000000 )  
               a(3) = (   0.000000   0.000000   1.000000 )  

     reciprocal axes: (cart. coord. in units 2 pi/alat)
               b(1) = (  1.000000  0.000000  0.000000 )  
               b(2) = (  0.000000  1.000000  0.000000 )  
               b(3) = (  0.000000  0.000000  1.000000 )  


     PseudoPot. # 1 for  H read from file:
     ./H.blyp-hgh.UPF
     MD5 check sum: c576e69559cde411e611be972c763230
     Pseudo is Norm-conserving, Zval =  1.0
     Generated in analytical, separable form
     Using radial grid of  929 points,  0 beta functions with: 

     PseudoPot. # 2 for  O read from file:
     ./O.blyp-hgh.UPF
     MD5 check sum: d0b7156309aa9befef28faac7bc56342
     Pseudo is Norm-conserving, Zval =  6.0
     Generated in analytical, separable form
     Using radial grid of 1095 points,  1 beta functions with: 
                l(1) =   0

     atomic species   valence    mass     pseudopotential
        H              1.00     1.01000      H( 1.00)
        O              6.00    16.00000      O( 1.00)

     No symmetry found



   Cartesian axes

     site n.     atom                  positions (alat units)
         1           O   tau(   1) = (  -0.2587388  -0.0661137  -0.0976718  )
         2           O   tau(   2) = (   0.1783136  -0.1096094   0.2795790  )
         3           O   tau(   3) = (  -0.2882831   0.2870427  -0.2681112  )
         4           O   tau(   4) = (   0.0033786   0.1994994  -0.0604349  )
         5           O   tau(   5) = (  -0.2380399   0.0470558   0.2002454  )
         6           O   tau(   6) = (  -0.0152611   0.2983177   0.2673256  )
         7           O   tau(   7) = (  -0.0159516  -0.2704713  -0.1558192  )
         8           O   tau(   8) = (   0.1242179   0.0084141   0.1926917  )
         9           O   tau(   9) = (  -0.1347579  -0.2733465   0.2935962  )
        10           O   tau(  10) = (   0.1241968  -0.1286970   0.1207369  )
        11           O   tau(  11) = (   0.1326978  -0.3192806   0.1446207  )
        12           O   tau(  12) = (  -0.2019477  -0.1705912   0.2277560  )
        13           O   tau(  13) = (  -0.2246669  -0.2884334   0.0300199  )
        14           O   tau(  14) = (  -0.1775960  -0.2757016  -0.2017975  )
        15           O   tau(  15) = (   0.1421731  -0.1542898  -0.1236044  )
        16           O   tau(  16) = (  -0.1148306   0.1261579   0.0018640  )
        17           O   tau(  17) = (  -0.0676392  -0.1150094   0.1188953  )
        18           O   tau(  18) = (   0.0127134  -0.2272242   0.1953469  )
        19           O   tau(  19) = (   0.2505391  -0.2277344  -0.2492040  )
        20           O   tau(  20) = (   0.2516482   0.2546851   0.1128101  )
        21           O   tau(  21) = (   0.2799682  -0.1645607   0.1712406  )
        22           O   tau(  22) = (  -0.1602655  -0.1267338  -0.1969714  )
        23           O   tau(  23) = (  -0.0566876   0.1388235  -0.2446984  )
        24           O   tau(  24) = (   0.2076192   0.1169067   0.1467033  )
        25           O   tau(  25) = (   0.1226443   0.0772374  -0.1773916  )
        26           O   tau(  26) = (  -0.2173208   0.1247023  -0.3203351  )
        27           O   tau(  27) = (   0.2325106  -0.2924857  -0.0518204  )
        28           O   tau(  28) = (   0.0980637  -0.0418214  -0.2551541  )
        29           O   tau(  29) = (  -0.0973506  -0.0032709  -0.2548779  )
        30           O   tau(  30) = (   0.0609132  -0.0194328   0.0554866  )
        31           O   tau(  31) = (   0.2445149  -0.0869952  -0.1703034  )
        32           O   tau(  32) = (   0.2562133  -0.0051656  -0.0051132  )
        33           O   tau(  33) = (   0.0040160   0.2348018   0.1471200  )
        34           O   tau(  34) = (  -0.2310960   0.0328422  -0.2082862  )
        35           O   tau(  35) = (   0.0512879  -0.1932154  -0.0178142  )
        36           O   tau(  36) = (   0.2208314   0.2201363  -0.2533755  )
        37           O   tau(  37) = (   0.1400468   0.2788879   0.2823230  )
        38           O   tau(  38) = (  -0.2733457   0.2367605  -0.0950650  )
        39           O   tau(  39) = (  -0.0100830   0.0471316  -0.1075649  )
        40           O   tau(  40) = (  -0.1609900  -0.1989799  -0.0434284  )
        41           O   tau(  41) = (  -0.1457144   0.2752173   0.1608992  )
        42           O   tau(  42) = (  -0.1049383   0.1458478   0.2371530  )
        43           O   tau(  43) = (  -0.1183863  -0.0537668  -0.0374210  )
        44           O   tau(  44) = (  -0.0700419  -0.0766221   0.2474490  )
        45           O   tau(  45) = (   0.0369367   0.0911438   0.2679014  )
        46           O   tau(  46) = (  -0.2256693   0.1597111   0.0639975  )
        47           O   tau(  47) = (   0.1624392   0.2154230  -0.0516667  )
        48           O   tau(  48) = (   0.1395489  -0.2819077  -0.1965928  )
        49           O   tau(  49) = (  -0.1277360   0.2111731  -0.1322432  )
        50           O   tau(  50) = (   0.2352924   0.0331384   0.2894554  )
        51           O   tau(  51) = (  -0.1314929   0.0204879   0.1083289  )
        52           O   tau(  52) = (  -0.0283364  -0.1046239  -0.1454565  )
        53           O   tau(  53) = (   0.0002697  -0.1728134  -0.2769136  )
        54           O   tau(  54) = (   0.2942083  -0.2934950   0.2203787  )
        55           O   tau(  55) = (   0.2270707  -0.1672564   0.0070280  )
        56           O   tau(  56) = (   0.2350083  -0.0401834   0.1151344  )
        57           O   tau(  57) = (   0.0748248   0.2061720  -0.2125057  )
        58           O   tau(  58) = (  -0.0651771  -0.2914849   0.0027746  )
        59           O   tau(  59) = (  -0.2634187  -0.0956455  -0.2968255  )
        60           O   tau(  60) = (  -0.2394312   0.0600138  -0.0389931  )
        61           O   tau(  61) = (   0.2529894   0.0928425  -0.1238754  )
        62           O   tau(  62) = (   0.1337277  -0.0181182  -0.0665372  )
        63           O   tau(  63) = (  -0.2515062  -0.0813144   0.0580275  )
        64           O   tau(  64) = (   0.0832429   0.1146858   0.0625263  )
        65           H   tau(  65) = (  -0.2659121  -0.0936702  -0.0575347  )
        66           H   tau(  66) = (  -0.2527145  -0.0204860  -0.0791460  )
        67           H   tau(  67) = (   0.2132474  -0.0796286   0.2629109  )
        68           H   tau(  68) = (   0.1483324  -0.1117823   0.2409466  )
        69           H   tau(  69) = (  -0.3270398   0.2631828  -0.2481370  )
        70           H   tau(  70) = (  -0.2481414   0.2872535  -0.2404836  )
        71           H   tau(  71) = (  -0.0028610   0.1514781  -0.0722905  )
        72           H   tau(  72) = (   0.0464869   0.2063601  -0.0834605  )
        73           H   tau(  73) = (  -0.2845963   0.0530524   0.2140321  )
        74           H   tau(  74) = (  -0.2111507   0.0752471   0.2314977  )
        75           H   tau(  75) = (   0.0028659   0.3400507   0.2447644  )
        76           H   tau(  76) = (   0.0057829   0.3002862   0.3112483  )
        77           H   tau(  77) = (  -0.0328712  -0.2790954  -0.1107411  )
        78           H   tau(  78) = (  -0.0557948  -0.2754166  -0.1838750  )
        79           H   tau(  79) = (   0.1548063   0.0472906   0.1847510  )
        80           H   tau(  80) = (   0.0887712   0.0279909   0.2214774  )
        81           H   tau(  81) = (  -0.1551219  -0.3044952   0.3253159  )
        82           H   tau(  82) = (  -0.0889281  -0.2917223   0.2846630  )
        83           H   tau(  83) = (   0.0928999  -0.0922290   0.1318822  )
        84           H   tau(  84) = (   0.1341131  -0.1121198   0.0751732  )
        85           H   tau(  85) = (   0.1813154  -0.3297830   0.1417971  )
        86           H   tau(  86) = (   0.1101500  -0.3446389   0.1097257  )
        87           H   tau(  87) = (  -0.1985339  -0.1918031   0.2721157  )
        88           H   tau(  88) = (  -0.2349007  -0.1351294   0.2301741  )
        89           H   tau(  89) = (  -0.2443522  -0.3313972   0.0163707  )
        90           H   tau(  90) = (  -0.1943499  -0.2820477  -0.0087230  )
        91           H   tau(  91) = (  -0.1491530  -0.2360444  -0.1970661  )
        92           H   tau(  92) = (  -0.1733664  -0.3024547  -0.1610764  )
        93           H   tau(  93) = (   0.1169918  -0.1141104  -0.1090181  )
        94           H   tau(  94) = (   0.1186820  -0.1857827  -0.0931100  )
        95           H   tau(  95) = (  -0.0683725   0.1389669  -0.0082607  )
        96           H   tau(  96) = (  -0.1037179   0.0830366   0.0226999  )
        97           H   tau(  97) = (  -0.0311071  -0.1386324   0.0970348  )
        98           H   tau(  98) = (  -0.0592777  -0.1063383   0.1679275  )
        99           H   tau(  99) = (   0.0389846  -0.2205017   0.1545035  )
       100           H   tau( 100) = (  -0.0301052  -0.2046287   0.1903926  )
       101           H   tau( 101) = (   0.2896926  -0.2569370  -0.2414214  )
       102           H   tau( 102) = (   0.2460559  -0.1926335  -0.2152734  )
       103           H   tau( 103) = (   0.2889841   0.2790925   0.1346772  )
       104           H   tau( 104) = (   0.2627733   0.2510784   0.0657854  )
       105           H   tau( 105) = (   0.2711282  -0.1160489   0.1662991  )
       106           H   tau( 106) = (   0.2365699  -0.1829018   0.1582815  )
       107           H   tau( 107) = (  -0.1188911  -0.1062506  -0.1788674  )
       108           H   tau( 108) = (  -0.1463814  -0.1320363  -0.2434980  )
       109           H   tau( 109) = (  -0.0243927   0.1590700  -0.2142981  )
       110           H   tau( 110) = (  -0.0737889   0.0964067  -0.2253748  )
       111           H   tau( 111) = (   0.2097477   0.1660586   0.1449469  )
       112           H   tau( 112) = (   0.1751375   0.1047124   0.1119085  )
       113           H   tau( 113) = (   0.0964954   0.0466163  -0.2059774  )
       114           H   tau( 114) = (   0.1049293   0.1225247  -0.1874649  )
       115           H   tau( 115) = (  -0.2372527   0.0908916  -0.2916351  )
       116           H   tau( 116) = (  -0.1703754   0.1231308  -0.3064032  )
       117           H   tau( 117) = (   0.2200331  -0.2672541  -0.0113448  )
       118           H   tau( 118) = (   0.2768616  -0.3105100  -0.0426374  )
       119           H   tau( 119) = (   0.1374375  -0.0659950  -0.2749518  )
       120           H   tau( 120) = (   0.0803435  -0.0228935  -0.2964835  )
       121           H   tau( 121) = (  -0.1122314  -0.0133695  -0.3005754  )
       122           H   tau( 122) = (  -0.1381484  -0.0096199  -0.2287567  )
       123           H   tau( 123) = (   0.0826273   0.0215263   0.0714133  )
       124           H   tau( 124) = (   0.0708300  -0.0209389   0.0071985  )
       125           H   tau( 125) = (   0.2100064  -0.1185355  -0.1530531  )
       126           H   tau( 126) = (   0.2866680  -0.0962105  -0.1467318  )
       127           H   tau( 127) = (   0.2676885   0.0368412  -0.0283284  )
       128           H   tau( 128) = (   0.2847888  -0.0380750  -0.0294749  )
       129           H   tau( 129) = (   0.0156942   0.2614133   0.1873853  )
       130           H   tau( 130) = (  -0.0454495   0.2351098   0.1517459  )
       131           H   tau( 131) = (  -0.2131403   0.0245532  -0.1635527  )
       132           H   tau( 132) = (  -0.2801542   0.0330823  -0.2039929  )
       133           H   tau( 133) = (   0.0146588  -0.2251970  -0.0088520  )
       134           H   tau( 134) = (   0.0392345  -0.1513681   0.0040697  )
       135           H   tau( 135) = (   0.1916970   0.2287666  -0.2935473  )
       136           H   tau( 136) = (   0.2332861   0.1732211  -0.2566504  )
       137           H   tau( 137) = (   0.1364442   0.2944847   0.2349555  )
       138           H   tau( 138) = (   0.1701541   0.3099750   0.3054590  )
       139           H   tau( 139) = (  -0.3054518   0.2177393  -0.0634740  )
       140           H   tau( 140) = (  -0.2547289   0.1964623  -0.1171383  )
       141           H   tau( 141) = (  -0.0564159   0.0285206  -0.1094370  )
       142           H   tau( 142) = (  -0.0009061   0.0333809  -0.0618679  )
       143           H   tau( 143) = (  -0.1783997  -0.1914475   0.0031954  )
       144           H   tau( 144) = (  -0.1990843  -0.1846279  -0.0722667  )
       145           H   tau( 145) = (  -0.1579212   0.2836186   0.1142652  )
       146           H   tau( 146) = (  -0.1688856   0.3117543   0.1851754  )
       147           H   tau( 147) = (  -0.1057840   0.1422806   0.1884901  )
       148           H   tau( 148) = (  -0.1012239   0.1945119   0.2427116  )
       149           H   tau( 149) = (  -0.1400176  -0.0958345  -0.0249365  )
       150           H   tau( 150) = (  -0.1386541  -0.0197727  -0.0088946  )
       151           H   tau( 151) = (  -0.1138194  -0.0999146   0.2414870  )
       152           H   tau( 152) = (  -0.0450526  -0.1103816   0.2744823  )
       153           H   tau( 153) = (   0.0295082   0.1116793   0.3118813  )
       154           H   tau( 154) = (  -0.0019961   0.1141843   0.2462763  )
       155           H   tau( 155) = (  -0.2036431   0.1308439   0.0969675  )
       156           H   tau( 156) = (  -0.1852408   0.1729805   0.0380301  )
       157           H   tau( 157) = (   0.1842218   0.2554320  -0.0712040  )
       158           H   tau( 158) = (   0.1765540   0.1735273  -0.0725879  )
       159           H   tau( 159) = (   0.1878325  -0.2763972  -0.1899824  )
       160           H   tau( 160) = (   0.1205335  -0.2918037  -0.1530239  )
       161           H   tau( 161) = (  -0.1002365   0.2134603  -0.1723542  )
       162           H   tau( 162) = (  -0.1085796   0.2356686  -0.0944500  )
       163           H   tau( 163) = (   0.2472253  -0.0010020   0.3236385  )
       164           H   tau( 164) = (   0.1941070   0.0147462   0.2692862  )
       165           H   tau( 165) = (  -0.1060763  -0.0227559   0.1064019  )
       166           H   tau( 166) = (  -0.1798368   0.0140732   0.1157124  )
       167           H   tau( 167) = (   0.0021340  -0.0796326  -0.1751512  )
       168           H   tau( 168) = (  -0.0049026  -0.1457312  -0.1325828  )
       169           H   tau( 169) = (  -0.0189459  -0.1912899  -0.2365526  )
       170           H   tau( 170) = (   0.0481913  -0.1694724  -0.2677875  )
       171           H   tau( 171) = (   0.3217985  -0.3102374   0.2577492  )
       172           H   tau( 172) = (   0.3093716  -0.2469372   0.2133920  )
       173           H   tau( 173) = (   0.2696484  -0.1815129  -0.0116393  )
       174           H   tau( 174) = (   0.1935156  -0.1794618  -0.0263319  )
       175           H   tau( 175) = (   0.2576804   0.0029341   0.1204971  )
       176           H   tau( 176) = (   0.1919350  -0.0387599   0.1392897  )
       177           H   tau( 177) = (   0.0849254   0.1955864  -0.2594340  )
       178           H   tau( 178) = (   0.1180837   0.2297580  -0.2030161  )
       179           H   tau( 179) = (  -0.0455631  -0.3361129   0.0088603  )
       180           H   tau( 180) = (  -0.1062166  -0.2942720   0.0294710  )
       181           H   tau( 181) = (  -0.2434746  -0.0504214  -0.3026004  )
       182           H   tau( 182) = (  -0.2706958  -0.0961460  -0.2480974  )
       183           H   tau( 183) = (  -0.1907216   0.0650280  -0.0333297  )
       184           H   tau( 184) = (  -0.2539242   0.0630488   0.0077008  )
       185           H   tau( 185) = (   0.2486102   0.1384592  -0.1405760  )
       186           H   tau( 186) = (   0.2097402   0.0731640  -0.1387712  )
       187           H   tau( 187) = (   0.1767862  -0.0172991  -0.0426206  )
       188           H   tau( 188) = (   0.1313865   0.0223603  -0.0945196  )
       189           H   tau( 189) = (  -0.2988936  -0.0705056   0.0663650  )
       190           H   tau( 190) = (  -0.2452155  -0.1145800   0.0941298  )
       191           H   tau( 191) = (   0.0825731   0.1543369   0.0916433  )
       192           H   tau( 192) = (   0.0742975   0.1354246   0.0186898  )

     number of k points=     1  Marzari-Vanderbilt smearing, width (Ry)=  0.0250
                       cart. coord. in units 2pi/alat
        k(    1) = (   0.0000000   0.0000000   0.0000000), wk =   2.0000000

     Dense  grid:   177509 G-vectors     FFT dimensions: (  72,  72,  72)

     Estimated max dynamical RAM per process >      67.80Mb

     Estimated total allocated dynamical RAM >    1898.40Mb

     Initial potential from superposition of free atoms
     Check: negative starting charge=   -0.834400

     starting charge  511.99856, renormalised to  512.00000

     negative rho (up, down):  8.344E-01 0.000E+00
     Starting wfc are  384 randomized atomic wfcs

     total cpu time spent up to now is        0.8 secs

     per-process dynamical memory:    45.9 Mb

     Self-consistent Calculation

     iteration #  1     ecut=    30.00 Ry     beta=0.70
     Davidson diagonalization with overlap
     ethr =  1.00E-02,  avg # of iterations =  8.0

     negative rho (up, down):  2.011E-01 0.000E+00

     total cpu time spent up to now is        9.0 secs

     total energy              =   -1799.12906243 Ry
     Harris-Foulkes estimate   =   -1826.00172488 Ry
     estimated scf accuracy    <      41.20534609 Ry

     iteration #  2     ecut=    30.00 Ry     beta=0.70
     Davidson diagonalization with overlap
     ethr =  8.05E-03,  avg # of iterations =  4.0

     negative rho (up, down):  3.942E-03 0.000E+00

     total cpu time spent up to now is       12.1 secs

     total energy              =   -1779.36071036 Ry
     Harris-Foulkes estimate   =   -1812.58039923 Ry
     estimated scf accuracy    <      76.08400995 Ry

     iteration #  3     ecut=    30.00 Ry     beta=0.70
     Davidson diagonalization with overlap
     ethr =  8.05E-03,  avg # of iterations =  5.0

     negative rho (up, down):  2.594E-05 0.000E+00

     total cpu time spent up to now is       15.9 secs

     total energy              =   -1801.62237195 Ry
     Harris-Foulkes estimate   =   -1813.67422143 Ry
     estimated scf accuracy    <      36.97020891 Ry

     iteration #  4     ecut=    30.00 Ry     beta=0.70
     Davidson diagonalization with overlap
     ethr =  7.22E-03,  avg # of iterations =  3.0

     total cpu time spent up to now is       17.7 secs

     total energy              =   -1806.55608301 Ry
     Harris-Foulkes estimate   =   -1808.61634864 Ry
     estimated scf accuracy    <       6.72714674 Ry

     iteration #  5     ecut=    30.00 Ry     beta=0.70
     Davidson diagonalization with overlap
     ethr =  1.31E-03,  avg # of iterations =  4.0

     total cpu time spent up to now is       19.9 secs

     total energy              =   -1806.29772244 Ry
     Harris-Foulkes estimate   =   -1806.93956901 Ry
     estimated scf accuracy    <       2.66845981 Ry

     iteration #  6     ecut=    30.00 Ry     beta=0.70
     Davidson diagonalization with overlap
     ethr =  5.21E-04,  avg # of iterations =  4.0

     total cpu time spent up to now is       22.0 secs

     total energy              =   -1806.02333419 Ry
     Harris-Foulkes estimate   =   -1806.38424886 Ry
     estimated scf accuracy    <       1.20095938 Ry

     iteration #  7     ecut=    30.00 Ry     beta=0.70
     Davidson diagonalization with overlap
     ethr =  2.35E-04,  avg # of iterations =  6.0

     total cpu time spent up to now is       24.8 secs

     total energy              =   -1806.11048486 Ry
     Harris-Foulkes estimate   =   -1806.15693608 Ry
     estimated scf accuracy    <       0.58441362 Ry

     iteration #  8     ecut=    30.00 Ry     beta=0.70
     Davidson diagonalization with overlap
     ethr =  1.14E-04,  avg # of iterations =  1.0

     total cpu time spent up to now is       25.9 secs

     total energy              =   -1806.05122956 Ry
     Harris-Foulkes estimate   =   -1806.11982416 Ry
     estimated scf accuracy    <       0.26540884 Ry

     iteration #  9     ecut=    30.00 Ry     beta=0.70
     Davidson diagonalization with overlap
     ethr =  5.18E-05,  avg # of iterations =  7.0

     total cpu time spent up to now is       29.3 secs

     total energy              =   -1806.08346112 Ry
     Harris-Foulkes estimate   =   -1806.17419208 Ry
     estimated scf accuracy    <       1.26415116 Ry

     iteration # 10     ecut=    30.00 Ry     beta=0.70
     Davidson diagonalization with overlap
     ethr =  5.18E-05,  avg # of iterations =  2.0

     total cpu time spent up to now is       30.7 secs

     total energy              =   -1806.07234241 Ry
     Harris-Foulkes estimate   =   -1806.10225512 Ry
     estimated scf accuracy    <       0.44185497 Ry

     iteration # 11     ecut=    30.00 Ry     beta=0.70
     Davidson diagonalization with overlap
     ethr =  5.18E-05,  avg # of iterations =  1.0

     total cpu time spent up to now is       31.8 secs

     total energy              =   -1806.06284770 Ry
     Harris-Foulkes estimate   =   -1806.08110868 Ry
     estimated scf accuracy    <       0.15858518 Ry

     iteration # 12     ecut=    30.00 Ry     beta=0.70
     Davidson diagonalization with overlap
     ethr =  3.10E-05,  avg # of iterations =  4.0

     total cpu time spent up to now is       33.8 secs

     total energy              =   -1806.06892597 Ry
     Harris-Foulkes estimate   =   -1806.07090096 Ry
     estimated scf accuracy    <       0.00546658 Ry

     iteration # 13     ecut=    30.00 Ry     beta=0.70
     Davidson diagonalization with overlap
     ethr =  1.07E-06,  avg # of iterations =  8.0

     total cpu time spent up to now is       38.1 secs

     total energy              =   -1806.06915923 Ry
     Harris-Foulkes estimate   =   -1806.07015872 Ry
     estimated scf accuracy    <       0.00440886 Ry

     iteration # 14     ecut=    30.00 Ry     beta=0.70
     Davidson diagonalization with overlap
     ethr =  8.61E-07,  avg # of iterations =  2.0

     total cpu time spent up to now is       39.5 secs

     total energy              =   -1806.06958656 Ry
     Harris-Foulkes estimate   =   -1806.06965900 Ry
     estimated scf accuracy    <       0.00036152 Ry

     iteration # 15     ecut=    30.00 Ry     beta=0.70
     Davidson diagonalization with overlap
     ethr =  7.06E-08,  avg # of iterations =  2.0

     total cpu time spent up to now is       41.1 secs

     total energy              =   -1806.06956896 Ry
     Harris-Foulkes estimate   =   -1806.06963623 Ry
     estimated scf accuracy    <       0.00056233 Ry

     iteration # 16     ecut=    30.00 Ry     beta=0.70
     Davidson diagonalization with overlap
     ethr =  7.06E-08,  avg # of iterations =  2.0

     total cpu time spent up to now is       42.5 secs

     total energy              =   -1806.06959856 Ry
     Harris-Foulkes estimate   =   -1806.06960526 Ry
     estimated scf accuracy    <       0.00001729 Ry

     iteration # 17     ecut=    30.00 Ry     beta=0.70
     Davidson diagonalization with overlap
     ethr =  3.38E-09,  avg # of iterations =  2.0

     total cpu time spent up to now is       44.1 secs

     total energy              =   -1806.06960065 Ry
     Harris-Foulkes estimate   =   -1806.06960288 Ry
     estimated scf accuracy    <       0.00001648 Ry

     iteration # 18     ecut=    30.00 Ry     beta=0.70
     Davidson diagonalization with overlap
     ethr =  3.22E-09,  avg # of iterations =  2.0

     total cpu time spent up to now is       45.5 secs

     total energy              =   -1806.06960163 Ry
     Harris-Foulkes estimate   =   -1806.06960226 Ry
     estimated scf accuracy    <       0.00000476 Ry

     iteration # 19     ecut=    30.00 Ry     beta=0.70
     Davidson diagonalization with overlap
     ethr =  9.29E-10,  avg # of iterations =  2.0

     total cpu time spent up to now is       47.0 secs

     total energy              =   -1806.06960199 Ry
     Harris-Foulkes estimate   =   -1806.06960200 Ry
     estimated scf accuracy    <       0.00000038 Ry

     iteration # 20     ecut=    30.00 Ry     beta=0.70
     Davidson diagonalization with overlap
     ethr =  7.49E-11,  avg # of iterations =  2.0

     total cpu time spent up to now is       48.4 secs

     End of self-consistent calculation

          k = 0.0000 0.0000 0.0000 ( 22119 PWs)   bands (ev):

   -41.1348 -39.7588 -39.4730 -38.3279 -37.8398 -37.1816 -36.9042 -36.5825
   -36.2211 -35.6415 -35.2980 -35.2489 -34.8847 -34.4528 -34.2227 -33.4092
   -33.2044 -33.0342 -32.4785 -32.4283 -32.0394 -31.8598 -31.6928 -31.3238
   -31.1906 -31.0641 -30.8498 -30.7720 -30.4730 -30.1039 -30.0624 -30.0095
   -29.7450 -29.4711 -29.3766 -29.1148 -29.0105 -28.9171 -28.7955 -28.5977
   -28.5148 -28.3249 -27.9812 -27.7733 -27.6236 -27.5467 -27.4012 -27.1298
   -26.9679 -26.8101 -26.6653 -26.6187 -26.4234 -26.3922 -26.2100 -26.1908
   -25.9519 -25.9370 -25.8195 -25.7219 -25.5438 -25.4109 -24.6127 -24.2966
   -21.9087 -21.4156 -20.5950 -20.2839 -20.1118 -19.9954 -19.7131 -19.5037
   -19.3096 -18.9504 -18.6901 -18.4580 -18.3020 -18.1231 -17.8036 -17.6462
   -17.4605 -17.3751 -17.3292 -17.0693 -16.9158 -16.8138 -16.7498 -16.6113
   -16.5551 -16.4251 -16.3308 -16.1518 -15.9311 -15.7373 -15.7146 -15.5069
   -15.2442 -15.0201 -14.9340 -14.8659 -14.8365 -14.7002 -14.4582 -14.3306
   -14.2365 -13.9809 -13.9397 -13.8966 -13.6542 -13.5481 -13.5355 -13.3935
   -13.3078 -13.1963 -13.0819 -13.0747 -12.9497 -12.7184 -12.5453 -12.4068
   -12.2848 -12.0971 -12.0331 -11.8169 -11.6715 -11.4930 -11.0947 -11.0421
   -10.9755 -10.5291 -10.2976  -9.9928  -9.7636  -9.4155  -9.3033  -9.0159
    -8.8932  -8.8092  -8.4598  -8.3901  -7.8654  -7.8064  -7.6122  -7.4807
    -7.3392  -7.1766  -7.0584  -6.8747  -6.7139  -6.5221  -6.4555  -6.3598
    -6.2642  -6.2432  -6.0401  -5.9394  -5.8729  -5.7454  -5.6169  -5.4283
    -5.3538  -5.2016  -5.1657  -5.0968  -4.9226  -4.8524  -4.7774  -4.6775
    -4.5719  -4.5541  -4.4383  -4.3487  -4.1071  -4.0290  -3.9216  -3.8490
    -3.7791  -3.6469  -3.5042  -3.4532  -3.3859  -3.3353  -3.2498  -3.1837
    -3.1538  -2.9692  -2.8595  -2.7773  -2.6936  -2.5197  -2.4913  -2.4113
    -2.3581  -2.2333  -2.0871  -2.0238  -1.9771  -1.7846  -1.7056  -1.6506
    -1.5198  -1.3948  -1.2968  -1.1931  -1.1588  -1.0410  -0.9714  -0.8224
    -0.7812  -0.6008  -0.5538  -0.5092  -0.3897  -0.2549  -0.1893  -0.0341
     0.1097   0.2533   0.3466   0.3698   0.4548   0.5334   0.6084   0.7426
     0.7885   0.8814   0.9698   1.0903   1.1853   1.2966   1.4816   1.5344
     1.6216   1.7811   1.8799   2.1336   2.2277   2.3125   2.5375   2.5821
     2.7058   2.8703   3.0286   3.2555   3.2651   3.3490   3.6105   3.7035
     3.9568   4.0982   4.3028   4.3958   4.6730   4.8853   5.1867   5.2413
     5.4810   6.0192   6.2233   6.6047   6.6550   6.9910   7.2443   7.4198
     7.5963   7.6626   7.6934   7.9664   8.2270   8.3749   8.6301   8.7487
     8.9090   9.0565   9.2299   9.2708   9.5799   9.7362   9.7990  10.0684
    10.0889  10.2246  10.3727  10.4043  10.5113  10.6936  10.7676  10.8072
    10.9075  11.0827  11.2063  11.2473  11.2895  11.3662  11.5962  11.6316
    11.6754  11.8198  11.8646  11.8809  12.0072  12.1362  12.2299  12.3214
    12.3456  12.3834  12.4310

     the Fermi energy is     5.4072 ev

!    total energy              =   -1806.06960201 Ry
     Harris-Foulkes estimate   =   -1806.06960201 Ry
     estimated scf accuracy    <          6.0E-09 Ry

     The total energy is the sum of the following terms:

     one-electron contribution =  -15196.22891833 Ry
     hartree contribution      =    7771.14533202 Ry
     xc contribution           =    -636.78280612 Ry
     ewald contribution        =    6255.79788110 Ry
     smearing contrib. (-TS)   =      -0.00109068 Ry

     convergence has been achieved in  20 iterations

     Writing output data file pwscf.save
 
     init_run     :      0.56s CPU      0.65s WALL (       1 calls)
     electrons    :     46.34s CPU     47.67s WALL (       1 calls)

     Called by init_run:
     wfcinit      :      0.46s CPU      0.54s WALL (       1 calls)
     potinit      :      0.02s CPU      0.02s WALL (       1 calls)

     Called by electrons:
     c_bands      :     44.27s CPU     45.36s WALL (      20 calls)
     sum_band     :      1.72s CPU      1.75s WALL (      20 calls)
     v_of_rho     :      0.19s CPU      0.21s WALL (      21 calls)
     mix_rho      :      0.11s CPU      0.23s WALL (      20 calls)

     Called by c_bands:
     init_us_2    :      0.05s CPU      0.06s WALL (      41 calls)
     cegterg      :     44.15s CPU     45.18s WALL (      20 calls)

     Called by sum_band:

     Called by *egterg:
     h_psi        :      7.79s CPU      7.92s WALL (      92 calls)
     g_psi        :      0.07s CPU      0.07s WALL (      71 calls)
     cdiaghg      :     27.93s CPU     27.97s WALL (      91 calls)

     Called by h_psi:
     h_psi:pot    :      7.59s CPU      7.73s WALL (      92 calls)
     h_psi:calbec :      0.29s CPU      0.29s WALL (      92 calls)
     vloc_psi     :      7.06s CPU      7.18s WALL (      92 calls)
     add_vuspsi   :      0.25s CPU      0.25s WALL (      92 calls)

     General routines
     calbec       :      0.28s CPU      0.29s WALL (      92 calls)
     fft          :      0.13s CPU      0.13s WALL (     230 calls)
     fftw         :      7.84s CPU      7.98s WALL (   34878 calls)
     davcio       :      0.02s CPU      0.15s WALL (     308 calls)
 
     Parallel routines
     fft_scatter  :      2.54s CPU      2.60s WALL (   35108 calls)
 
     PWSCF        :    47.04s CPU        48.66s WALL

 
   This run was terminated on:  10:28: 1   2Feb2018            

=------------------------------------------------------------------------------=
   JOB DONE.
=------------------------------------------------------------------------------=
