
     Program PWSCF v.6.0 (svn rev. 13079) starts on  2Feb2018 at 12: 6:52 

     This program is part of the open-source Quantum ESPRESSO suite
     for quantum simulation of materials; please cite
         "P. Giannozzi et al., J. Phys.:Condens. Matter 21 395502 (2009);
          URL http://www.quantum-espresso.org", 
     in publications or presentations arising from this work. More details at
     http://www.quantum-espresso.org/quote

     Parallel version (MPI), running on    28 processors
     R & G space division:  proc/nbgrp/npool/nimage =      28
     Reading input from input/scf-bigwater-1/422.in
Warning: card &IONS ignored
Warning: card     POT_EXTRAPOLATION='SECOND-ORDER' ignored
Warning: card     WFC_EXTRAPOLATION='SECOND-ORDER' ignored
Warning: card     ION_TEMPERATURE = 'ANDERSEN' ignored
Warning: card     TEMPW = 1000 ignored
Warning: card / ignored

     Current dimensions of program PWSCF are:
     Max number of different atomic species (ntypx) = 10
     Max number of k-points (npk) =  40000
     Max angular momentum in pseudopotentials (lmaxx) =  3

     Subspace diagonalization in iterative solution of the eigenvalue problem:
     a serial algorithm will be used

 
     Parallelization info
     --------------------
     sticks:   dense  smooth     PW     G-vecs:    dense   smooth      PW
     Min         136     136     33                 6338     6338     787
     Max         137     137     34                 6341     6341     792
     Sum        3809    3809    949               177509   177509   22119
 


     bravais-lattice index     =            1
     lattice parameter (alat)  =      20.0000  a.u.
     unit-cell volume          =    8000.0000 (a.u.)^3
     number of atoms/cell      =          192
     number of atomic types    =            2
     number of electrons       =       512.00
     number of Kohn-Sham states=          307
     kinetic-energy cutoff     =      30.0000  Ry
     charge density cutoff     =     120.0000  Ry
     convergence threshold     =      1.0E-08
     mixing beta               =       0.7000
     number of iterations used =            8  plain     mixing
     Exchange-correlation      = BLYP ( 1  3  1  3 0 0)

     celldm(1)=  20.000000  celldm(2)=   0.000000  celldm(3)=   0.000000
     celldm(4)=   0.000000  celldm(5)=   0.000000  celldm(6)=   0.000000

     crystal axes: (cart. coord. in units of alat)
               a(1) = (   1.000000   0.000000   0.000000 )  
               a(2) = (   0.000000   1.000000   0.000000 )  
               a(3) = (   0.000000   0.000000   1.000000 )  

     reciprocal axes: (cart. coord. in units 2 pi/alat)
               b(1) = (  1.000000  0.000000  0.000000 )  
               b(2) = (  0.000000  1.000000  0.000000 )  
               b(3) = (  0.000000  0.000000  1.000000 )  


     PseudoPot. # 1 for  H read from file:
     ./H.blyp-hgh.UPF
     MD5 check sum: c576e69559cde411e611be972c763230
     Pseudo is Norm-conserving, Zval =  1.0
     Generated in analytical, separable form
     Using radial grid of  929 points,  0 beta functions with: 

     PseudoPot. # 2 for  O read from file:
     ./O.blyp-hgh.UPF
     MD5 check sum: d0b7156309aa9befef28faac7bc56342
     Pseudo is Norm-conserving, Zval =  6.0
     Generated in analytical, separable form
     Using radial grid of 1095 points,  1 beta functions with: 
                l(1) =   0

     atomic species   valence    mass     pseudopotential
        H              1.00     1.01000      H( 1.00)
        O              6.00    16.00000      O( 1.00)

     No symmetry found



   Cartesian axes

     site n.     atom                  positions (alat units)
         1           O   tau(   1) = (  -0.2596693  -0.0654043  -0.0960730  )
         2           O   tau(   2) = (   0.1769232  -0.1139310   0.2814231  )
         3           O   tau(   3) = (  -0.2847931   0.2907854  -0.2684356  )
         4           O   tau(   4) = (   0.0088093   0.1966002  -0.0563199  )
         5           O   tau(   5) = (  -0.2372754   0.0463000   0.1952288  )
         6           O   tau(   6) = (  -0.0161895   0.3062644   0.2741211  )
         7           O   tau(   7) = (  -0.0215821  -0.2694783  -0.1494368  )
         8           O   tau(   8) = (   0.1215888   0.0176966   0.2026424  )
         9           O   tau(   9) = (  -0.1326849  -0.2762609   0.2950200  )
        10           O   tau(  10) = (   0.1298846  -0.1252390   0.1259583  )
        11           O   tau(  11) = (   0.1324758  -0.3227213   0.1451772  )
        12           O   tau(  12) = (  -0.1993834  -0.1755903   0.2288823  )
        13           O   tau(  13) = (  -0.2262906  -0.2942007   0.0259855  )
        14           O   tau(  14) = (  -0.1736123  -0.2712417  -0.1996409  )
        15           O   tau(  15) = (   0.1436015  -0.1588241  -0.1195075  )
        16           O   tau(  16) = (  -0.1112826   0.1234816  -0.0105258  )
        17           O   tau(  17) = (  -0.0710204  -0.1235925   0.1231678  )
        18           O   tau(  18) = (   0.0123968  -0.2304438   0.1931322  )
        19           O   tau(  19) = (   0.2417728  -0.2298360  -0.2450136  )
        20           O   tau(  20) = (   0.2471531   0.2574921   0.1141309  )
        21           O   tau(  21) = (   0.2742842  -0.1669444   0.1750733  )
        22           O   tau(  22) = (  -0.1559666  -0.1251538  -0.1962566  )
        23           O   tau(  23) = (  -0.0609227   0.1417946  -0.2416136  )
        24           O   tau(  24) = (   0.2084734   0.1140108   0.1425529  )
        25           O   tau(  25) = (   0.1263166   0.0779055  -0.1825130  )
        26           O   tau(  26) = (  -0.2091346   0.1274352  -0.3153414  )
        27           O   tau(  27) = (   0.2367750  -0.2877461  -0.0467407  )
        28           O   tau(  28) = (   0.0931305  -0.0320136  -0.2622947  )
        29           O   tau(  29) = (  -0.0931165  -0.0029333  -0.2581450  )
        30           O   tau(  30) = (   0.0644833  -0.0251879   0.0570683  )
        31           O   tau(  31) = (   0.2526753  -0.0883280  -0.1725166  )
        32           O   tau(  32) = (   0.2502883  -0.0090486  -0.0056277  )
        33           O   tau(  33) = (   0.0083947   0.2343069   0.1625754  )
        34           O   tau(  34) = (  -0.2333558   0.0292314  -0.2091662  )
        35           O   tau(  35) = (   0.0540477  -0.1931501  -0.0150488  )
        36           O   tau(  36) = (   0.2196194   0.2216271  -0.2605421  )
        37           O   tau(  37) = (   0.1316887   0.2856791   0.2805340  )
        38           O   tau(  38) = (  -0.2781569   0.2445913  -0.0919475  )
        39           O   tau(  39) = (  -0.0111362   0.0461114  -0.1116675  )
        40           O   tau(  40) = (  -0.1685786  -0.2010569  -0.0438294  )
        41           O   tau(  41) = (  -0.1477320   0.2771516   0.1585340  )
        42           O   tau(  42) = (  -0.1077219   0.1462428   0.2410747  )
        43           O   tau(  43) = (  -0.1153668  -0.0627030  -0.0374174  )
        44           O   tau(  44) = (  -0.0712635  -0.0722939   0.2542052  )
        45           O   tau(  45) = (   0.0375081   0.0909337   0.2733009  )
        46           O   tau(  46) = (  -0.2272843   0.1623903   0.0651223  )
        47           O   tau(  47) = (   0.1621009   0.2144423  -0.0585605  )
        48           O   tau(  48) = (   0.1397397  -0.2802255  -0.2001446  )
        49           O   tau(  49) = (  -0.1341137   0.2111612  -0.1397817  )
        50           O   tau(  50) = (   0.2297465   0.0321741   0.2966834  )
        51           O   tau(  51) = (  -0.1292454   0.0244812   0.1103709  )
        52           O   tau(  52) = (  -0.0211759  -0.1017718  -0.1513339  )
        53           O   tau(  53) = (  -0.0000400  -0.1721331  -0.2798080  )
        54           O   tau(  54) = (   0.2992289  -0.2939698   0.2219809  )
        55           O   tau(  55) = (   0.2174339  -0.1707663   0.0089915  )
        56           O   tau(  56) = (   0.2414029  -0.0421335   0.1186969  )
        57           O   tau(  57) = (   0.0815083   0.1973813  -0.2123163  )
        58           O   tau(  58) = (  -0.0713184  -0.2937693  -0.0044555  )
        59           O   tau(  59) = (  -0.2592332  -0.0942836  -0.2998060  )
        60           O   tau(  60) = (  -0.2364759   0.0594391  -0.0419137  )
        61           O   tau(  61) = (   0.2492782   0.1051327  -0.1326771  )
        62           O   tau(  62) = (   0.1271805  -0.0185467  -0.0625416  )
        63           O   tau(  63) = (  -0.2480948  -0.0887034   0.0545045  )
        64           O   tau(  64) = (   0.0857429   0.1182139   0.0621788  )
        65           H   tau(  65) = (  -0.2406368  -0.0919029  -0.0586475  )
        66           H   tau(  66) = (  -0.2493271  -0.0205746  -0.0770435  )
        67           H   tau(  67) = (   0.2092509  -0.0840433   0.2603783  )
        68           H   tau(  68) = (   0.1366229  -0.1105250   0.2547297  )
        69           H   tau(  69) = (  -0.3188739   0.2555093  -0.2605424  )
        70           H   tau(  70) = (  -0.2644704   0.3065184  -0.2265859  )
        71           H   tau(  71) = (   0.0057418   0.1504585  -0.0739819  )
        72           H   tau(  72) = (   0.0540772   0.2116405  -0.0687771  )
        73           H   tau(  73) = (  -0.2853624   0.0378218   0.1983372  )
        74           H   tau(  74) = (  -0.2348847   0.0820280   0.2312702  )
        75           H   tau(  75) = (   0.0035434   0.3424833   0.2436621  )
        76           H   tau(  76) = (   0.0176761   0.2991304   0.3082754  )
        77           H   tau(  77) = (  -0.0365157  -0.2780752  -0.1037401  )
        78           H   tau(  78) = (  -0.0524597  -0.2964363  -0.1761376  )
        79           H   tau(  79) = (   0.1420951   0.0620711   0.1923817  )
        80           H   tau(  80) = (   0.0831344   0.0316491   0.2306326  )
        81           H   tau(  81) = (  -0.1582810  -0.3086987   0.3204919  )
        82           H   tau(  82) = (  -0.0876460  -0.2962839   0.2867022  )
        83           H   tau(  83) = (   0.0999933  -0.0912517   0.1437485  )
        84           H   tau(  84) = (   0.1263875  -0.1210235   0.0776031  )
        85           H   tau(  85) = (   0.1810524  -0.3328857   0.1375624  )
        86           H   tau(  86) = (   0.1146190  -0.3405538   0.1036899  )
        87           H   tau(  87) = (  -0.2031048  -0.2054608   0.2675915  )
        88           H   tau(  88) = (  -0.2376826  -0.1468132   0.2381273  )
        89           H   tau(  89) = (  -0.2373997  -0.3408530   0.0348994  )
        90           H   tau(  90) = (  -0.2052211  -0.2853823  -0.0171531  )
        91           H   tau(  91) = (  -0.1576192  -0.2242847  -0.1973520  )
        92           H   tau(  92) = (  -0.1551156  -0.2978771  -0.1634160  )
        93           H   tau(  93) = (   0.1260177  -0.1129204  -0.1241011  )
        94           H   tau(  94) = (   0.1096570  -0.1850412  -0.0950393  )
        95           H   tau(  95) = (  -0.0816860   0.1517245  -0.0363820  )
        96           H   tau(  96) = (  -0.0942893   0.0994049   0.0287600  )
        97           H   tau(  97) = (  -0.0394982  -0.1534050   0.1039953  )
        98           H   tau(  98) = (  -0.0429323  -0.0954940   0.1536879  )
        99           H   tau(  99) = (   0.0542037  -0.2149949   0.1723986  )
       100           H   tau( 100) = (  -0.0231054  -0.1976168   0.1866616  )
       101           H   tau( 101) = (   0.2796430  -0.2557698  -0.2644350  )
       102           H   tau( 102) = (   0.2652827  -0.1935276  -0.2215471  )
       103           H   tau( 103) = (   0.2888850   0.2509014   0.1394569  )
       104           H   tau( 104) = (   0.2527424   0.2497245   0.0668608  )
       105           H   tau( 105) = (   0.2724337  -0.1263963   0.1467016  )
       106           H   tau( 106) = (   0.2295415  -0.1852067   0.1679631  )
       107           H   tau( 107) = (  -0.1170492  -0.1175790  -0.1668062  )
       108           H   tau( 108) = (  -0.1398600  -0.1283758  -0.2419512  )
       109           H   tau( 109) = (  -0.0179437   0.1506868  -0.2191195  )
       110           H   tau( 110) = (  -0.0685424   0.0946043  -0.2272485  )
       111           H   tau( 111) = (   0.2135629   0.1606342   0.1559391  )
       112           H   tau( 112) = (   0.1828756   0.1167102   0.1003867  )
       113           H   tau( 113) = (   0.1132044   0.0496598  -0.2208947  )
       114           H   tau( 114) = (   0.1165717   0.1258948  -0.1909581  )
       115           H   tau( 115) = (  -0.2228048   0.1007294  -0.2769466  )
       116           H   tau( 116) = (  -0.1606754   0.1221728  -0.3252631  )
       117           H   tau( 117) = (   0.2358903  -0.2802944   0.0013295  )
       118           H   tau( 118) = (   0.2818487  -0.3020534  -0.0599418  )
       119           H   tau( 119) = (   0.1305376  -0.0634636  -0.2716785  )
       120           H   tau( 120) = (   0.0706803  -0.0241107  -0.3046068  )
       121           H   tau( 121) = (  -0.1031221  -0.0218439  -0.3029253  )
       122           H   tau( 122) = (  -0.1352748   0.0000438  -0.2343689  )
       123           H   tau( 123) = (   0.0797250   0.0215852   0.0604156  )
       124           H   tau( 124) = (   0.0660578  -0.0307035   0.0080061  )
       125           H   tau( 125) = (   0.2121205  -0.1040023  -0.1498630  )
       126           H   tau( 126) = (   0.2843642  -0.0856054  -0.1344677  )
       127           H   tau( 127) = (   0.2522921   0.0318696  -0.0333858  )
       128           H   tau( 128) = (   0.2844973  -0.0379283  -0.0265646  )
       129           H   tau( 129) = (   0.0060843   0.2587371   0.2061625  )
       130           H   tau( 130) = (  -0.0396411   0.2293084   0.1519971  )
       131           H   tau( 131) = (  -0.1990102   0.0354034  -0.1744080  )
       132           H   tau( 132) = (  -0.2723257   0.0315097  -0.1796601  )
       133           H   tau( 133) = (   0.0147226  -0.2194875  -0.0287795  )
       134           H   tau( 134) = (   0.0302525  -0.1518353  -0.0030491  )
       135           H   tau( 135) = (   0.1899863   0.2374590  -0.2977202  )
       136           H   tau( 136) = (   0.2283006   0.1745549  -0.2711742  )
       137           H   tau( 137) = (   0.1372133   0.2732475   0.2325588  )
       138           H   tau( 138) = (   0.1617564   0.3238835   0.2872104  )
       139           H   tau( 139) = (  -0.3086533   0.2145307  -0.0678996  )
       140           H   tau( 140) = (  -0.2427557   0.2146733  -0.1089543  )
       141           H   tau( 141) = (  -0.0551817   0.0632551  -0.0999761  )
       142           H   tau( 142) = (   0.0109303   0.0269858  -0.0730125  )
       143           H   tau( 143) = (  -0.1541324  -0.1783190  -0.0029648  )
       144           H   tau( 144) = (  -0.2165433  -0.1927244  -0.0523101  )
       145           H   tau( 145) = (  -0.1654375   0.2814475   0.1129696  )
       146           H   tau( 146) = (  -0.1729669   0.3098612   0.1851326  )
       147           H   tau( 147) = (  -0.1313181   0.1473064   0.1979693  )
       148           H   tau( 148) = (  -0.1070497   0.1927270   0.2561820  )
       149           H   tau( 149) = (  -0.1394131  -0.1027090  -0.0238350  )
       150           H   tau( 150) = (  -0.1242215  -0.0336937   0.0012310  )
       151           H   tau( 151) = (  -0.1056155  -0.1072010   0.2455668  )
       152           H   tau( 152) = (  -0.0381881  -0.0931510   0.2841568  )
       153           H   tau( 153) = (   0.0102951   0.1108200   0.3095937  )
       154           H   tau( 154) = (   0.0168061   0.1037840   0.2310366  )
       155           H   tau( 155) = (  -0.2127237   0.1336385   0.1020952  )
       156           H   tau( 156) = (  -0.1991378   0.1502179   0.0258767  )
       157           H   tau( 157) = (   0.1865112   0.2505175  -0.0814650  )
       158           H   tau( 158) = (   0.1940479   0.1772558  -0.0631372  )
       159           H   tau( 159) = (   0.1871637  -0.2629757  -0.2015081  )
       160           H   tau( 160) = (   0.1229065  -0.2876759  -0.1555325  )
       161           H   tau( 161) = (  -0.0939622   0.2104277  -0.1681053  )
       162           H   tau( 162) = (  -0.1139616   0.2291224  -0.0984691  )
       163           H   tau( 163) = (   0.2287504   0.0094415   0.3400593  )
       164           H   tau( 164) = (   0.1823390   0.0286311   0.2818091  )
       165           H   tau( 165) = (  -0.0916775  -0.0082394   0.1040593  )
       166           H   tau( 166) = (  -0.1656376  -0.0089199   0.1158715  )
       167           H   tau( 167) = (  -0.0166881  -0.0840102  -0.1976104  )
       168           H   tau( 168) = (   0.0025669  -0.1443068  -0.1564270  )
       169           H   tau( 169) = (  -0.0210230  -0.1950226  -0.2423485  )
       170           H   tau( 170) = (   0.0472987  -0.1795195  -0.2710889  )
       171           H   tau( 171) = (   0.3292642  -0.2895975   0.2603233  )
       172           H   tau( 172) = (   0.2907038  -0.2483737   0.2059873  )
       173           H   tau( 173) = (   0.2629434  -0.1849864  -0.0004932  )
       174           H   tau( 174) = (   0.1958409  -0.1783696  -0.0347838  )
       175           H   tau( 175) = (   0.2620565   0.0021815   0.1132434  )
       176           H   tau( 176) = (   0.2059285  -0.0333740   0.1516552  )
       177           H   tau( 177) = (   0.0812009   0.1987637  -0.2615880  )
       178           H   tau( 178) = (   0.1042153   0.2426082  -0.2043775  )
       179           H   tau( 179) = (  -0.0324880  -0.3229325   0.0021277  )
       180           H   tau( 180) = (  -0.0935623  -0.2976402   0.0390605  )
       181           H   tau( 181) = (  -0.2741389  -0.0505352  -0.2834101  )
       182           H   tau( 182) = (  -0.2712959  -0.1251967  -0.2638016  )
       183           H   tau( 183) = (  -0.1909356   0.0503806  -0.0270870  )
       184           H   tau( 184) = (  -0.2613755   0.0753264  -0.0026799  )
       185           H   tau( 185) = (   0.2390468   0.1449471  -0.1591937  )
       186           H   tau( 186) = (   0.2162257   0.0742813  -0.1535724  )
       187           H   tau( 187) = (   0.1730203  -0.0246831  -0.0455323  )
       188           H   tau( 188) = (   0.1311213   0.0062725  -0.1049572  )
       189           H   tau( 189) = (  -0.2935243  -0.0704638   0.0563143  )
       190           H   tau( 190) = (  -0.2513258  -0.1331214   0.0746086  )
       191           H   tau( 191) = (   0.0788753   0.1573319   0.0906641  )
       192           H   tau( 192) = (   0.0783874   0.1325849   0.0160918  )

     number of k points=     1  Marzari-Vanderbilt smearing, width (Ry)=  0.0250
                       cart. coord. in units 2pi/alat
        k(    1) = (   0.0000000   0.0000000   0.0000000), wk =   2.0000000

     Dense  grid:   177509 G-vectors     FFT dimensions: (  72,  72,  72)

     Estimated max dynamical RAM per process >      67.80Mb

     Estimated total allocated dynamical RAM >    1898.40Mb

     Initial potential from superposition of free atoms
     Check: negative starting charge=   -0.827847

     starting charge  511.99856, renormalised to  512.00000

     negative rho (up, down):  8.278E-01 0.000E+00
     Starting wfc are  384 randomized atomic wfcs

     total cpu time spent up to now is        0.8 secs

     per-process dynamical memory:    45.9 Mb

     Self-consistent Calculation

     iteration #  1     ecut=    30.00 Ry     beta=0.70
     Davidson diagonalization with overlap
     ethr =  1.00E-02,  avg # of iterations =  8.0

     negative rho (up, down):  1.993E-01 0.000E+00

     total cpu time spent up to now is        8.9 secs

     total energy              =   -1797.30617796 Ry
     Harris-Foulkes estimate   =   -1824.27294053 Ry
     estimated scf accuracy    <      41.45604902 Ry

     iteration #  2     ecut=    30.00 Ry     beta=0.70
     Davidson diagonalization with overlap
     ethr =  8.10E-03,  avg # of iterations =  4.0

     negative rho (up, down):  3.335E-03 0.000E+00

     total cpu time spent up to now is       12.1 secs

     total energy              =   -1778.90450245 Ry
     Harris-Foulkes estimate   =   -1810.47002479 Ry
     estimated scf accuracy    <      70.39631232 Ry

     iteration #  3     ecut=    30.00 Ry     beta=0.70
     Davidson diagonalization with overlap
     ethr =  8.10E-03,  avg # of iterations =  5.0

     negative rho (up, down):  3.020E-05 0.000E+00

     total cpu time spent up to now is       15.7 secs

     total energy              =   -1799.91688663 Ry
     Harris-Foulkes estimate   =   -1811.71132749 Ry
     estimated scf accuracy    <      34.14633367 Ry

     iteration #  4     ecut=    30.00 Ry     beta=0.70
     Davidson diagonalization with overlap
     ethr =  6.67E-03,  avg # of iterations =  3.0

     total cpu time spent up to now is       17.6 secs

     total energy              =   -1804.86950400 Ry
     Harris-Foulkes estimate   =   -1807.29978956 Ry
     estimated scf accuracy    <       7.51214689 Ry

     iteration #  5     ecut=    30.00 Ry     beta=0.70
     Davidson diagonalization with overlap
     ethr =  1.47E-03,  avg # of iterations =  5.0

     total cpu time spent up to now is       20.1 secs

     total energy              =   -1804.57851275 Ry
     Harris-Foulkes estimate   =   -1805.29245653 Ry
     estimated scf accuracy    <       2.78741315 Ry

     iteration #  6     ecut=    30.00 Ry     beta=0.70
     Davidson diagonalization with overlap
     ethr =  5.44E-04,  avg # of iterations =  5.0

     total cpu time spent up to now is       22.5 secs

     total energy              =   -1804.29918795 Ry
     Harris-Foulkes estimate   =   -1804.67519956 Ry
     estimated scf accuracy    <       1.19214433 Ry

     iteration #  7     ecut=    30.00 Ry     beta=0.70
     Davidson diagonalization with overlap
     ethr =  2.33E-04,  avg # of iterations =  5.0

     total cpu time spent up to now is       25.0 secs

     total energy              =   -1804.35444464 Ry
     Harris-Foulkes estimate   =   -1804.39866096 Ry
     estimated scf accuracy    <       0.31906713 Ry

     iteration #  8     ecut=    30.00 Ry     beta=0.70
     Davidson diagonalization with overlap
     ethr =  6.23E-05,  avg # of iterations =  2.0

     total cpu time spent up to now is       26.4 secs

     total energy              =   -1804.30646744 Ry
     Harris-Foulkes estimate   =   -1804.37014988 Ry
     estimated scf accuracy    <       0.23499160 Ry

     iteration #  9     ecut=    30.00 Ry     beta=0.70
     Davidson diagonalization with overlap
     ethr =  4.59E-05,  avg # of iterations =  7.0

     total cpu time spent up to now is       29.7 secs

     total energy              =   -1804.27532859 Ry
     Harris-Foulkes estimate   =   -1804.38026482 Ry
     estimated scf accuracy    <       1.30305107 Ry

     iteration # 10     ecut=    30.00 Ry     beta=0.70
     Davidson diagonalization with overlap
     ethr =  4.59E-05,  avg # of iterations =  3.0

     total cpu time spent up to now is       31.3 secs

     total energy              =   -1804.31646895 Ry
     Harris-Foulkes estimate   =   -1804.33125695 Ry
     estimated scf accuracy    <       0.10034121 Ry

     iteration # 11     ecut=    30.00 Ry     beta=0.70
     Davidson diagonalization with overlap
     ethr =  1.96E-05,  avg # of iterations =  2.0

     total cpu time spent up to now is       32.7 secs

     total energy              =   -1804.31028833 Ry
     Harris-Foulkes estimate   =   -1804.32658661 Ry
     estimated scf accuracy    <       0.10092852 Ry

     iteration # 12     ecut=    30.00 Ry     beta=0.70
     Davidson diagonalization with overlap
     ethr =  1.96E-05,  avg # of iterations =  7.0

     total cpu time spent up to now is       35.6 secs

     total energy              =   -1804.31337593 Ry
     Harris-Foulkes estimate   =   -1804.32974164 Ry
     estimated scf accuracy    <       0.16846182 Ry

     iteration # 13     ecut=    30.00 Ry     beta=0.70
     Davidson diagonalization with overlap
     ethr =  1.96E-05,  avg # of iterations =  2.0

     total cpu time spent up to now is       37.0 secs

     total energy              =   -1804.32039202 Ry
     Harris-Foulkes estimate   =   -1804.32302646 Ry
     estimated scf accuracy    <       0.03071186 Ry

     iteration # 14     ecut=    30.00 Ry     beta=0.70
     Davidson diagonalization with overlap
     ethr =  6.00E-06,  avg # of iterations =  4.0

     total cpu time spent up to now is       39.0 secs

     total energy              =   -1804.32102061 Ry
     Harris-Foulkes estimate   =   -1804.32146119 Ry
     estimated scf accuracy    <       0.00458170 Ry

     iteration # 15     ecut=    30.00 Ry     beta=0.70
     Davidson diagonalization with overlap
     ethr =  8.95E-07,  avg # of iterations =  4.0

     total cpu time spent up to now is       41.0 secs

     total energy              =   -1804.32126880 Ry
     Harris-Foulkes estimate   =   -1804.32129512 Ry
     estimated scf accuracy    <       0.00025381 Ry

     iteration # 16     ecut=    30.00 Ry     beta=0.70
     Davidson diagonalization with overlap
     ethr =  4.96E-08,  avg # of iterations =  2.0

     total cpu time spent up to now is       42.5 secs

     total energy              =   -1804.32128380 Ry
     Harris-Foulkes estimate   =   -1804.32128682 Ry
     estimated scf accuracy    <       0.00002169 Ry

     iteration # 17     ecut=    30.00 Ry     beta=0.70
     Davidson diagonalization with overlap
     ethr =  4.24E-09,  avg # of iterations =  2.0

     total cpu time spent up to now is       43.9 secs

     total energy              =   -1804.32128678 Ry
     Harris-Foulkes estimate   =   -1804.32128699 Ry
     estimated scf accuracy    <       0.00000281 Ry

     iteration # 18     ecut=    30.00 Ry     beta=0.70
     Davidson diagonalization with overlap
     ethr =  5.50E-10,  avg # of iterations =  3.0

     total cpu time spent up to now is       45.7 secs

     total energy              =   -1804.32128710 Ry
     Harris-Foulkes estimate   =   -1804.32128724 Ry
     estimated scf accuracy    <       0.00000046 Ry

     iteration # 19     ecut=    30.00 Ry     beta=0.70
     Davidson diagonalization with overlap
     ethr =  8.98E-11,  avg # of iterations =  3.0

     total cpu time spent up to now is       47.9 secs

     total energy              =   -1804.32128675 Ry
     Harris-Foulkes estimate   =   -1804.32128786 Ry
     estimated scf accuracy    <       0.00001300 Ry

     iteration # 20     ecut=    30.00 Ry     beta=0.70
     Davidson diagonalization with overlap
     ethr =  8.98E-11,  avg # of iterations =  2.0

     total cpu time spent up to now is       49.5 secs

     total energy              =   -1804.32128737 Ry
     Harris-Foulkes estimate   =   -1804.32128733 Ry
     estimated scf accuracy    <       0.00000006 Ry

     iteration # 21     ecut=    30.00 Ry     beta=0.70
     Davidson diagonalization with overlap
     ethr =  1.14E-11,  avg # of iterations =  3.0

     total cpu time spent up to now is       51.7 secs

     total energy              =   -1804.32128739 Ry
     Harris-Foulkes estimate   =   -1804.32128739 Ry
     estimated scf accuracy    <       0.00000002 Ry

     iteration # 22     ecut=    30.00 Ry     beta=0.70
     Davidson diagonalization with overlap
     ethr =  3.58E-12,  avg # of iterations =  2.0

     total cpu time spent up to now is       53.2 secs

     total energy              =   -1804.32128739 Ry
     Harris-Foulkes estimate   =   -1804.32128740 Ry
     estimated scf accuracy    <       0.00000009 Ry

     iteration # 23     ecut=    30.00 Ry     beta=0.70
     Davidson diagonalization with overlap
     ethr =  3.58E-12,  avg # of iterations =  3.0

     total cpu time spent up to now is       55.0 secs

     End of self-consistent calculation

          k = 0.0000 0.0000 0.0000 ( 22119 PWs)   bands (ev):

   -40.5351 -39.6808 -38.6632 -38.4599 -37.6447 -37.1591 -36.7126 -36.4224
   -36.0885 -35.8361 -35.4708 -35.2277 -34.8723 -34.6519 -34.3753 -34.0512
   -33.6463 -33.1381 -32.9896 -32.7609 -32.4427 -32.2506 -31.8094 -31.5888
   -31.4011 -31.1455 -31.0185 -30.7791 -30.5011 -30.4018 -30.3225 -30.2647
   -29.9605 -29.6941 -29.4436 -29.2122 -29.0387 -28.8138 -28.7377 -28.4186
   -28.2769 -28.0954 -28.0644 -27.8624 -27.7633 -27.6595 -27.3815 -27.2775
   -27.0665 -26.9235 -26.8578 -26.4694 -26.4539 -26.3839 -26.2159 -26.0520
   -25.9760 -25.8806 -25.7447 -25.5850 -25.5436 -25.4217 -24.9220 -24.2798
   -22.1899 -21.6247 -21.3011 -20.8845 -20.2450 -20.0436 -19.6140 -19.4041
   -19.0595 -18.7911 -18.6119 -18.5708 -18.3097 -18.2670 -18.1801 -18.0010
   -17.8665 -17.7735 -17.5128 -17.2283 -17.0889 -16.8882 -16.7121 -16.6309
   -16.4935 -16.3566 -16.3040 -16.2244 -16.0133 -15.9839 -15.6364 -15.5620
   -15.4694 -15.4151 -15.1945 -15.1633 -15.0858 -14.9754 -14.8500 -14.7698
   -14.6668 -14.5228 -14.3762 -14.2579 -14.2361 -13.9754 -13.7287 -13.6275
   -13.3374 -13.2443 -13.1524 -13.1197 -12.9410 -12.7988 -12.6391 -12.5137
   -12.4894 -12.3123 -12.2211 -12.0211 -11.9065 -11.8128 -11.4038 -11.1325
   -10.9683 -10.7705 -10.7225 -10.3030 -10.0168  -9.7025  -9.5664  -9.3999
    -9.0975  -9.0227  -8.7885  -8.4810  -8.3254  -8.1031  -7.8111  -7.6039
    -7.3951  -7.2267  -7.0714  -6.9390  -6.8228  -6.7760  -6.4691  -6.3014
    -6.1992  -6.0694  -5.9890  -5.8953  -5.7955  -5.7505  -5.6324  -5.5289
    -5.4494  -5.3440  -5.2419  -5.1212  -5.0595  -4.9389  -4.7967  -4.7082
    -4.6822  -4.6002  -4.5230  -4.3670  -4.2932  -4.0976  -4.0575  -3.9386
    -3.8724  -3.7664  -3.7252  -3.6544  -3.6112  -3.4894  -3.3803  -3.2491
    -3.1994  -3.1354  -3.0795  -2.9267  -2.7100  -2.6682  -2.5246  -2.4569
    -2.2841  -2.2524  -2.1739  -2.0914  -2.0214  -1.9242  -1.7498  -1.6585
    -1.4606  -1.4362  -1.3737  -1.2827  -1.1594  -1.0545  -0.9550  -0.8647
    -0.7583  -0.5967  -0.4542  -0.3835  -0.2914  -0.1601  -0.0404   0.0215
     0.1026   0.1875   0.2921   0.3546   0.4946   0.5072   0.5694   0.7538
     0.8598   1.0109   1.1311   1.2110   1.2671   1.4280   1.5784   1.6090
     1.7626   1.7923   1.9363   2.1840   2.2811   2.5323   2.6129   2.7003
     2.7537   2.9121   2.9363   3.1601   3.2719   3.4445   3.6089   3.7105
     3.7686   3.9604   4.1028   4.1325   5.0965   5.2107   5.2447   5.3254
     5.5875   6.0713   6.3128   6.5498   6.8162   7.1419   7.4027   7.5165
     7.6049   7.7026   7.8292   7.9446   8.1540   8.3955   8.7045   8.7714
     8.9063   9.0975   9.2394   9.3035   9.5894   9.7343   9.8699   9.9657
    10.1273  10.2449  10.4133  10.4917  10.5384  10.5777  10.7436  10.8246
    10.8903  11.0686  11.1497  11.3006  11.3430  11.3713  11.6385  11.6537
    11.7310  11.7519  11.8956  11.9348  11.9930  12.1227  12.1823  12.2802
    12.3355  12.4205  12.4784

     the Fermi energy is     5.5024 ev

!    total energy              =   -1804.32128740 Ry
     Harris-Foulkes estimate   =   -1804.32128740 Ry
     estimated scf accuracy    <          1.5E-09 Ry

     The total energy is the sum of the following terms:

     one-electron contribution =  -14996.11956976 Ry
     hartree contribution      =    7669.34620261 Ry
     xc contribution           =    -636.54933555 Ry
     ewald contribution        =    6159.00122197 Ry
     smearing contrib. (-TS)   =       0.00019333 Ry

     convergence has been achieved in  23 iterations

     Writing output data file pwscf.save
 
     init_run     :      0.57s CPU      0.63s WALL (       1 calls)
     electrons    :     52.59s CPU     54.24s WALL (       1 calls)

     Called by init_run:
     wfcinit      :      0.47s CPU      0.53s WALL (       1 calls)
     potinit      :      0.02s CPU      0.02s WALL (       1 calls)

     Called by electrons:
     c_bands      :     50.34s CPU     51.69s WALL (      23 calls)
     sum_band     :      1.89s CPU      1.96s WALL (      23 calls)
     v_of_rho     :      0.18s CPU      0.19s WALL (      24 calls)
     mix_rho      :      0.14s CPU      0.26s WALL (      23 calls)

     Called by c_bands:
     init_us_2    :      0.06s CPU      0.07s WALL (      47 calls)
     cegterg      :     50.19s CPU     51.46s WALL (      23 calls)

     Called by sum_band:

     Called by *egterg:
     h_psi        :      8.76s CPU      8.98s WALL (     110 calls)
     g_psi        :      0.07s CPU      0.07s WALL (      86 calls)
     cdiaghg      :     31.91s CPU     31.98s WALL (     109 calls)

     Called by h_psi:
     h_psi:pot    :      8.54s CPU      8.76s WALL (     110 calls)
     h_psi:calbec :      0.32s CPU      0.32s WALL (     110 calls)
     vloc_psi     :      7.94s CPU      8.15s WALL (     110 calls)
     add_vuspsi   :      0.28s CPU      0.29s WALL (     110 calls)

     General routines
     calbec       :      0.32s CPU      0.32s WALL (     110 calls)
     fft          :      0.10s CPU      0.11s WALL (     263 calls)
     fftw         :      8.85s CPU      9.12s WALL (   39937 calls)
     davcio       :      0.02s CPU      0.13s WALL (     368 calls)
 
     Parallel routines
     fft_scatter  :      3.05s CPU      3.20s WALL (   40200 calls)
 
     PWSCF        :    53.32s CPU        55.28s WALL

 
   This run was terminated on:  12: 7:47   2Feb2018            

=------------------------------------------------------------------------------=
   JOB DONE.
=------------------------------------------------------------------------------=
