
     Program PWSCF v.6.0 (svn rev. 13079) starts on  2Feb2018 at  5:34: 4 

     This program is part of the open-source Quantum ESPRESSO suite
     for quantum simulation of materials; please cite
         "P. Giannozzi et al., J. Phys.:Condens. Matter 21 395502 (2009);
          URL http://www.quantum-espresso.org", 
     in publications or presentations arising from this work. More details at
     http://www.quantum-espresso.org/quote

     Parallel version (MPI), running on    28 processors
     R & G space division:  proc/nbgrp/npool/nimage =      28
     Reading input from input/scf-bigwater-1/46.in
Warning: card &IONS ignored
Warning: card     POT_EXTRAPOLATION='SECOND-ORDER' ignored
Warning: card     WFC_EXTRAPOLATION='SECOND-ORDER' ignored
Warning: card     ION_TEMPERATURE = 'ANDERSEN' ignored
Warning: card     TEMPW = 1000 ignored
Warning: card / ignored

     Current dimensions of program PWSCF are:
     Max number of different atomic species (ntypx) = 10
     Max number of k-points (npk) =  40000
     Max angular momentum in pseudopotentials (lmaxx) =  3

     Subspace diagonalization in iterative solution of the eigenvalue problem:
     a serial algorithm will be used

 
     Parallelization info
     --------------------
     sticks:   dense  smooth     PW     G-vecs:    dense   smooth      PW
     Min         136     136     33                 6338     6338     787
     Max         137     137     34                 6341     6341     792
     Sum        3809    3809    949               177509   177509   22119
 


     bravais-lattice index     =            1
     lattice parameter (alat)  =      20.0000  a.u.
     unit-cell volume          =    8000.0000 (a.u.)^3
     number of atoms/cell      =          192
     number of atomic types    =            2
     number of electrons       =       512.00
     number of Kohn-Sham states=          307
     kinetic-energy cutoff     =      30.0000  Ry
     charge density cutoff     =     120.0000  Ry
     convergence threshold     =      1.0E-08
     mixing beta               =       0.7000
     number of iterations used =            8  plain     mixing
     Exchange-correlation      = BLYP ( 1  3  1  3 0 0)

     celldm(1)=  20.000000  celldm(2)=   0.000000  celldm(3)=   0.000000
     celldm(4)=   0.000000  celldm(5)=   0.000000  celldm(6)=   0.000000

     crystal axes: (cart. coord. in units of alat)
               a(1) = (   1.000000   0.000000   0.000000 )  
               a(2) = (   0.000000   1.000000   0.000000 )  
               a(3) = (   0.000000   0.000000   1.000000 )  

     reciprocal axes: (cart. coord. in units 2 pi/alat)
               b(1) = (  1.000000  0.000000  0.000000 )  
               b(2) = (  0.000000  1.000000  0.000000 )  
               b(3) = (  0.000000  0.000000  1.000000 )  


     PseudoPot. # 1 for  H read from file:
     ./H.blyp-hgh.UPF
     MD5 check sum: c576e69559cde411e611be972c763230
     Pseudo is Norm-conserving, Zval =  1.0
     Generated in analytical, separable form
     Using radial grid of  929 points,  0 beta functions with: 

     PseudoPot. # 2 for  O read from file:
     ./O.blyp-hgh.UPF
     MD5 check sum: d0b7156309aa9befef28faac7bc56342
     Pseudo is Norm-conserving, Zval =  6.0
     Generated in analytical, separable form
     Using radial grid of 1095 points,  1 beta functions with: 
                l(1) =   0

     atomic species   valence    mass     pseudopotential
        H              1.00     1.01000      H( 1.00)
        O              6.00    16.00000      O( 1.00)

     No symmetry found



   Cartesian axes

     site n.     atom                  positions (alat units)
         1           O   tau(   1) = (  -0.2624968  -0.0775100  -0.0624252  )
         2           O   tau(   2) = (   0.1992787  -0.1101604   0.2699788  )
         3           O   tau(   3) = (  -0.2859160   0.2627373  -0.2777673  )
         4           O   tau(   4) = (  -0.0078268   0.1790651  -0.0787907  )
         5           O   tau(   5) = (  -0.2357650   0.0355212   0.1917666  )
         6           O   tau(   6) = (  -0.0118636   0.2714653   0.2593726  )
         7           O   tau(   7) = (  -0.0064166  -0.2683342  -0.1702908  )
         8           O   tau(   8) = (   0.1148508   0.0158116   0.1841857  )
         9           O   tau(   9) = (  -0.1428753  -0.2649455   0.2810781  )
        10           O   tau(  10) = (   0.0941511  -0.1508359   0.0823444  )
        11           O   tau(  11) = (   0.1253022  -0.3035517   0.1451864  )
        12           O   tau(  12) = (  -0.2108706  -0.1526209   0.2177032  )
        13           O   tau(  13) = (  -0.2211695  -0.2979046   0.0357973  )
        14           O   tau(  14) = (  -0.1779861  -0.2838465  -0.1816893  )
        15           O   tau(  15) = (   0.1038015  -0.1370241  -0.1063165  )
        16           O   tau(  16) = (  -0.0891373   0.1253048   0.0716114  )
        17           O   tau(  17) = (  -0.0524958  -0.0709894   0.0838366  )
        18           O   tau(  18) = (   0.0125609  -0.2120817   0.1824633  )
        19           O   tau(  19) = (   0.2723210  -0.2064041  -0.2472379  )
        20           O   tau(  20) = (   0.2803506   0.2404873   0.1091299  )
        21           O   tau(  21) = (   0.3009661  -0.1480044   0.1623103  )
        22           O   tau(  22) = (  -0.1614493  -0.1511629  -0.1909530  )
        23           O   tau(  23) = (  -0.0455593   0.1291339  -0.2467125  )
        24           O   tau(  24) = (   0.1935424   0.1175388   0.1416596  )
        25           O   tau(  25) = (   0.1160593   0.0643868  -0.1559782  )
        26           O   tau(  26) = (  -0.2457831   0.1425948  -0.3064006  )
        27           O   tau(  27) = (   0.2215177  -0.2970498  -0.0627168  )
        28           O   tau(  28) = (   0.0972598  -0.0659577  -0.2293556  )
        29           O   tau(  29) = (  -0.1012743   0.0127440  -0.2416144  )
        30           O   tau(  30) = (   0.0418795  -0.0161908   0.0322542  )
        31           O   tau(  31) = (   0.2395220  -0.0881453  -0.1898727  )
        32           O   tau(  32) = (   0.2588917   0.0032029  -0.0014202  )
        33           O   tau(  33) = (  -0.0164221   0.2237265   0.0913976  )
        34           O   tau(  34) = (  -0.2641726   0.0359247  -0.2002342  )
        35           O   tau(  35) = (   0.0366032  -0.1897434  -0.0173952  )
        36           O   tau(  36) = (   0.2309618   0.1723723  -0.2148976  )
        37           O   tau(  37) = (   0.1783231   0.2744029   0.2907881  )
        38           O   tau(  38) = (  -0.2540425   0.1815544  -0.0878318  )
        39           O   tau(  39) = (  -0.0204381   0.0521246  -0.0788247  )
        40           O   tau(  40) = (  -0.1489342  -0.1647983  -0.0587919  )
        41           O   tau(  41) = (  -0.1298651   0.2725113   0.1695436  )
        42           O   tau(  42) = (  -0.0745390   0.1397214   0.1908988  )
        43           O   tau(  43) = (  -0.1321261  -0.0104674  -0.0333682  )
        44           O   tau(  44) = (  -0.0756815  -0.1109736   0.2461675  )
        45           O   tau(  45) = (   0.0378914   0.0888328   0.2434550  )
        46           O   tau(  46) = (  -0.2414522   0.1707200   0.0728150  )
        47           O   tau(  47) = (   0.1388370   0.1943410  -0.0268917  )
        48           O   tau(  48) = (   0.1338235  -0.2978062  -0.1772541  )
        49           O   tau(  49) = (  -0.1336134   0.2301373  -0.1156993  )
        50           O   tau(  50) = (   0.2841298   0.0266155   0.2629812  )
        51           O   tau(  51) = (  -0.1573742   0.0082905   0.0982768  )
        52           O   tau(  52) = (  -0.0320933  -0.1220061  -0.1134535  )
        53           O   tau(  53) = (   0.0012094  -0.1604535  -0.2752914  )
        54           O   tau(  54) = (   0.2835727  -0.2987862   0.2226686  )
        55           O   tau(  55) = (   0.2581045  -0.1488798  -0.0118491  )
        56           O   tau(  56) = (   0.2358176  -0.0350022   0.1204816  )
        57           O   tau(  57) = (   0.0523668   0.2150636  -0.2187373  )
        58           O   tau(  58) = (  -0.0293397  -0.2872745   0.0233410  )
        59           O   tau(  59) = (  -0.2783974  -0.0674467  -0.2897788  )
        60           O   tau(  60) = (  -0.2315736   0.0734850  -0.0473121  )
        61           O   tau(  61) = (   0.2613366   0.0842509  -0.1398157  )
        62           O   tau(  62) = (   0.1350022  -0.0130018  -0.0470976  )
        63           O   tau(  63) = (  -0.2652198  -0.0591108   0.0599193  )
        64           O   tau(  64) = (   0.0755398   0.1364337   0.0712720  )
        65           H   tau(  65) = (  -0.2386281  -0.0848780  -0.0202823  )
        66           H   tau(  66) = (  -0.2257622  -0.0712798  -0.0939132  )
        67           H   tau(  67) = (   0.1761969  -0.1497000   0.2860831  )
        68           H   tau(  68) = (   0.1655537  -0.0799339   0.2523496  )
        69           H   tau(  69) = (  -0.3125083   0.2413810  -0.2427385  )
        70           H   tau(  70) = (  -0.2976214   0.2331039  -0.3146794  )
        71           H   tau(  71) = (   0.0161636   0.1616453  -0.0401903  )
        72           H   tau(  72) = (   0.0206602   0.2113957  -0.1011033  )
        73           H   tau(  73) = (  -0.2727814   0.0036380   0.1909215  )
        74           H   tau(  74) = (  -0.2557796   0.0667891   0.2237220  )
        75           H   tau(  75) = (   0.0100434   0.3146366   0.2557008  )
        76           H   tau(  76) = (  -0.0094085   0.2555585   0.3052008  )
        77           H   tau(  77) = (  -0.0195998  -0.2820684  -0.1255381  )
        78           H   tau(  78) = (  -0.0390330  -0.2924482  -0.1971680  )
        79           H   tau(  79) = (   0.1213183   0.0592874   0.1627543  )
        80           H   tau(  80) = (   0.0691862   0.0041261   0.1720739  )
        81           H   tau(  81) = (  -0.1750954  -0.2797932   0.3143801  )
        82           H   tau(  82) = (  -0.0999727  -0.2665246   0.3038694  )
        83           H   tau(  83) = (   0.0951872  -0.1020912   0.0785558  )
        84           H   tau(  84) = (   0.1382962  -0.1707725   0.0848841  )
        85           H   tau(  85) = (   0.1647409  -0.3110329   0.1177884  )
        86           H   tau(  86) = (   0.0898052  -0.3304995   0.1257069  )
        87           H   tau(  87) = (  -0.1788966  -0.1758018   0.1894296  )
        88           H   tau(  88) = (  -0.2150148  -0.1076944   0.1996124  )
        89           H   tau(  89) = (  -0.1755355  -0.3110924   0.0252758  )
        90           H   tau(  90) = (  -0.2252032  -0.2534000   0.0163974  )
        91           H   tau(  91) = (  -0.2234466  -0.2811695  -0.1646813  )
        92           H   tau(  92) = (  -0.1768789  -0.3290838  -0.1996490  )
        93           H   tau(  93) = (   0.1081689  -0.0886410  -0.1023575  )
        94           H   tau(  94) = (   0.1191475  -0.1540234  -0.0632045  )
        95           H   tau(  95) = (  -0.0754348   0.1572361   0.0374876  )
        96           H   tau(  96) = (  -0.0706009   0.0821418   0.0592707  )
        97           H   tau(  97) = (  -0.0179383  -0.0937957   0.0583990  )
        98           H   tau(  98) = (  -0.0461442  -0.0812498   0.1308507  )
        99           H   tau(  99) = (   0.0463562  -0.1782612   0.1924587  )
       100           H   tau( 100) = (  -0.0169557  -0.1863318   0.1535740  )
       101           H   tau( 101) = (   0.2964380  -0.2383097  -0.2748201  )
       102           H   tau( 102) = (   0.3047668  -0.1788121  -0.2236448  )
       103           H   tau( 103) = (   0.2771918   0.2792993   0.1391437  )
       104           H   tau( 104) = (   0.3020081   0.2537603   0.0674900  )
       105           H   tau( 105) = (   0.2659162  -0.1291394   0.1342897  )
       106           H   tau( 106) = (   0.3280930  -0.1806558   0.1390589  )
       107           H   tau( 107) = (  -0.1180030  -0.1413823  -0.2102949  )
       108           H   tau( 108) = (  -0.1971900  -0.1480203  -0.2234497  )
       109           H   tau( 109) = (  -0.0239186   0.1488220  -0.2079062  )
       110           H   tau( 110) = (  -0.0383008   0.0807257  -0.2434814  )
       111           H   tau( 111) = (   0.2350570   0.1245101   0.1658148  )
       112           H   tau( 112) = (   0.1716454   0.1608568   0.1398006  )
       113           H   tau( 113) = (   0.1451188   0.0511861  -0.1924629  )
       114           H   tau( 114) = (   0.1041715   0.1113997  -0.1588396  )
       115           H   tau( 115) = (  -0.2513511   0.1212801  -0.2628267  )
       116           H   tau( 116) = (  -0.1993486   0.1556304  -0.3116589  )
       117           H   tau( 117) = (   0.2102414  -0.2523512  -0.0782077  )
       118           H   tau( 118) = (   0.2693351  -0.2943651  -0.0545944  )
       119           H   tau( 119) = (   0.1388364  -0.0570459  -0.2528429  )
       120           H   tau( 120) = (   0.0595128  -0.0508451  -0.2557687  )
       121           H   tau( 121) = (  -0.1056348  -0.0243695  -0.2725903  )
       122           H   tau( 122) = (  -0.1427332   0.0378801  -0.2437178  )
       123           H   tau( 123) = (   0.0649620   0.0265531   0.0375481  )
       124           H   tau( 124) = (   0.0588829  -0.0251413  -0.0128441  )
       125           H   tau( 125) = (   0.2008290  -0.1098863  -0.1695329  )
       126           H   tau( 126) = (   0.2705862  -0.0854592  -0.1524214  )
       127           H   tau( 127) = (   0.2555435   0.0514378  -0.0056608  )
       128           H   tau( 128) = (   0.2978963  -0.0138727  -0.0275547  )
       129           H   tau( 129) = (  -0.0306642   0.1997923   0.1322510  )
       130           H   tau( 130) = (  -0.0197745   0.2719481   0.0969594  )
       131           H   tau( 131) = (  -0.2366414   0.0564550  -0.1650770  )
       132           H   tau( 132) = (  -0.3009931   0.0233255  -0.1700710  )
       133           H   tau( 133) = (   0.0351490  -0.2357410  -0.0330852  )
       134           H   tau( 134) = (   0.0388100  -0.1958531   0.0310113  )
       135           H   tau( 135) = (   0.1851044   0.1851025  -0.2054215  )
       136           H   tau( 136) = (   0.2301836   0.1399720  -0.2510922  )
       137           H   tau( 137) = (   0.1597261   0.2473261   0.2547232  )
       138           H   tau( 138) = (   0.1413536   0.3053730   0.2974380  )
       139           H   tau( 139) = (  -0.2923049   0.1942360  -0.0607286  )
       140           H   tau( 140) = (  -0.2386992   0.2199044  -0.1134764  )
       141           H   tau( 141) = (  -0.0010683   0.0177148  -0.1072127  )
       142           H   tau( 142) = (  -0.0664254   0.0529925  -0.0952669  )
       143           H   tau( 143) = (  -0.1537423  -0.1636658  -0.1079217  )
       144           H   tau( 144) = (  -0.1374585  -0.2112658  -0.0499011  )
       145           H   tau( 145) = (  -0.1627583   0.2927006   0.1399959  )
       146           H   tau( 146) = (  -0.1253659   0.3020511   0.2083375  )
       147           H   tau( 147) = (  -0.0769509   0.0912196   0.1868580  )
       148           H   tau( 148) = (  -0.1172761   0.1568824   0.1752022  )
       149           H   tau( 149) = (  -0.1165566  -0.0529274  -0.0152190  )
       150           H   tau( 150) = (  -0.1422350   0.0124917   0.0087837  )
       151           H   tau( 151) = (  -0.1201300  -0.1075149   0.2660222  )
       152           H   tau( 152) = (  -0.0657442  -0.1577970   0.2552123  )
       153           H   tau( 153) = (   0.0816061   0.0834897   0.2638346  )
       154           H   tau( 154) = (   0.0069669   0.1132634   0.2718881  )
       155           H   tau( 155) = (  -0.2680823   0.1714898   0.1135558  )
       156           H   tau( 156) = (  -0.1955076   0.1582878   0.0829702  )
       157           H   tau( 157) = (   0.1685780   0.2291145  -0.0100663  )
       158           H   tau( 158) = (   0.1416583   0.2038667  -0.0745581  )
       159           H   tau( 159) = (   0.1801350  -0.2989765  -0.1921199  )
       160           H   tau( 160) = (   0.1118913  -0.2625075  -0.2025677  )
       161           H   tau( 161) = (  -0.1257292   0.1939382  -0.1475533  )
       162           H   tau( 162) = (  -0.1044849   0.2122952  -0.0805276  )
       163           H   tau( 163) = (   0.2993342   0.0058544   0.3051620  )
       164           H   tau( 164) = (   0.2359390   0.0211392   0.2616013  )
       165           H   tau( 165) = (  -0.1434180  -0.0327148   0.1201975  )
       166           H   tau( 166) = (  -0.1842718   0.0327827   0.1312843  )
       167           H   tau( 167) = (  -0.0030139  -0.1611597  -0.1157149  )
       168           H   tau( 168) = (  -0.0122826  -0.1036032  -0.0728519  )
       169           H   tau( 169) = (   0.0206015  -0.1723327  -0.2323254  )
       170           H   tau( 170) = (   0.0385201  -0.1574087  -0.3062192  )
       171           H   tau( 171) = (   0.2479528  -0.2762380   0.2467912  )
       172           H   tau( 172) = (   0.3254715  -0.2867052   0.2437654  )
       173           H   tau( 173) = (   0.2840743  -0.1771820   0.0179715  )
       174           H   tau( 174) = (   0.2307551  -0.1237507   0.0195715  )
       175           H   tau( 175) = (   0.2152048  -0.0223811   0.0778329  )
       176           H   tau( 176) = (   0.2129931  -0.0054943   0.1519746  )
       177           H   tau( 177) = (   0.0700305   0.1862289  -0.2536854  )
       178           H   tau( 178) = (   0.0851264   0.2500581  -0.2053802  )
       179           H   tau( 179) = (  -0.0449888  -0.3215971  -0.0072975  )
       180           H   tau( 180) = (  -0.0670345  -0.2595735   0.0363660  )
       181           H   tau( 181) = (  -0.2718703  -0.1012473  -0.3240419  )
       182           H   tau( 182) = (  -0.2374423  -0.0479965  -0.2724969  )
       183           H   tau( 183) = (  -0.1948379   0.1052483  -0.0506772  )
       184           H   tau( 184) = (  -0.2399113   0.0757543   0.0006115  )
       185           H   tau( 185) = (   0.2904310   0.1233327  -0.1415746  )
       186           H   tau( 186) = (   0.2191780   0.0997226  -0.1214301  )
       187           H   tau( 187) = (   0.1777203  -0.0289977  -0.0288004  )
       188           H   tau( 188) = (   0.1487347   0.0198400  -0.0805828  )
       189           H   tau( 189) = (  -0.2996941  -0.0316715   0.0810990  )
       190           H   tau( 190) = (  -0.2427405  -0.0815359   0.0965701  )
       191           H   tau( 191) = (   0.0645326   0.1844286   0.0746726  )
       192           H   tau( 192) = (   0.1152537   0.1309035   0.0440232  )

     number of k points=     1  Marzari-Vanderbilt smearing, width (Ry)=  0.0250
                       cart. coord. in units 2pi/alat
        k(    1) = (   0.0000000   0.0000000   0.0000000), wk =   2.0000000

     Dense  grid:   177509 G-vectors     FFT dimensions: (  72,  72,  72)

     Estimated max dynamical RAM per process >      67.80Mb

     Estimated total allocated dynamical RAM >    1898.40Mb

     Initial potential from superposition of free atoms
     Check: negative starting charge=   -0.871165

     starting charge  511.99856, renormalised to  512.00000

     negative rho (up, down):  8.712E-01 0.000E+00
     Starting wfc are  384 randomized atomic wfcs

     total cpu time spent up to now is        0.8 secs

     per-process dynamical memory:    45.9 Mb

     Self-consistent Calculation

     iteration #  1     ecut=    30.00 Ry     beta=0.70
     Davidson diagonalization with overlap
     ethr =  1.00E-02,  avg # of iterations =  8.0

     negative rho (up, down):  2.031E-01 0.000E+00

     total cpu time spent up to now is        9.6 secs

     total energy              =   -1775.73832349 Ry
     Harris-Foulkes estimate   =   -1803.87175287 Ry
     estimated scf accuracy    <      42.51890264 Ry

     iteration #  2     ecut=    30.00 Ry     beta=0.70
     Davidson diagonalization with overlap
     ethr =  8.30E-03,  avg # of iterations =  4.0

     negative rho (up, down):  2.984E-04 0.000E+00

     total cpu time spent up to now is       12.9 secs

     total energy              =   -1742.86338921 Ry
     Harris-Foulkes estimate   =   -1799.14385014 Ry
     estimated scf accuracy    <     178.62447628 Ry

     iteration #  3     ecut=    30.00 Ry     beta=0.70
     Davidson diagonalization with overlap
     ethr =  8.30E-03,  avg # of iterations =  5.0

     total cpu time spent up to now is       17.3 secs

     total energy              =   -1778.29628858 Ry
     Harris-Foulkes estimate   =   -1792.94577736 Ry
     estimated scf accuracy    <      52.68522591 Ry

     iteration #  4     ecut=    30.00 Ry     beta=0.70
     Davidson diagonalization with overlap
     ethr =  8.30E-03,  avg # of iterations =  3.0

     total cpu time spent up to now is       19.1 secs

     total energy              =   -1784.06883233 Ry
     Harris-Foulkes estimate   =   -1787.43321891 Ry
     estimated scf accuracy    <       9.60879186 Ry

     iteration #  5     ecut=    30.00 Ry     beta=0.70
     Davidson diagonalization with overlap
     ethr =  1.88E-03,  avg # of iterations =  4.0

     total cpu time spent up to now is       21.4 secs

     total energy              =   -1784.56245358 Ry
     Harris-Foulkes estimate   =   -1785.38927098 Ry
     estimated scf accuracy    <       4.45211426 Ry

     iteration #  6     ecut=    30.00 Ry     beta=0.70
     Davidson diagonalization with overlap
     ethr =  8.70E-04,  avg # of iterations =  5.0

     total cpu time spent up to now is       23.7 secs

     total energy              =   -1784.47311737 Ry
     Harris-Foulkes estimate   =   -1784.94299881 Ry
     estimated scf accuracy    <       3.50020645 Ry

     iteration #  7     ecut=    30.00 Ry     beta=0.70
     Davidson diagonalization with overlap
     ethr =  6.84E-04,  avg # of iterations =  2.0

     total cpu time spent up to now is       25.1 secs

     total energy              =   -1784.31733280 Ry
     Harris-Foulkes estimate   =   -1784.63854958 Ry
     estimated scf accuracy    <       1.98443248 Ry

     iteration #  8     ecut=    30.00 Ry     beta=0.70
     Davidson diagonalization with overlap
     ethr =  3.88E-04,  avg # of iterations =  5.0

     total cpu time spent up to now is       27.5 secs

     total energy              =   -1784.25269984 Ry
     Harris-Foulkes estimate   =   -1784.44031570 Ry
     estimated scf accuracy    <       0.92127921 Ry

     iteration #  9     ecut=    30.00 Ry     beta=0.70
     Davidson diagonalization with overlap
     ethr =  1.80E-04,  avg # of iterations =  5.0

     total cpu time spent up to now is       29.8 secs

     total energy              =   -1784.27194393 Ry
     Harris-Foulkes estimate   =   -1784.30647880 Ry
     estimated scf accuracy    <       0.20652199 Ry

     iteration # 10     ecut=    30.00 Ry     beta=0.70
     Davidson diagonalization with overlap
     ethr =  4.03E-05,  avg # of iterations =  9.0

     total cpu time spent up to now is       33.5 secs

     total energy              =   -1784.26283094 Ry
     Harris-Foulkes estimate   =   -1784.29236716 Ry
     estimated scf accuracy    <       0.12209043 Ry

     iteration # 11     ecut=    30.00 Ry     beta=0.70
     Davidson diagonalization with overlap
     ethr =  2.38E-05,  avg # of iterations =  5.0

     total cpu time spent up to now is       36.1 secs

     total energy              =   -1784.26952814 Ry
     Harris-Foulkes estimate   =   -1784.28389298 Ry
     estimated scf accuracy    <       0.05709941 Ry

     iteration # 12     ecut=    30.00 Ry     beta=0.70
     Davidson diagonalization with overlap
     ethr =  1.12E-05,  avg # of iterations =  4.0

     total cpu time spent up to now is       38.2 secs

     total energy              =   -1784.27387468 Ry
     Harris-Foulkes estimate   =   -1784.27931725 Ry
     estimated scf accuracy    <       0.01684344 Ry

     iteration # 13     ecut=    30.00 Ry     beta=0.70
     Davidson diagonalization with overlap
     ethr =  3.29E-06,  avg # of iterations =  4.0

     total cpu time spent up to now is       40.5 secs

     total energy              =   -1784.27677557 Ry
     Harris-Foulkes estimate   =   -1784.27857343 Ry
     estimated scf accuracy    <       0.00583314 Ry

     iteration # 14     ecut=    30.00 Ry     beta=0.70
     Davidson diagonalization with overlap
     ethr =  1.14E-06,  avg # of iterations =  3.0

     total cpu time spent up to now is       42.3 secs

     total energy              =   -1784.27727928 Ry
     Harris-Foulkes estimate   =   -1784.27787751 Ry
     estimated scf accuracy    <       0.00224720 Ry

     iteration # 15     ecut=    30.00 Ry     beta=0.70
     Davidson diagonalization with overlap
     ethr =  4.39E-07,  avg # of iterations =  2.0

     total cpu time spent up to now is       43.8 secs

     total energy              =   -1784.27750169 Ry
     Harris-Foulkes estimate   =   -1784.27781181 Ry
     estimated scf accuracy    <       0.00130084 Ry

     iteration # 16     ecut=    30.00 Ry     beta=0.70
     Davidson diagonalization with overlap
     ethr =  2.54E-07,  avg # of iterations =  2.0

     total cpu time spent up to now is       45.2 secs

     total energy              =   -1784.27764433 Ry
     Harris-Foulkes estimate   =   -1784.27772007 Ry
     estimated scf accuracy    <       0.00032882 Ry

     iteration # 17     ecut=    30.00 Ry     beta=0.70
     Davidson diagonalization with overlap
     ethr =  6.42E-08,  avg # of iterations =  2.0

     total cpu time spent up to now is       46.6 secs

     total energy              =   -1784.27765542 Ry
     Harris-Foulkes estimate   =   -1784.27772519 Ry
     estimated scf accuracy    <       0.00035051 Ry

     iteration # 18     ecut=    30.00 Ry     beta=0.70
     Davidson diagonalization with overlap
     ethr =  6.42E-08,  avg # of iterations =  2.0

     total cpu time spent up to now is       48.1 secs

     total energy              =   -1784.27768723 Ry
     Harris-Foulkes estimate   =   -1784.27770393 Ry
     estimated scf accuracy    <       0.00009582 Ry

     iteration # 19     ecut=    30.00 Ry     beta=0.70
     Davidson diagonalization with overlap
     ethr =  1.87E-08,  avg # of iterations =  2.0

     total cpu time spent up to now is       49.5 secs

     total energy              =   -1784.27768988 Ry
     Harris-Foulkes estimate   =   -1784.27771010 Ry
     estimated scf accuracy    <       0.00009518 Ry

     iteration # 20     ecut=    30.00 Ry     beta=0.70
     Davidson diagonalization with overlap
     ethr =  1.86E-08,  avg # of iterations =  2.0

     total cpu time spent up to now is       50.9 secs

     total energy              =   -1784.27769943 Ry
     Harris-Foulkes estimate   =   -1784.27770038 Ry
     estimated scf accuracy    <       0.00000254 Ry

     iteration # 21     ecut=    30.00 Ry     beta=0.70
     Davidson diagonalization with overlap
     ethr =  4.97E-10,  avg # of iterations =  3.0

     total cpu time spent up to now is       53.2 secs

     total energy              =   -1784.27769946 Ry
     Harris-Foulkes estimate   =   -1784.27770110 Ry
     estimated scf accuracy    <       0.00000712 Ry

     iteration # 22     ecut=    30.00 Ry     beta=0.70
     Davidson diagonalization with overlap
     ethr =  4.97E-10,  avg # of iterations =  2.0

     total cpu time spent up to now is       54.7 secs

     total energy              =   -1784.27770048 Ry
     Harris-Foulkes estimate   =   -1784.27770082 Ry
     estimated scf accuracy    <       0.00000237 Ry

     iteration # 23     ecut=    30.00 Ry     beta=0.70
     Davidson diagonalization with overlap
     ethr =  4.63E-10,  avg # of iterations =  2.0

     total cpu time spent up to now is       56.2 secs

     total energy              =   -1784.27770083 Ry
     Harris-Foulkes estimate   =   -1784.27770088 Ry
     estimated scf accuracy    <       0.00000025 Ry

     iteration # 24     ecut=    30.00 Ry     beta=0.70
     Davidson diagonalization with overlap
     ethr =  4.83E-11,  avg # of iterations =  2.0

     total cpu time spent up to now is       57.9 secs

     total energy              =   -1784.27770088 Ry
     Harris-Foulkes estimate   =   -1784.27770090 Ry
     estimated scf accuracy    <       0.00000020 Ry

     iteration # 25     ecut=    30.00 Ry     beta=0.70
     Davidson diagonalization with overlap
     ethr =  3.93E-11,  avg # of iterations =  2.0

     total cpu time spent up to now is       60.0 secs

     total energy              =   -1784.27770090 Ry
     Harris-Foulkes estimate   =   -1784.27770094 Ry
     estimated scf accuracy    <       0.00000019 Ry

     iteration # 26     ecut=    30.00 Ry     beta=0.70
     Davidson diagonalization with overlap
     ethr =  3.80E-11,  avg # of iterations =  2.0

     total cpu time spent up to now is       62.1 secs

     total energy              =   -1784.27770091 Ry
     Harris-Foulkes estimate   =   -1784.27770095 Ry
     estimated scf accuracy    <       0.00000017 Ry

     iteration # 27     ecut=    30.00 Ry     beta=0.70
     Davidson diagonalization with overlap
     ethr =  3.34E-11,  avg # of iterations =  2.0

     total cpu time spent up to now is       64.2 secs

     total energy              =   -1784.27770092 Ry
     Harris-Foulkes estimate   =   -1784.27770095 Ry
     estimated scf accuracy    <       0.00000015 Ry

     iteration # 28     ecut=    30.00 Ry     beta=0.70
     Davidson diagonalization with overlap
     ethr =  2.93E-11,  avg # of iterations =  2.0

     total cpu time spent up to now is       66.3 secs

     total energy              =   -1784.27770094 Ry
     Harris-Foulkes estimate   =   -1784.27770095 Ry
     estimated scf accuracy    <       0.00000011 Ry

     iteration # 29     ecut=    30.00 Ry     beta=0.70
     Davidson diagonalization with overlap
     ethr =  2.16E-11,  avg # of iterations =  2.0

     total cpu time spent up to now is       68.4 secs

     total energy              =   -1784.27770094 Ry
     Harris-Foulkes estimate   =   -1784.27770095 Ry
     estimated scf accuracy    <       0.00000002 Ry

     iteration # 30     ecut=    30.00 Ry     beta=0.70
     Davidson diagonalization with overlap
     ethr =  4.44E-12,  avg # of iterations =  2.0

     total cpu time spent up to now is       69.8 secs

     End of self-consistent calculation

          k = 0.0000 0.0000 0.0000 ( 22119 PWs)   bands (ev):

   -46.3828 -44.4991 -43.3286 -42.4833 -41.4384 -40.5736 -40.3725 -40.1380
   -39.7565 -38.5797 -38.2785 -37.6481 -37.3228 -37.0681 -36.3943 -36.0737
   -35.0306 -34.9991 -34.8630 -34.3315 -34.2660 -33.9599 -33.7679 -33.4091
   -33.3744 -33.2215 -33.0052 -32.4340 -32.3524 -32.2102 -32.0115 -31.7399
   -31.6176 -31.3526 -30.8274 -30.7459 -30.6977 -30.5621 -30.4300 -30.2497
   -29.9993 -29.7071 -29.5975 -29.3458 -29.1253 -28.9985 -28.9000 -28.7829
   -28.6911 -28.5244 -28.1271 -28.1043 -27.8767 -27.6192 -27.4747 -27.3040
   -27.1220 -27.0579 -27.0223 -26.8419 -26.7922 -26.6880 -26.6185 -26.5504
   -26.1782 -25.7610 -24.8332 -24.4236 -23.9672 -23.5617 -23.2367 -22.9472
   -22.4214 -21.9861 -21.7768 -21.7252 -21.6066 -21.1963 -21.1224 -20.8028
   -20.6921 -20.5055 -20.3800 -20.0450 -19.8363 -19.7164 -19.3157 -19.1638
   -18.8442 -18.6801 -18.5218 -18.2445 -17.9430 -17.8071 -17.7291 -17.4787
   -17.3804 -17.3329 -17.0729 -16.8740 -16.7736 -16.6515 -16.4412 -16.3440
   -16.2150 -16.1260 -15.9355 -15.8250 -15.6570 -15.4064 -15.3193 -15.2360
   -15.0975 -14.8913 -14.8485 -14.6843 -14.5892 -14.3764 -14.0931 -14.0055
   -13.9394 -13.7657 -13.6800 -13.6525 -13.2672 -13.2002 -13.0453 -12.9765
   -12.8376 -12.8120 -12.3733 -12.2669 -12.2107 -12.1381 -11.9453 -11.8600
   -11.5891 -11.2269 -11.0571 -10.8301 -10.7088 -10.3443 -10.2402 -10.0742
    -9.7636  -9.5986  -9.3096  -9.1151  -8.9116  -8.8441  -8.6656  -8.4335
    -8.3418  -8.1924  -8.0259  -7.8889  -7.6409  -7.5218  -7.4377  -7.3006
    -7.0914  -7.0667  -6.8919  -6.7895  -6.6925  -6.6546  -6.3932  -6.3229
    -6.1291  -6.0273  -5.9345  -5.9052  -5.8503  -5.7048  -5.6560  -5.5250
    -5.4979  -5.3470  -5.2432  -5.2306  -5.0787  -4.9643  -4.8114  -4.6431
    -4.4008  -4.3313  -4.3190  -4.2474  -4.1022  -3.9519  -3.8922  -3.7657
    -3.6676  -3.5099  -3.4701  -3.2704  -3.1357  -2.9162  -2.8534  -2.7856
    -2.6322  -2.5547  -2.4326  -2.2004  -2.1312  -2.0347  -1.8847  -1.8319
    -1.7648  -1.7397  -1.5089  -1.3906  -1.3206  -1.1333  -1.0764  -0.9518
    -0.8450  -0.6369  -0.5561  -0.2802  -0.2161  -0.1699   0.0079   0.0401
     0.2615   0.6528   0.8841   1.1130   1.1890   1.3471   1.5200   1.6453
     1.7227   1.8427   2.0845   2.1941   2.3867   2.4497   2.6184   2.6643
     2.8897   3.3230   3.3536   3.5156   3.6291   4.1207   4.3453   4.7073
     4.8828   5.0697   5.1949   5.6172   5.6496   5.7847   5.8612   6.1526
     6.2498   6.4174   6.6865   6.7183   7.0109   7.2609   7.4171   7.5214
     7.5813   7.6692   7.7569   7.9018   8.1222   8.5048   8.5414   8.7986
     8.9625   9.0458   9.2516   9.3337   9.5243   9.5548   9.7747   9.8152
     9.9743  10.0405  10.3339  10.4238  10.5482  10.5768  10.6934  10.7587
    10.8188  10.8985  11.0057  11.1842  11.2770  11.3390  11.4218  11.4909
    11.5949  11.6573  11.6678  11.7314  11.8216  11.8856  11.9289  12.0186
    12.1645  12.2175  12.2572

     the Fermi energy is     6.1730 ev

!    total energy              =   -1784.27770095 Ry
     Harris-Foulkes estimate   =   -1784.27770095 Ry
     estimated scf accuracy    <          6.0E-09 Ry

     The total energy is the sum of the following terms:

     one-electron contribution =  -16216.95228640 Ry
     hartree contribution      =    8250.91752465 Ry
     xc contribution           =    -638.78315078 Ry
     ewald contribution        =    6820.53297895 Ry
     smearing contrib. (-TS)   =       0.00723263 Ry

     convergence has been achieved in  30 iterations

     Writing output data file pwscf.save
 
     init_run     :      0.56s CPU      0.62s WALL (       1 calls)
     electrons    :     66.85s CPU     69.12s WALL (       1 calls)

     Called by init_run:
     wfcinit      :      0.46s CPU      0.52s WALL (       1 calls)
     potinit      :      0.02s CPU      0.02s WALL (       1 calls)

     Called by electrons:
     c_bands      :     63.31s CPU     65.17s WALL (      30 calls)
     sum_band     :      2.95s CPU      3.07s WALL (      30 calls)
     v_of_rho     :      0.28s CPU      0.29s WALL (      31 calls)
     mix_rho      :      0.21s CPU      0.42s WALL (      30 calls)

     Called by c_bands:
     init_us_2    :      0.08s CPU      0.08s WALL (      61 calls)
     cegterg      :     62.99s CPU     64.73s WALL (      30 calls)

     Called by sum_band:

     Called by *egterg:
     h_psi        :     13.04s CPU     13.37s WALL (     130 calls)
     g_psi        :      0.10s CPU      0.10s WALL (      99 calls)
     cdiaghg      :     36.91s CPU     36.95s WALL (     129 calls)

     Called by h_psi:
     h_psi:pot    :     12.75s CPU     13.08s WALL (     130 calls)
     h_psi:calbec :      0.49s CPU      0.50s WALL (     130 calls)
     vloc_psi     :     11.89s CPU     12.20s WALL (     130 calls)
     add_vuspsi   :      0.36s CPU      0.37s WALL (     130 calls)

     General routines
     calbec       :      0.49s CPU      0.50s WALL (     130 calls)
     fft          :      0.15s CPU      0.16s WALL (     340 calls)
     fftw         :     13.51s CPU     13.91s WALL (   51244 calls)
     davcio       :      0.03s CPU      0.20s WALL (     508 calls)
 
     Parallel routines
     fft_scatter  :      5.76s CPU      6.03s WALL (   51584 calls)
 
     PWSCF        :  1m 7.56s CPU     1m10.10s WALL

 
   This run was terminated on:   5:35:14   2Feb2018            

=------------------------------------------------------------------------------=
   JOB DONE.
=------------------------------------------------------------------------------=
