
     Program PWSCF v.6.0 (svn rev. 13079) starts on  2Feb2018 at 13:59:34 

     This program is part of the open-source Quantum ESPRESSO suite
     for quantum simulation of materials; please cite
         "P. Giannozzi et al., J. Phys.:Condens. Matter 21 395502 (2009);
          URL http://www.quantum-espresso.org", 
     in publications or presentations arising from this work. More details at
     http://www.quantum-espresso.org/quote

     Parallel version (MPI), running on    28 processors
     R & G space division:  proc/nbgrp/npool/nimage =      28
     Reading input from input/scf-bigwater-1/540.in
Warning: card &IONS ignored
Warning: card     POT_EXTRAPOLATION='SECOND-ORDER' ignored
Warning: card     WFC_EXTRAPOLATION='SECOND-ORDER' ignored
Warning: card     ION_TEMPERATURE = 'ANDERSEN' ignored
Warning: card     TEMPW = 1000 ignored
Warning: card / ignored

     Current dimensions of program PWSCF are:
     Max number of different atomic species (ntypx) = 10
     Max number of k-points (npk) =  40000
     Max angular momentum in pseudopotentials (lmaxx) =  3

     Subspace diagonalization in iterative solution of the eigenvalue problem:
     a serial algorithm will be used

 
     Parallelization info
     --------------------
     sticks:   dense  smooth     PW     G-vecs:    dense   smooth      PW
     Min         136     136     33                 6338     6338     787
     Max         137     137     34                 6341     6341     792
     Sum        3809    3809    949               177509   177509   22119
 


     bravais-lattice index     =            1
     lattice parameter (alat)  =      20.0000  a.u.
     unit-cell volume          =    8000.0000 (a.u.)^3
     number of atoms/cell      =          192
     number of atomic types    =            2
     number of electrons       =       512.00
     number of Kohn-Sham states=          307
     kinetic-energy cutoff     =      30.0000  Ry
     charge density cutoff     =     120.0000  Ry
     convergence threshold     =      1.0E-08
     mixing beta               =       0.7000
     number of iterations used =            8  plain     mixing
     Exchange-correlation      = BLYP ( 1  3  1  3 0 0)

     celldm(1)=  20.000000  celldm(2)=   0.000000  celldm(3)=   0.000000
     celldm(4)=   0.000000  celldm(5)=   0.000000  celldm(6)=   0.000000

     crystal axes: (cart. coord. in units of alat)
               a(1) = (   1.000000   0.000000   0.000000 )  
               a(2) = (   0.000000   1.000000   0.000000 )  
               a(3) = (   0.000000   0.000000   1.000000 )  

     reciprocal axes: (cart. coord. in units 2 pi/alat)
               b(1) = (  1.000000  0.000000  0.000000 )  
               b(2) = (  0.000000  1.000000  0.000000 )  
               b(3) = (  0.000000  0.000000  1.000000 )  


     PseudoPot. # 1 for  H read from file:
     ./H.blyp-hgh.UPF
     MD5 check sum: c576e69559cde411e611be972c763230
     Pseudo is Norm-conserving, Zval =  1.0
     Generated in analytical, separable form
     Using radial grid of  929 points,  0 beta functions with: 

     PseudoPot. # 2 for  O read from file:
     ./O.blyp-hgh.UPF
     MD5 check sum: d0b7156309aa9befef28faac7bc56342
     Pseudo is Norm-conserving, Zval =  6.0
     Generated in analytical, separable form
     Using radial grid of 1095 points,  1 beta functions with: 
                l(1) =   0

     atomic species   valence    mass     pseudopotential
        H              1.00     1.01000      H( 1.00)
        O              6.00    16.00000      O( 1.00)

     No symmetry found



   Cartesian axes

     site n.     atom                  positions (alat units)
         1           O   tau(   1) = (  -0.2628792  -0.0634509  -0.0813495  )
         2           O   tau(   2) = (   0.1681796  -0.1220158   0.2885619  )
         3           O   tau(   3) = (  -0.2747485   0.3025199  -0.2691570  )
         4           O   tau(   4) = (   0.0257144   0.1853117  -0.0505359  )
         5           O   tau(   5) = (  -0.2454038   0.0517061   0.1859732  )
         6           O   tau(   6) = (  -0.0054409   0.3089593   0.2938320  )
         7           O   tau(   7) = (  -0.0323404  -0.2691943  -0.1368063  )
         8           O   tau(   8) = (   0.1216396   0.0330975   0.2190819  )
         9           O   tau(   9) = (  -0.1412337  -0.2847493   0.2918644  )
        10           O   tau(  10) = (   0.1318827  -0.1246789   0.1444799  )
        11           O   tau(  11) = (   0.1289075  -0.3243415   0.1487368  )
        12           O   tau(  12) = (  -0.1911558  -0.1818119   0.2262128  )
        13           O   tau(  13) = (  -0.2309032  -0.3113445   0.0279561  )
        14           O   tau(  14) = (  -0.1720316  -0.2630786  -0.1892324  )
        15           O   tau(  15) = (   0.1405307  -0.1628191  -0.1126178  )
        16           O   tau(  16) = (  -0.1008575   0.1186521  -0.0275888  )
        17           O   tau(  17) = (  -0.0700240  -0.1387400   0.1312568  )
        18           O   tau(  18) = (   0.0183181  -0.2249379   0.1793669  )
        19           O   tau(  19) = (   0.2392977  -0.2280206  -0.2389897  )
        20           O   tau(  20) = (   0.2501388   0.2539864   0.1124639  )
        21           O   tau(  21) = (   0.2589864  -0.1732168   0.1762752  )
        22           O   tau(  22) = (  -0.1470050  -0.1307608  -0.1911710  )
        23           O   tau(  23) = (  -0.0598065   0.1448707  -0.2307902  )
        24           O   tau(  24) = (   0.2081920   0.1075365   0.1335056  )
        25           O   tau(  25) = (   0.1405907   0.0697494  -0.1910436  )
        26           O   tau(  26) = (  -0.2070600   0.1304433  -0.3012465  )
        27           O   tau(  27) = (   0.2476009  -0.2859244  -0.0419580  )
        28           O   tau(  28) = (   0.0844978  -0.0166919  -0.2729223  )
        29           O   tau(  29) = (  -0.0870168   0.0049303  -0.2589202  )
        30           O   tau(  30) = (   0.0623289  -0.0346141   0.0594788  )
        31           O   tau(  31) = (   0.2685733  -0.0889305  -0.1802610  )
        32           O   tau(  32) = (   0.2408732  -0.0108881  -0.0171206  )
        33           O   tau(  33) = (   0.0132086   0.2239404   0.1846335  )
        34           O   tau(  34) = (  -0.2369057   0.0283963  -0.2045792  )
        35           O   tau(  35) = (   0.0494219  -0.1921806  -0.0126143  )
        36           O   tau(  36) = (   0.2235222   0.2143085  -0.2746231  )
        37           O   tau(  37) = (   0.1203839   0.2959145   0.2752458  )
        38           O   tau(  38) = (  -0.2833658   0.2529721  -0.0862583  )
        39           O   tau(  39) = (  -0.0142064   0.0569560  -0.1149644  )
        40           O   tau(  40) = (  -0.1828170  -0.1978407  -0.0458877  )
        41           O   tau(  41) = (  -0.1509477   0.2801850   0.1503864  )
        42           O   tau(  42) = (  -0.1027503   0.1519924   0.2354299  )
        43           O   tau(  43) = (  -0.1063682  -0.0704580  -0.0324154  )
        44           O   tau(  44) = (  -0.0705396  -0.0732692   0.2633809  )
        45           O   tau(  45) = (   0.0266590   0.0977993   0.2823323  )
        46           O   tau(  46) = (  -0.2333798   0.1653869   0.0645391  )
        47           O   tau(  47) = (   0.1602316   0.2118717  -0.0710167  )
        48           O   tau(  48) = (   0.1257405  -0.2862545  -0.2012412  )
        49           O   tau(  49) = (  -0.1436317   0.2173142  -0.1500512  )
        50           O   tau(  50) = (   0.2208395   0.0323497   0.3144655  )
        51           O   tau(  51) = (  -0.1203104   0.0249885   0.1033150  )
        52           O   tau(  52) = (  -0.0059282  -0.0982125  -0.1648132  )
        53           O   tau(  53) = (   0.0021859  -0.1713938  -0.2836608  )
        54           O   tau(  54) = (   0.3073600  -0.2968805   0.2221420  )
        55           O   tau(  55) = (   0.1980411  -0.1692482   0.0144913  )
        56           O   tau(  56) = (   0.2610967  -0.0392072   0.1328073  )
        57           O   tau(  57) = (   0.0869250   0.1934374  -0.2172823  )
        58           O   tau(  58) = (  -0.0734226  -0.3043940  -0.0135763  )
        59           O   tau(  59) = (  -0.2596363  -0.0896902  -0.2997256  )
        60           O   tau(  60) = (  -0.2318730   0.0568410  -0.0491837  )
        61           O   tau(  61) = (   0.2458375   0.1287232  -0.1495051  )
        62           O   tau(  62) = (   0.1120159  -0.0225245  -0.0642324  )
        63           O   tau(  63) = (  -0.2428703  -0.1095819   0.0464316  )
        64           O   tau(  64) = (   0.0919918   0.1288233   0.0624311  )
        65           H   tau(  65) = (  -0.2214834  -0.0831964  -0.0994568  )
        66           H   tau(  66) = (  -0.2494804  -0.0155575  -0.0748493  )
        67           H   tau(  67) = (   0.2134904  -0.1103449   0.2743330  )
        68           H   tau(  68) = (   0.1415917  -0.1177272   0.2472102  )
        69           H   tau(  69) = (  -0.3082994   0.2685316  -0.2810512  )
        70           H   tau(  70) = (  -0.2784339   0.3112551  -0.2213179  )
        71           H   tau(  71) = (   0.0345948   0.1638164  -0.0930356  )
        72           H   tau(  72) = (   0.0643396   0.2148941  -0.0450608  )
        73           H   tau(  73) = (  -0.2648401   0.0074848   0.1751654  )
        74           H   tau(  74) = (  -0.2579086   0.0508568   0.2334922  )
        75           H   tau(  75) = (  -0.0079582   0.3424268   0.2565809  )
        76           H   tau(  76) = (   0.0448372   0.3044132   0.2968745  )
        77           H   tau(  77) = (  -0.0700125  -0.2710555  -0.1059004  )
        78           H   tau(  78) = (  -0.0254950  -0.3144538  -0.1543238  )
        79           H   tau(  79) = (   0.1351958   0.0632777   0.1825729  )
        80           H   tau(  80) = (   0.0857931   0.0551937   0.2458834  )
        81           H   tau(  81) = (  -0.1667830  -0.2884913   0.3345555  )
        82           H   tau(  82) = (  -0.0950808  -0.2935794   0.3075734  )
        83           H   tau(  83) = (   0.1257089  -0.0784957   0.1288613  )
        84           H   tau(  84) = (   0.1525651  -0.1482192   0.1057157  )
        85           H   tau(  85) = (   0.1675482  -0.3295099   0.1180486  )
        86           H   tau(  86) = (   0.0872617  -0.3280508   0.1238496  )
        87           H   tau(  87) = (  -0.1698649  -0.2186175   0.2521945  )
        88           H   tau(  88) = (  -0.2284663  -0.1766617   0.2567860  )
        89           H   tau(  89) = (  -0.2307976  -0.3589056   0.0391722  )
        90           H   tau(  90) = (  -0.2250334  -0.3034656  -0.0190713  )
        91           H   tau(  91) = (  -0.1815975  -0.2152813  -0.1836026  )
        92           H   tau(  92) = (  -0.1356111  -0.2720801  -0.1585819  )
        93           H   tau(  93) = (   0.1303048  -0.1154172  -0.1200876  )
        94           H   tau(  94) = (   0.1145582  -0.1783212  -0.0729830  )
        95           H   tau(  95) = (  -0.1167260   0.1457138  -0.0644783  )
        96           H   tau(  96) = (  -0.0871747   0.1393498   0.0136631  )
        97           H   tau(  97) = (  -0.0556222  -0.1660880   0.0933878  )
        98           H   tau(  98) = (  -0.0530526  -0.0952305   0.1156965  )
        99           H   tau(  99) = (   0.0639774  -0.2109539   0.1886823  )
       100           H   tau( 100) = (  -0.0088126  -0.1839524   0.1834838  )
       101           H   tau( 101) = (   0.2544286  -0.2553105  -0.2767122  )
       102           H   tau( 102) = (   0.2605412  -0.1862901  -0.2527353  )
       103           H   tau( 103) = (   0.2852696   0.2615888   0.1479237  )
       104           H   tau( 104) = (   0.2650079   0.2277508   0.0736970  )
       105           H   tau( 105) = (   0.2721699  -0.1385019   0.1441169  )
       106           H   tau( 106) = (   0.2116293  -0.1600502   0.1808428  )
       107           H   tau( 107) = (  -0.1041822  -0.1307205  -0.1671776  )
       108           H   tau( 108) = (  -0.1421673  -0.1036728  -0.2313370  )
       109           H   tau( 109) = (  -0.0115731   0.1418736  -0.2216370  )
       110           H   tau( 110) = (  -0.0706113   0.1015943  -0.2508059  )
       111           H   tau( 111) = (   0.2331218   0.1399489   0.1600894  )
       112           H   tau( 112) = (   0.1783128   0.1332375   0.1037265  )
       113           H   tau( 113) = (   0.1172808   0.0406917  -0.2252011  )
       114           H   tau( 114) = (   0.1205307   0.1150390  -0.1945593  )
       115           H   tau( 115) = (  -0.2043909   0.1118453  -0.2562799  )
       116           H   tau( 116) = (  -0.1669327   0.1156983  -0.3241758  )
       117           H   tau( 117) = (   0.2726875  -0.2973419  -0.0016567  )
       118           H   tau( 118) = (   0.2801089  -0.2976292  -0.0769136  )
       119           H   tau( 119) = (   0.1157712  -0.0502559  -0.2916952  )
       120           H   tau( 120) = (   0.0460641  -0.0100883  -0.3017034  )
       121           H   tau( 121) = (  -0.0750031  -0.0085121  -0.3051763  )
       122           H   tau( 122) = (  -0.1323168  -0.0135386  -0.2558113  )
       123           H   tau( 123) = (   0.0644655   0.0140521   0.0669378  )
       124           H   tau( 124) = (   0.0850849  -0.0346176   0.0149803  )
       125           H   tau( 125) = (   0.2334814  -0.1078293  -0.1526461  )
       126           H   tau( 126) = (   0.3039375  -0.0797719  -0.1457966  )
       127           H   tau( 127) = (   0.2436165   0.0299831  -0.0437702  )
       128           H   tau( 128) = (   0.2749136  -0.0404566  -0.0355576  )
       129           H   tau( 129) = (  -0.0012219   0.2478448   0.2258506  )
       130           H   tau( 130) = (  -0.0288927   0.2245779   0.1599627  )
       131           H   tau( 131) = (  -0.1939494   0.0478281  -0.1921894  )
       132           H   tau( 132) = (  -0.2622030   0.0429673  -0.1656195  )
       133           H   tau( 133) = (   0.0236586  -0.2145434  -0.0480928  )
       134           H   tau( 134) = (   0.0381117  -0.1451402  -0.0219648  )
       135           H   tau( 135) = (   0.1901716   0.2505255  -0.2797799  )
       136           H   tau( 136) = (   0.2169133   0.1873469  -0.3152867  )
       137           H   tau( 137) = (   0.1131505   0.2778742   0.2288163  )
       138           H   tau( 138) = (   0.1262563   0.3429863   0.2631204  )
       139           H   tau( 139) = (  -0.2918103   0.2082032  -0.1048116  )
       140           H   tau( 140) = (  -0.2437937   0.2634663  -0.1136287  )
       141           H   tau( 141) = (  -0.0319597   0.0595495  -0.0697019  )
       142           H   tau( 142) = (  -0.0033308   0.0101531  -0.1261930  )
       143           H   tau( 143) = (  -0.1482031  -0.2243218  -0.0231291  )
       144           H   tau( 144) = (  -0.2192214  -0.1887594  -0.0152693  )
       145           H   tau( 145) = (  -0.1966662   0.2879941   0.1354491  )
       146           H   tau( 146) = (  -0.1490768   0.3018433   0.1940514  )
       147           H   tau( 147) = (  -0.1470838   0.1563033   0.2154394  )
       148           H   tau( 148) = (  -0.1000475   0.1827783   0.2733517  )
       149           H   tau( 149) = (  -0.1317454  -0.1108511  -0.0451055  )
       150           H   tau( 150) = (  -0.1014727  -0.0808266   0.0149511  )
       151           H   tau( 151) = (  -0.1068344  -0.1019227   0.2463114  )
       152           H   tau( 152) = (  -0.0392482  -0.1034496   0.2876438  )
       153           H   tau( 153) = (  -0.0161838   0.0762734   0.2740174  )
       154           H   tau( 154) = (   0.0362799   0.1297534   0.2460825  )
       155           H   tau( 155) = (  -0.2490667   0.1456289   0.1065115  )
       156           H   tau( 156) = (  -0.1953960   0.1388112   0.0497201  )
       157           H   tau( 157) = (   0.1871577   0.2495147  -0.0541741  )
       158           H   tau( 158) = (   0.1931521   0.1771144  -0.0843434  )
       159           H   tau( 159) = (   0.1501229  -0.2662035  -0.2384978  )
       160           H   tau( 160) = (   0.1344390  -0.2546174  -0.1645863  )
       161           H   tau( 161) = (  -0.1337206   0.1722097  -0.1682816  )
       162           H   tau( 162) = (  -0.1118197   0.2187047  -0.1133342  )
       163           H   tau( 163) = (   0.2065300   0.0365231   0.3603184  )
       164           H   tau( 164) = (   0.1810779   0.0368901   0.2848532  )
       165           H   tau( 165) = (  -0.0741118   0.0343081   0.1176916  )
       166           H   tau( 166) = (  -0.1328791   0.0034112   0.1462131  )
       167           H   tau( 167) = (  -0.0312272  -0.0639575  -0.1904392  )
       168           H   tau( 168) = (   0.0025957  -0.1315343  -0.2008049  )
       169           H   tau( 169) = (  -0.0322519  -0.2068643  -0.2823496  )
       170           H   tau( 170) = (   0.0430914  -0.1971942  -0.2781524  )
       171           H   tau( 171) = (   0.3279077  -0.2857662   0.2651547  )
       172           H   tau( 172) = (   0.3051893  -0.2557032   0.1953479  )
       173           H   tau( 173) = (   0.2429588  -0.1846044   0.0248173  )
       174           H   tau( 174) = (   0.1976799  -0.1668661  -0.0346940  )
       175           H   tau( 175) = (   0.2462776  -0.0079286   0.0974819  )
       176           H   tau( 176) = (   0.2229291  -0.0371012   0.1634928  )
       177           H   tau( 177) = (   0.0844848   0.1948571  -0.2661665  )
       178           H   tau( 178) = (   0.1015291   0.2408918  -0.2051774  )
       179           H   tau( 179) = (  -0.0254976  -0.3128009  -0.0111601  )
       180           H   tau( 180) = (  -0.0861212  -0.2859861   0.0297343  )
       181           H   tau( 181) = (  -0.2949883  -0.0865757  -0.2656817  )
       182           H   tau( 182) = (  -0.2525506  -0.1369258  -0.3054341  )
       183           H   tau( 183) = (  -0.1907746   0.0543376  -0.0227087  )
       184           H   tau( 184) = (  -0.2630622   0.0880103  -0.0286081  )
       185           H   tau( 185) = (   0.2513211   0.1644465  -0.1828169  )
       186           H   tau( 186) = (   0.2015557   0.1101937  -0.1618643  )
       187           H   tau( 187) = (   0.1589919  -0.0222887  -0.0478601  )
       188           H   tau( 188) = (   0.1170338   0.0020871  -0.1065927  )
       189           H   tau( 189) = (  -0.2765997  -0.0765950   0.0591220  )
       190           H   tau( 190) = (  -0.2521646  -0.1473347   0.0758880  )
       191           H   tau( 191) = (   0.0555357   0.1415887   0.0916040  )
       192           H   tau( 192) = (   0.0784950   0.1421885   0.0172612  )

     number of k points=     1  Marzari-Vanderbilt smearing, width (Ry)=  0.0250
                       cart. coord. in units 2pi/alat
        k(    1) = (   0.0000000   0.0000000   0.0000000), wk =   2.0000000

     Dense  grid:   177509 G-vectors     FFT dimensions: (  72,  72,  72)

     Estimated max dynamical RAM per process >      67.80Mb

     Estimated total allocated dynamical RAM >    1898.40Mb

     Initial potential from superposition of free atoms
     Check: negative starting charge=   -0.794111

     starting charge  511.99856, renormalised to  512.00000

     negative rho (up, down):  7.941E-01 0.000E+00
     Starting wfc are  384 randomized atomic wfcs

     total cpu time spent up to now is        0.8 secs

     per-process dynamical memory:    45.9 Mb

     Self-consistent Calculation

     iteration #  1     ecut=    30.00 Ry     beta=0.70
     Davidson diagonalization with overlap
     ethr =  1.00E-02,  avg # of iterations =  8.0

     negative rho (up, down):  1.904E-01 0.000E+00

     total cpu time spent up to now is        9.1 secs

     total energy              =   -1792.58070077 Ry
     Harris-Foulkes estimate   =   -1820.47811662 Ry
     estimated scf accuracy    <      42.82831973 Ry

     iteration #  2     ecut=    30.00 Ry     beta=0.70
     Davidson diagonalization with overlap
     ethr =  8.36E-03,  avg # of iterations =  4.0

     negative rho (up, down):  7.035E-04 0.000E+00

     total cpu time spent up to now is       12.2 secs

     total energy              =   -1773.42783700 Ry
     Harris-Foulkes estimate   =   -1807.22373547 Ry
     estimated scf accuracy    <      76.60352502 Ry

     iteration #  3     ecut=    30.00 Ry     beta=0.70
     Davidson diagonalization with overlap
     ethr =  8.36E-03,  avg # of iterations =  5.0

     total cpu time spent up to now is       15.9 secs

     total energy              =   -1797.50650958 Ry
     Harris-Foulkes estimate   =   -1807.69030463 Ry
     estimated scf accuracy    <      29.71259540 Ry

     iteration #  4     ecut=    30.00 Ry     beta=0.70
     Davidson diagonalization with overlap
     ethr =  5.80E-03,  avg # of iterations =  3.0

     total cpu time spent up to now is       17.8 secs

     total energy              =   -1800.70378650 Ry
     Harris-Foulkes estimate   =   -1802.59562399 Ry
     estimated scf accuracy    <       6.29016051 Ry

     iteration #  5     ecut=    30.00 Ry     beta=0.70
     Davidson diagonalization with overlap
     ethr =  1.23E-03,  avg # of iterations =  5.0

     total cpu time spent up to now is       20.3 secs

     total energy              =   -1800.34787371 Ry
     Harris-Foulkes estimate   =   -1801.03146832 Ry
     estimated scf accuracy    <       2.63064185 Ry

     iteration #  6     ecut=    30.00 Ry     beta=0.70
     Davidson diagonalization with overlap
     ethr =  5.14E-04,  avg # of iterations =  6.0

     total cpu time spent up to now is       23.0 secs

     total energy              =   -1800.31872593 Ry
     Harris-Foulkes estimate   =   -1800.45324544 Ry
     estimated scf accuracy    <       0.83972447 Ry

     iteration #  7     ecut=    30.00 Ry     beta=0.70
     Davidson diagonalization with overlap
     ethr =  1.64E-04,  avg # of iterations =  3.0

     total cpu time spent up to now is       24.7 secs

     total energy              =   -1800.10086658 Ry
     Harris-Foulkes estimate   =   -1800.35770514 Ry
     estimated scf accuracy    <       0.74311496 Ry

     iteration #  8     ecut=    30.00 Ry     beta=0.70
     Davidson diagonalization with overlap
     ethr =  1.45E-04,  avg # of iterations =  6.0

     total cpu time spent up to now is       27.8 secs

     total energy              =   -1800.17739944 Ry
     Harris-Foulkes estimate   =   -1800.25337949 Ry
     estimated scf accuracy    <       0.59113534 Ry

     iteration #  9     ecut=    30.00 Ry     beta=0.70
     Davidson diagonalization with overlap
     ethr =  1.15E-04,  avg # of iterations =  2.0

     total cpu time spent up to now is       29.2 secs

     total energy              =   -1800.19365306 Ry
     Harris-Foulkes estimate   =   -1800.21292680 Ry
     estimated scf accuracy    <       0.13262389 Ry

     iteration # 10     ecut=    30.00 Ry     beta=0.70
     Davidson diagonalization with overlap
     ethr =  2.59E-05,  avg # of iterations =  5.0

     total cpu time spent up to now is       31.5 secs

     total energy              =   -1800.19630193 Ry
     Harris-Foulkes estimate   =   -1800.20490278 Ry
     estimated scf accuracy    <       0.03080650 Ry

     iteration # 11     ecut=    30.00 Ry     beta=0.70
     Davidson diagonalization with overlap
     ethr =  6.02E-06,  avg # of iterations =  7.0

     total cpu time spent up to now is       34.7 secs

     total energy              =   -1800.19838022 Ry
     Harris-Foulkes estimate   =   -1800.20667602 Ry
     estimated scf accuracy    <       0.11127457 Ry

     iteration # 12     ecut=    30.00 Ry     beta=0.70
     Davidson diagonalization with overlap
     ethr =  6.02E-06,  avg # of iterations =  3.0

     total cpu time spent up to now is       36.4 secs

     total energy              =   -1800.20150601 Ry
     Harris-Foulkes estimate   =   -1800.20269199 Ry
     estimated scf accuracy    <       0.00755946 Ry

     iteration # 13     ecut=    30.00 Ry     beta=0.70
     Davidson diagonalization with overlap
     ethr =  1.48E-06,  avg # of iterations =  4.0

     total cpu time spent up to now is       38.5 secs

     total energy              =   -1800.20204115 Ry
     Harris-Foulkes estimate   =   -1800.20217533 Ry
     estimated scf accuracy    <       0.00050441 Ry

     iteration # 14     ecut=    30.00 Ry     beta=0.70
     Davidson diagonalization with overlap
     ethr =  9.85E-08,  avg # of iterations =  2.0

     total cpu time spent up to now is       40.0 secs

     total energy              =   -1800.20210087 Ry
     Harris-Foulkes estimate   =   -1800.20217487 Ry
     estimated scf accuracy    <       0.00049892 Ry

     iteration # 15     ecut=    30.00 Ry     beta=0.70
     Davidson diagonalization with overlap
     ethr =  9.74E-08,  avg # of iterations =  2.0

     total cpu time spent up to now is       41.4 secs

     total energy              =   -1800.20213907 Ry
     Harris-Foulkes estimate   =   -1800.20215013 Ry
     estimated scf accuracy    <       0.00005169 Ry

     iteration # 16     ecut=    30.00 Ry     beta=0.70
     Davidson diagonalization with overlap
     ethr =  1.01E-08,  avg # of iterations =  2.0

     total cpu time spent up to now is       42.8 secs

     total energy              =   -1800.20214681 Ry
     Harris-Foulkes estimate   =   -1800.20214775 Ry
     estimated scf accuracy    <       0.00000638 Ry

     iteration # 17     ecut=    30.00 Ry     beta=0.70
     Davidson diagonalization with overlap
     ethr =  1.25E-09,  avg # of iterations =  2.0

     total cpu time spent up to now is       44.4 secs

     total energy              =   -1800.20214784 Ry
     Harris-Foulkes estimate   =   -1800.20214803 Ry
     estimated scf accuracy    <       0.00000175 Ry

     iteration # 18     ecut=    30.00 Ry     beta=0.70
     Davidson diagonalization with overlap
     ethr =  3.42E-10,  avg # of iterations =  3.0

     total cpu time spent up to now is       46.2 secs

     total energy              =   -1800.20214817 Ry
     Harris-Foulkes estimate   =   -1800.20214815 Ry
     estimated scf accuracy    <       0.00000015 Ry

     iteration # 19     ecut=    30.00 Ry     beta=0.70
     Davidson diagonalization with overlap
     ethr =  2.94E-11,  avg # of iterations =  3.0

     total cpu time spent up to now is       48.2 secs

     total energy              =   -1800.20214822 Ry
     Harris-Foulkes estimate   =   -1800.20214820 Ry
     estimated scf accuracy    <       0.00000001 Ry

     iteration # 20     ecut=    30.00 Ry     beta=0.70
     Davidson diagonalization with overlap
     ethr =  2.33E-12,  avg # of iterations =  3.0

     total cpu time spent up to now is       50.4 secs

     End of self-consistent calculation

          k = 0.0000 0.0000 0.0000 ( 22119 PWs)   bands (ev):

   -40.4805 -39.7008 -39.5396 -39.4554 -38.4338 -38.0131 -37.8534 -37.0189
   -36.6331 -36.4162 -35.6425 -35.5437 -35.0884 -35.0082 -33.9812 -33.7538
   -33.4840 -33.2871 -33.1931 -32.8287 -32.7476 -32.3409 -32.2500 -32.0820
   -31.7067 -31.6564 -31.5309 -30.9810 -30.5547 -30.2764 -30.2070 -30.1227
   -29.9587 -29.7309 -29.6381 -29.2356 -29.0490 -28.9937 -28.8859 -28.7227
   -28.5451 -28.4581 -28.3626 -28.1257 -27.8856 -27.8099 -27.6759 -27.4399
   -27.2620 -27.1206 -27.0529 -26.9340 -26.7005 -26.5993 -26.4224 -26.3429
   -26.2711 -26.1879 -25.9968 -25.7889 -25.4512 -25.2574 -24.8952 -24.5502
   -21.9657 -21.3536 -21.0382 -20.6476 -20.2875 -20.1541 -19.9046 -19.5058
   -19.1573 -18.9870 -18.8187 -18.7125 -18.5864 -18.4170 -18.2783 -18.1986
   -17.8170 -17.6452 -17.5492 -17.4549 -17.3123 -17.0999 -16.9747 -16.7465
   -16.5655 -16.5184 -16.3332 -16.1816 -16.0617 -16.0068 -15.7877 -15.6411
   -15.5450 -15.4722 -15.3845 -15.3132 -15.2974 -15.0078 -14.9050 -14.7323
   -14.6036 -14.5226 -14.4515 -14.2285 -14.0929 -14.0343 -14.0024 -13.8476
   -13.8237 -13.6476 -13.5562 -13.5096 -13.2505 -13.2131 -13.0629 -12.6045
   -12.4537 -12.3900 -12.3172 -11.9798 -11.7791 -11.5644 -11.4171 -11.3179
   -10.7824 -10.2005  -9.8631  -9.6942  -9.6186  -9.3473  -9.2306  -9.1567
    -8.7559  -8.7307  -8.6897  -8.4735  -8.2209  -8.1359  -7.9964  -7.8974
    -7.7294  -7.5369  -7.4881  -7.2503  -7.0890  -7.0102  -6.9935  -6.7932
    -6.6865  -6.4515  -6.4449  -6.2637  -6.0883  -5.9713  -5.8322  -5.6418
    -5.5142  -5.4855  -5.3407  -5.1954  -5.1586  -5.0682  -4.8412  -4.8006
    -4.7483  -4.5704  -4.5435  -4.4324  -4.2736  -4.2263  -4.1971  -4.1336
    -3.9580  -3.8850  -3.7596  -3.6708  -3.4657  -3.4427  -3.4125  -3.2856
    -3.0624  -3.0299  -2.8584  -2.8065  -2.7650  -2.6396  -2.5291  -2.4589
    -2.3842  -2.3202  -2.2356  -2.0297  -2.0080  -1.9441  -1.8564  -1.6996
    -1.5651  -1.5134  -1.3327  -1.2247  -1.1135  -0.8965  -0.8447  -0.8059
    -0.7743  -0.6079  -0.5346  -0.4518  -0.3740  -0.1486   0.0023   0.0983
     0.2420   0.4315   0.4955   0.5662   0.6052   0.6762   0.7571   0.9244
     1.0917   1.2255   1.2702   1.3772   1.5078   1.7135   1.8710   1.9954
     2.0452   2.2307   2.2496   2.3966   2.5463   2.5688   2.7062   2.8145
     3.0183   3.2044   3.3420   3.4330   3.5874   3.7339   3.7896   4.0211
     4.3679   4.4418   4.7043   4.8212   4.9521   5.2983   5.3958   5.6041
     5.6778   6.3028   6.4776   6.4898   6.8347   7.2397   7.3515   7.5159
     7.5928   7.6254   7.7332   7.9016   7.9343   8.4823   8.5864   8.7045
     8.8424   9.0631   9.2008   9.3960   9.5211   9.7912   9.8198  10.0193
    10.0601  10.1366  10.1878  10.3649  10.5105  10.5702  10.6563  10.7780
    10.8819  11.0527  11.1026  11.1905  11.2434  11.4211  11.5159  11.5629
    11.6882  11.7161  11.8854  11.9122  11.9677  12.0417  12.1363  12.1845
    12.2240  12.3387  12.3806

     the Fermi energy is     5.6745 ev

!    total energy              =   -1800.20214823 Ry
     Harris-Foulkes estimate   =   -1800.20214823 Ry
     estimated scf accuracy    <          2.4E-09 Ry

     The total energy is the sum of the following terms:

     one-electron contribution =  -14688.85554548 Ry
     hartree contribution      =    7514.79445674 Ry
     xc contribution           =    -636.72234951 Ry
     ewald contribution        =    6010.58306255 Ry
     smearing contrib. (-TS)   =      -0.00177253 Ry

     convergence has been achieved in  20 iterations

     Writing output data file pwscf.save
 
     init_run     :      0.57s CPU      0.64s WALL (       1 calls)
     electrons    :     48.28s CPU     49.60s WALL (       1 calls)

     Called by init_run:
     wfcinit      :      0.48s CPU      0.54s WALL (       1 calls)
     potinit      :      0.02s CPU      0.02s WALL (       1 calls)

     Called by electrons:
     c_bands      :     46.28s CPU     47.35s WALL (      20 calls)
     sum_band     :      1.63s CPU      1.67s WALL (      20 calls)
     v_of_rho     :      0.16s CPU      0.17s WALL (      21 calls)
     mix_rho      :      0.10s CPU      0.22s WALL (      20 calls)

     Called by c_bands:
     init_us_2    :      0.05s CPU      0.06s WALL (      41 calls)
     cegterg      :     46.14s CPU     47.15s WALL (      20 calls)

     Called by sum_band:

     Called by *egterg:
     h_psi        :      7.85s CPU      7.98s WALL (      99 calls)
     g_psi        :      0.07s CPU      0.07s WALL (      78 calls)
     cdiaghg      :     29.58s CPU     29.62s WALL (      98 calls)

     Called by h_psi:
     h_psi:pot    :      7.66s CPU      7.79s WALL (      99 calls)
     h_psi:calbec :      0.31s CPU      0.32s WALL (      99 calls)
     vloc_psi     :      7.10s CPU      7.21s WALL (      99 calls)
     add_vuspsi   :      0.25s CPU      0.25s WALL (      99 calls)

     General routines
     calbec       :      0.31s CPU      0.32s WALL (      99 calls)
     fft          :      0.09s CPU      0.10s WALL (     230 calls)
     fftw         :      7.86s CPU      7.99s WALL (   35206 calls)
     davcio       :      0.02s CPU      0.11s WALL (     308 calls)
 
     Parallel routines
     fft_scatter  :      2.75s CPU      2.82s WALL (   35436 calls)
 
     PWSCF        :    49.06s CPU        50.69s WALL

 
   This run was terminated on:  14: 0:25   2Feb2018            

=------------------------------------------------------------------------------=
   JOB DONE.
=------------------------------------------------------------------------------=
