
     Program PWSCF v.6.0 (svn rev. 13079) starts on  2Feb2018 at 14: 1:19 

     This program is part of the open-source Quantum ESPRESSO suite
     for quantum simulation of materials; please cite
         "P. Giannozzi et al., J. Phys.:Condens. Matter 21 395502 (2009);
          URL http://www.quantum-espresso.org", 
     in publications or presentations arising from this work. More details at
     http://www.quantum-espresso.org/quote

     Parallel version (MPI), running on    28 processors
     R & G space division:  proc/nbgrp/npool/nimage =      28
     Reading input from input/scf-bigwater-1/542.in
Warning: card &IONS ignored
Warning: card     POT_EXTRAPOLATION='SECOND-ORDER' ignored
Warning: card     WFC_EXTRAPOLATION='SECOND-ORDER' ignored
Warning: card     ION_TEMPERATURE = 'ANDERSEN' ignored
Warning: card     TEMPW = 1000 ignored
Warning: card / ignored

     Current dimensions of program PWSCF are:
     Max number of different atomic species (ntypx) = 10
     Max number of k-points (npk) =  40000
     Max angular momentum in pseudopotentials (lmaxx) =  3

     Subspace diagonalization in iterative solution of the eigenvalue problem:
     a serial algorithm will be used

 
     Parallelization info
     --------------------
     sticks:   dense  smooth     PW     G-vecs:    dense   smooth      PW
     Min         136     136     33                 6338     6338     787
     Max         137     137     34                 6341     6341     792
     Sum        3809    3809    949               177509   177509   22119
 


     bravais-lattice index     =            1
     lattice parameter (alat)  =      20.0000  a.u.
     unit-cell volume          =    8000.0000 (a.u.)^3
     number of atoms/cell      =          192
     number of atomic types    =            2
     number of electrons       =       512.00
     number of Kohn-Sham states=          307
     kinetic-energy cutoff     =      30.0000  Ry
     charge density cutoff     =     120.0000  Ry
     convergence threshold     =      1.0E-08
     mixing beta               =       0.7000
     number of iterations used =            8  plain     mixing
     Exchange-correlation      = BLYP ( 1  3  1  3 0 0)

     celldm(1)=  20.000000  celldm(2)=   0.000000  celldm(3)=   0.000000
     celldm(4)=   0.000000  celldm(5)=   0.000000  celldm(6)=   0.000000

     crystal axes: (cart. coord. in units of alat)
               a(1) = (   1.000000   0.000000   0.000000 )  
               a(2) = (   0.000000   1.000000   0.000000 )  
               a(3) = (   0.000000   0.000000   1.000000 )  

     reciprocal axes: (cart. coord. in units 2 pi/alat)
               b(1) = (  1.000000  0.000000  0.000000 )  
               b(2) = (  0.000000  1.000000  0.000000 )  
               b(3) = (  0.000000  0.000000  1.000000 )  


     PseudoPot. # 1 for  H read from file:
     ./H.blyp-hgh.UPF
     MD5 check sum: c576e69559cde411e611be972c763230
     Pseudo is Norm-conserving, Zval =  1.0
     Generated in analytical, separable form
     Using radial grid of  929 points,  0 beta functions with: 

     PseudoPot. # 2 for  O read from file:
     ./O.blyp-hgh.UPF
     MD5 check sum: d0b7156309aa9befef28faac7bc56342
     Pseudo is Norm-conserving, Zval =  6.0
     Generated in analytical, separable form
     Using radial grid of 1095 points,  1 beta functions with: 
                l(1) =   0

     atomic species   valence    mass     pseudopotential
        H              1.00     1.01000      H( 1.00)
        O              6.00    16.00000      O( 1.00)

     No symmetry found



   Cartesian axes

     site n.     atom                  positions (alat units)
         1           O   tau(   1) = (  -0.2629124  -0.0634100  -0.0811412  )
         2           O   tau(   2) = (   0.1679423  -0.1221408   0.2886656  )
         3           O   tau(   3) = (  -0.2746158   0.3026837  -0.2691993  )
         4           O   tau(   4) = (   0.0260671   0.1851276  -0.0504430  )
         5           O   tau(   5) = (  -0.2456370   0.0517710   0.1859020  )
         6           O   tau(   6) = (  -0.0052009   0.3090007   0.2941522  )
         7           O   tau(   7) = (  -0.0325139  -0.2691914  -0.1365891  )
         8           O   tau(   8) = (   0.1217403   0.0332664   0.2192249  )
         9           O   tau(   9) = (  -0.1414274  -0.2850053   0.2918398  )
        10           O   tau(  10) = (   0.1318860  -0.1246693   0.1447682  )
        11           O   tau(  11) = (   0.1287889  -0.3242847   0.1488617  )
        12           O   tau(  12) = (  -0.1909200  -0.1818891   0.2261026  )
        13           O   tau(  13) = (  -0.2309624  -0.3116983   0.0280647  )
        14           O   tau(  14) = (  -0.1721304  -0.2629566  -0.1890046  )
        15           O   tau(  15) = (   0.1404521  -0.1628657  -0.1125126  )
        16           O   tau(  16) = (  -0.1006257   0.1185710  -0.0278249  )
        17           O   tau(  17) = (  -0.0699109  -0.1389122   0.1313055  )
        18           O   tau(  18) = (   0.0184353  -0.2248086   0.1792077  )
        19           O   tau(  19) = (   0.2392863  -0.2279504  -0.2389350  )
        20           O   tau(  20) = (   0.2502651   0.2538765   0.1123997  )
        21           O   tau(  21) = (   0.2587095  -0.1733632   0.1762724  )
        22           O   tau(  22) = (  -0.1468477  -0.1308640  -0.1910330  )
        23           O   tau(  23) = (  -0.0597868   0.1449079  -0.2306573  )
        24           O   tau(  24) = (   0.2081794   0.1073870   0.1333315  )
        25           O   tau(  25) = (   0.1408129   0.0695375  -0.1911768  )
        26           O   tau(  26) = (  -0.2070865   0.1304676  -0.3009892  )
        27           O   tau(  27) = (   0.2478011  -0.2859331  -0.0418897  )
        28           O   tau(  28) = (   0.0843819  -0.0165213  -0.2730435  )
        29           O   tau(  29) = (  -0.0869846   0.0051043  -0.2589437  )
        30           O   tau(  30) = (   0.0622654  -0.0347146   0.0595665  )
        31           O   tau(  31) = (   0.2688232  -0.0888871  -0.1804833  )
        32           O   tau(  32) = (   0.2407118  -0.0108868  -0.0173913  )
        33           O   tau(  33) = (   0.0132628   0.2236655   0.1849290  )
        34           O   tau(  34) = (  -0.2368861   0.0284681  -0.2044481  )
        35           O   tau(  35) = (   0.0492644  -0.1921296  -0.0126685  )
        36           O   tau(  36) = (   0.2236926   0.2141610  -0.2748660  )
        37           O   tau(  37) = (   0.1201596   0.2961153   0.2750699  )
        38           O   tau(  38) = (  -0.2833137   0.2529992  -0.0862767  )
        39           O   tau(  39) = (  -0.0142144   0.0571435  -0.1149604  )
        40           O   tau(  40) = (  -0.1829959  -0.1977343  -0.0458115  )
        41           O   tau(  41) = (  -0.1509980   0.2802437   0.1502554  )
        42           O   tau(  42) = (  -0.1025893   0.1520809   0.2352507  )
        43           O   tau(  43) = (  -0.1061741  -0.0706109  -0.0322898  )
        44           O   tau(  44) = (  -0.0704674  -0.0733736   0.2634998  )
        45           O   tau(  45) = (   0.0263820   0.0979724   0.2824606  )
        46           O   tau(  46) = (  -0.2335269   0.1654255   0.0645269  )
        47           O   tau(  47) = (   0.1602038   0.2119126  -0.0711320  )
        48           O   tau(  48) = (   0.1254128  -0.2863064  -0.2012078  )
        49           O   tau(  49) = (  -0.1437930   0.2173727  -0.1501477  )
        50           O   tau(  50) = (   0.2207816   0.0323997   0.3147205  )
        51           O   tau(  51) = (  -0.1200419   0.0249428   0.1032309  )
        52           O   tau(  52) = (  -0.0057464  -0.0981853  -0.1650202  )
        53           O   tau(  53) = (   0.0022022  -0.1714449  -0.2836821  )
        54           O   tau(  54) = (   0.3074613  -0.2969823   0.2220705  )
        55           O   tau(  55) = (   0.1976993  -0.1690705   0.0146707  )
        56           O   tau(  56) = (   0.2614323  -0.0389932   0.1330194  )
        57           O   tau(  57) = (   0.0868755   0.1933841  -0.2173341  )
        58           O   tau(  58) = (  -0.0734439  -0.3045720  -0.0137135  )
        59           O   tau(  59) = (  -0.2597126  -0.0896127  -0.2997022  )
        60           O   tau(  60) = (  -0.2318024   0.0568542  -0.0493428  )
        61           O   tau(  61) = (   0.2458763   0.1291506  -0.1496997  )
        62           O   tau(  62) = (   0.1118140  -0.0226643  -0.0643582  )
        63           O   tau(  63) = (  -0.2428405  -0.1100260   0.0463503  )
        64           O   tau(  64) = (   0.0920564   0.1290136   0.0624363  )
        65           H   tau(  65) = (  -0.2220858  -0.0831378  -0.1003426  )
        66           H   tau(  66) = (  -0.2494648  -0.0155197  -0.0742767  )
        67           H   tau(  67) = (   0.2135596  -0.1107868   0.2750560  )
        68           H   tau(  68) = (   0.1420094  -0.1179774   0.2468277  )
        69           H   tau(  69) = (  -0.3080627   0.2686984  -0.2812603  )
        70           H   tau(  70) = (  -0.2782818   0.3113661  -0.2213522  )
        71           H   tau(  71) = (   0.0349126   0.1640414  -0.0930733  )
        72           H   tau(  72) = (   0.0646512   0.2147224  -0.0451875  )
        73           H   tau(  73) = (  -0.2643509   0.0073376   0.1745818  )
        74           H   tau(  74) = (  -0.2579659   0.0504554   0.2332724  )
        75           H   tau(  75) = (  -0.0081107   0.3421897   0.2566332  )
        76           H   tau(  76) = (   0.0451363   0.3044690   0.2968530  )
        77           H   tau(  77) = (  -0.0704211  -0.2711199  -0.1059927  )
        78           H   tau(  78) = (  -0.0248926  -0.3144730  -0.1537610  )
        79           H   tau(  79) = (   0.1352768   0.0631416   0.1826221  )
        80           H   tau(  80) = (   0.0861457   0.0556685   0.2460630  )
        81           H   tau(  81) = (  -0.1670419  -0.2876624   0.3346325  )
        82           H   tau(  82) = (  -0.0953201  -0.2934737   0.3078150  )
        83           H   tau(  83) = (   0.1258269  -0.0786962   0.1284360  )
        84           H   tau(  84) = (   0.1531238  -0.1488507   0.1068049  )
        85           H   tau(  85) = (   0.1669221  -0.3298666   0.1177111  )
        86           H   tau(  86) = (   0.0869718  -0.3278460   0.1241662  )
        87           H   tau(  87) = (  -0.1692929  -0.2184369   0.2520467  )
        88           H   tau(  88) = (  -0.2283613  -0.1772917   0.2567109  )
        89           H   tau(  89) = (  -0.2310826  -0.3592360   0.0391269  )
        90           H   tau(  90) = (  -0.2254052  -0.3035752  -0.0189530  )
        91           H   tau(  91) = (  -0.1815352  -0.2150903  -0.1836915  )
        92           H   tau(  92) = (  -0.1353767  -0.2716947  -0.1586520  )
        93           H   tau(  93) = (   0.1299956  -0.1155582  -0.1198038  )
        94           H   tau(  94) = (   0.1151770  -0.1781523  -0.0724771  )
        95           H   tau(  95) = (  -0.1175749   0.1452432  -0.0645803  )
        96           H   tau(  96) = (  -0.0873056   0.1400399   0.0132858  )
        97           H   tau(  97) = (  -0.0559960  -0.1666451   0.0930689  )
        98           H   tau(  98) = (  -0.0535208  -0.0954625   0.1154694  )
        99           H   tau(  99) = (   0.0641861  -0.2109316   0.1882901  )
       100           H   tau( 100) = (  -0.0087846  -0.1838398   0.1831859  )
       101           H   tau( 101) = (   0.2546611  -0.2550511  -0.2766840  )
       102           H   tau( 102) = (   0.2600704  -0.1861347  -0.2531427  )
       103           H   tau( 103) = (   0.2851654   0.2624106   0.1478457  )
       104           H   tau( 104) = (   0.2657561   0.2272200   0.0739734  )
       105           H   tau( 105) = (   0.2721608  -0.1384092   0.1444506  )
       106           H   tau( 106) = (   0.2114971  -0.1596396   0.1808141  )
       107           H   tau( 107) = (  -0.1039020  -0.1307466  -0.1672544  )
       108           H   tau( 108) = (  -0.1426081  -0.1034823  -0.2310752  )
       109           H   tau( 109) = (  -0.0116201   0.1417973  -0.2213630  )
       110           H   tau( 110) = (  -0.0707561   0.1017093  -0.2504368  )
       111           H   tau( 111) = (   0.2333462   0.1396724   0.1598923  )
       112           H   tau( 112) = (   0.1779707   0.1334840   0.1042296  )
       113           H   tau( 113) = (   0.1168259   0.0405132  -0.2248896  )
       114           H   tau( 114) = (   0.1203756   0.1146637  -0.1945771  )
       115           H   tau( 115) = (  -0.2051050   0.1119253  -0.2558846  )
       116           H   tau( 116) = (  -0.1669390   0.1156982  -0.3239450  )
       117           H   tau( 117) = (   0.2731746  -0.2975397  -0.0017327  )
       118           H   tau( 118) = (   0.2797000  -0.2981456  -0.0772686  )
       119           H   tau( 119) = (   0.1154771  -0.0498731  -0.2922961  )
       120           H   tau( 120) = (   0.0458076  -0.0098166  -0.3016217  )
       121           H   tau( 121) = (  -0.0747242  -0.0082699  -0.3050307  )
       122           H   tau( 122) = (  -0.1322682  -0.0133423  -0.2557684  )
       123           H   tau( 123) = (   0.0641027   0.0138946   0.0672234  )
       124           H   tau( 124) = (   0.0850209  -0.0345324   0.0150739  )
       125           H   tau( 125) = (   0.2341305  -0.1082403  -0.1526481  )
       126           H   tau( 126) = (   0.3044340  -0.0804003  -0.1461329  )
       127           H   tau( 127) = (   0.2438413   0.0298795  -0.0438684  )
       128           H   tau( 128) = (   0.2747897  -0.0403502  -0.0355711  )
       129           H   tau( 129) = (  -0.0013469   0.2478135   0.2258612  )
       130           H   tau( 130) = (  -0.0288291   0.2245130   0.1605174  )
       131           H   tau( 131) = (  -0.1937896   0.0476648  -0.1922379  )
       132           H   tau( 132) = (  -0.2624663   0.0432575  -0.1656956  )
       133           H   tau( 133) = (   0.0237411  -0.2144694  -0.0482853  )
       134           H   tau( 134) = (   0.0381481  -0.1450927  -0.0219866  )
       135           H   tau( 135) = (   0.1901642   0.2502972  -0.2796260  )
       136           H   tau( 136) = (   0.2167371   0.1878063  -0.3158868  )
       137           H   tau( 137) = (   0.1132521   0.2777920   0.2287013  )
       138           H   tau( 138) = (   0.1261227   0.3433236   0.2634698  )
       139           H   tau( 139) = (  -0.2915243   0.2085719  -0.1055348  )
       140           H   tau( 140) = (  -0.2442013   0.2640197  -0.1140000  )
       141           H   tau( 141) = (  -0.0317627   0.0589211  -0.0694875  )
       142           H   tau( 142) = (  -0.0039321   0.0104701  -0.1272294  )
       143           H   tau( 143) = (  -0.1486838  -0.2253990  -0.0241669  )
       144           H   tau( 144) = (  -0.2190777  -0.1884754  -0.0151141  )
       145           H   tau( 145) = (  -0.1968533   0.2883702   0.1361137  )
       146           H   tau( 146) = (  -0.1485942   0.3014130   0.1941056  )
       147           H   tau( 147) = (  -0.1469081   0.1568474   0.2153625  )
       148           H   tau( 148) = (  -0.1000168   0.1824791   0.2735211  )
       149           H   tau( 149) = (  -0.1315343  -0.1108128  -0.0455063  )
       150           H   tau( 150) = (  -0.1014751  -0.0813435   0.0149865  )
       151           H   tau( 151) = (  -0.1069711  -0.1015639   0.2462172  )
       152           H   tau( 152) = (  -0.0394035  -0.1043252   0.2870896  )
       153           H   tau( 153) = (  -0.0163030   0.0762817   0.2729973  )
       154           H   tau( 154) = (   0.0356897   0.1307620   0.2468073  )
       155           H   tau( 155) = (  -0.2494839   0.1456034   0.1063390  )
       156           H   tau( 156) = (  -0.1951043   0.1390711   0.0505787  )
       157           H   tau( 157) = (   0.1871523   0.2491654  -0.0536991  )
       158           H   tau( 158) = (   0.1929277   0.1773422  -0.0854186  )
       159           H   tau( 159) = (   0.1494194  -0.2669033  -0.2390233  )
       160           H   tau( 160) = (   0.1343151  -0.2542977  -0.1648398  )
       161           H   tau( 161) = (  -0.1344130   0.1721376  -0.1685050  )
       162           H   tau( 162) = (  -0.1115020   0.2189639  -0.1138752  )
       163           H   tau( 163) = (   0.2061676   0.0371505   0.3605348  )
       164           H   tau( 164) = (   0.1812115   0.0365348   0.2850571  )
       165           H   tau( 165) = (  -0.0743058   0.0350501   0.1177039  )
       166           H   tau( 166) = (  -0.1325597   0.0041995   0.1464271  )
       167           H   tau( 167) = (  -0.0307276  -0.0632784  -0.1900131  )
       168           H   tau( 168) = (   0.0026977  -0.1308355  -0.2016256  )
       169           H   tau( 169) = (  -0.0323399  -0.2068733  -0.2833490  )
       170           H   tau( 170) = (   0.0431384  -0.1973326  -0.2782024  )
       171           H   tau( 171) = (   0.3280717  -0.2860092   0.2651464  )
       172           H   tau( 172) = (   0.3055631  -0.2555853   0.1955305  )
       173           H   tau( 173) = (   0.2425133  -0.1847063   0.0251049  )
       174           H   tau( 174) = (   0.1975003  -0.1670606  -0.0345396  )
       175           H   tau( 175) = (   0.2462089  -0.0085859   0.0972222  )
       176           H   tau( 176) = (   0.2235196  -0.0374117   0.1639302  )
       177           H   tau( 177) = (   0.0846802   0.1951601  -0.2662267  )
       178           H   tau( 178) = (   0.1020575   0.2407663  -0.2055915  )
       179           H   tau( 179) = (  -0.0254720  -0.3128360  -0.0111596  )
       180           H   tau( 180) = (  -0.0860665  -0.2861838   0.0296871  )
       181           H   tau( 181) = (  -0.2949924  -0.0871420  -0.2654580  )
       182           H   tau( 182) = (  -0.2521903  -0.1368089  -0.3055285  )
       183           H   tau( 183) = (  -0.1906988   0.0545264  -0.0227723  )
       184           H   tau( 184) = (  -0.2629376   0.0881003  -0.0288501  )
       185           H   tau( 185) = (   0.2515084   0.1646864  -0.1832389  )
       186           H   tau( 186) = (   0.2016527   0.1109138  -0.1620995  )
       187           H   tau( 187) = (   0.1589525  -0.0221136  -0.0479592  )
       188           H   tau( 188) = (   0.1164577   0.0026571  -0.1064340  )
       189           H   tau( 189) = (  -0.2761482  -0.0766871   0.0591252  )
       190           H   tau( 190) = (  -0.2518146  -0.1473732   0.0765057  )
       191           H   tau( 191) = (   0.0554852   0.1412866   0.0917046  )
       192           H   tau( 192) = (   0.0783010   0.1422183   0.0173374  )

     number of k points=     1  Marzari-Vanderbilt smearing, width (Ry)=  0.0250
                       cart. coord. in units 2pi/alat
        k(    1) = (   0.0000000   0.0000000   0.0000000), wk =   2.0000000

     Dense  grid:   177509 G-vectors     FFT dimensions: (  72,  72,  72)

     Estimated max dynamical RAM per process >      67.80Mb

     Estimated total allocated dynamical RAM >    1898.40Mb

     Initial potential from superposition of free atoms
     Check: negative starting charge=   -0.793696

     starting charge  511.99856, renormalised to  512.00000

     negative rho (up, down):  7.937E-01 0.000E+00
     Starting wfc are  384 randomized atomic wfcs

     total cpu time spent up to now is        0.8 secs

     per-process dynamical memory:    45.9 Mb

     Self-consistent Calculation

     iteration #  1     ecut=    30.00 Ry     beta=0.70
     Davidson diagonalization with overlap
     ethr =  1.00E-02,  avg # of iterations =  8.0

     negative rho (up, down):  1.897E-01 0.000E+00

     total cpu time spent up to now is        9.0 secs

     total energy              =   -1792.40027749 Ry
     Harris-Foulkes estimate   =   -1820.32649122 Ry
     estimated scf accuracy    <      42.85100131 Ry

     iteration #  2     ecut=    30.00 Ry     beta=0.70
     Davidson diagonalization with overlap
     ethr =  8.37E-03,  avg # of iterations =  4.0

     negative rho (up, down):  7.442E-04 0.000E+00

     total cpu time spent up to now is       12.1 secs

     total energy              =   -1772.99592632 Ry
     Harris-Foulkes estimate   =   -1807.10449698 Ry
     estimated scf accuracy    <      77.50552644 Ry

     iteration #  3     ecut=    30.00 Ry     beta=0.70
     Davidson diagonalization with overlap
     ethr =  8.37E-03,  avg # of iterations =  5.0

     negative rho (up, down):  1.072E-07 0.000E+00

     total cpu time spent up to now is       15.8 secs

     total energy              =   -1797.35566071 Ry
     Harris-Foulkes estimate   =   -1807.55090829 Ry
     estimated scf accuracy    <      29.79878526 Ry

     iteration #  4     ecut=    30.00 Ry     beta=0.70
     Davidson diagonalization with overlap
     ethr =  5.82E-03,  avg # of iterations =  3.0

     total cpu time spent up to now is       17.7 secs

     total energy              =   -1800.53832480 Ry
     Harris-Foulkes estimate   =   -1802.45335946 Ry
     estimated scf accuracy    <       6.38345462 Ry

     iteration #  5     ecut=    30.00 Ry     beta=0.70
     Davidson diagonalization with overlap
     ethr =  1.25E-03,  avg # of iterations =  5.0

     total cpu time spent up to now is       20.2 secs

     total energy              =   -1800.17978955 Ry
     Harris-Foulkes estimate   =   -1800.87164994 Ry
     estimated scf accuracy    <       2.68202247 Ry

     iteration #  6     ecut=    30.00 Ry     beta=0.70
     Davidson diagonalization with overlap
     ethr =  5.24E-04,  avg # of iterations =  6.0

     total cpu time spent up to now is       23.0 secs

     total energy              =   -1800.12647742 Ry
     Harris-Foulkes estimate   =   -1800.28269945 Ry
     estimated scf accuracy    <       0.88887423 Ry

     iteration #  7     ecut=    30.00 Ry     beta=0.70
     Davidson diagonalization with overlap
     ethr =  1.74E-04,  avg # of iterations =  4.0

     total cpu time spent up to now is       25.0 secs

     total energy              =   -1799.92208891 Ry
     Harris-Foulkes estimate   =   -1800.16447835 Ry
     estimated scf accuracy    <       0.69849931 Ry

     iteration #  8     ecut=    30.00 Ry     beta=0.70
     Davidson diagonalization with overlap
     ethr =  1.36E-04,  avg # of iterations =  6.0

     total cpu time spent up to now is       28.0 secs

     total energy              =   -1799.99547967 Ry
     Harris-Foulkes estimate   =   -1800.07725038 Ry
     estimated scf accuracy    <       0.62772038 Ry

     iteration #  9     ecut=    30.00 Ry     beta=0.70
     Davidson diagonalization with overlap
     ethr =  1.23E-04,  avg # of iterations =  2.0

     total cpu time spent up to now is       29.4 secs

     total energy              =   -1800.01463413 Ry
     Harris-Foulkes estimate   =   -1800.02958396 Ry
     estimated scf accuracy    <       0.09127083 Ry

     iteration # 10     ecut=    30.00 Ry     beta=0.70
     Davidson diagonalization with overlap
     ethr =  1.78E-05,  avg # of iterations =  5.0

     total cpu time spent up to now is       31.7 secs

     total energy              =   -1800.01356166 Ry
     Harris-Foulkes estimate   =   -1800.02383036 Ry
     estimated scf accuracy    <       0.04136360 Ry

     iteration # 11     ecut=    30.00 Ry     beta=0.70
     Davidson diagonalization with overlap
     ethr =  8.08E-06,  avg # of iterations =  7.0

     total cpu time spent up to now is       34.9 secs

     total energy              =   -1800.01542686 Ry
     Harris-Foulkes estimate   =   -1800.02689858 Ry
     estimated scf accuracy    <       0.14914481 Ry

     iteration # 12     ecut=    30.00 Ry     beta=0.70
     Davidson diagonalization with overlap
     ethr =  8.08E-06,  avg # of iterations =  2.0

     total cpu time spent up to now is       36.3 secs

     total energy              =   -1800.02039076 Ry
     Harris-Foulkes estimate   =   -1800.02142545 Ry
     estimated scf accuracy    <       0.00544619 Ry

     iteration # 13     ecut=    30.00 Ry     beta=0.70
     Davidson diagonalization with overlap
     ethr =  1.06E-06,  avg # of iterations =  6.0

     total cpu time spent up to now is       39.0 secs

     total energy              =   -1800.02090256 Ry
     Harris-Foulkes estimate   =   -1800.02107600 Ry
     estimated scf accuracy    <       0.00117227 Ry

     iteration # 14     ecut=    30.00 Ry     beta=0.70
     Davidson diagonalization with overlap
     ethr =  2.29E-07,  avg # of iterations =  2.0

     total cpu time spent up to now is       40.4 secs

     total energy              =   -1800.02096156 Ry
     Harris-Foulkes estimate   =   -1800.02101742 Ry
     estimated scf accuracy    <       0.00048840 Ry

     iteration # 15     ecut=    30.00 Ry     beta=0.70
     Davidson diagonalization with overlap
     ethr =  9.54E-08,  avg # of iterations =  2.0

     total cpu time spent up to now is       41.9 secs

     total energy              =   -1800.02098856 Ry
     Harris-Foulkes estimate   =   -1800.02099754 Ry
     estimated scf accuracy    <       0.00003155 Ry

     iteration # 16     ecut=    30.00 Ry     beta=0.70
     Davidson diagonalization with overlap
     ethr =  6.16E-09,  avg # of iterations =  2.0

     total cpu time spent up to now is       43.3 secs

     total energy              =   -1800.02099455 Ry
     Harris-Foulkes estimate   =   -1800.02099682 Ry
     estimated scf accuracy    <       0.00001574 Ry

     iteration # 17     ecut=    30.00 Ry     beta=0.70
     Davidson diagonalization with overlap
     ethr =  3.07E-09,  avg # of iterations =  2.0

     total cpu time spent up to now is       44.8 secs

     total energy              =   -1800.02099630 Ry
     Harris-Foulkes estimate   =   -1800.02099627 Ry
     estimated scf accuracy    <       0.00000157 Ry

     iteration # 18     ecut=    30.00 Ry     beta=0.70
     Davidson diagonalization with overlap
     ethr =  3.07E-10,  avg # of iterations =  3.0

     total cpu time spent up to now is       46.6 secs

     total energy              =   -1800.02099667 Ry
     Harris-Foulkes estimate   =   -1800.02099669 Ry
     estimated scf accuracy    <       0.00000019 Ry

     iteration # 19     ecut=    30.00 Ry     beta=0.70
     Davidson diagonalization with overlap
     ethr =  3.62E-11,  avg # of iterations =  3.0

     total cpu time spent up to now is       48.6 secs

     total energy              =   -1800.02099671 Ry
     Harris-Foulkes estimate   =   -1800.02099671 Ry
     estimated scf accuracy    <       0.00000006 Ry

     iteration # 20     ecut=    30.00 Ry     beta=0.70
     Davidson diagonalization with overlap
     ethr =  1.11E-11,  avg # of iterations =  3.0

     total cpu time spent up to now is       50.5 secs

     End of self-consistent calculation

          k = 0.0000 0.0000 0.0000 ( 22119 PWs)   bands (ev):

   -40.4699 -39.6754 -39.5530 -39.5382 -38.4497 -38.0424 -37.8405 -37.0183
   -36.6091 -36.3816 -35.6498 -35.5520 -35.1003 -35.0113 -33.9967 -33.7794
   -33.5626 -33.2722 -33.2033 -32.8016 -32.7322 -32.3409 -32.2496 -32.0613
   -31.7166 -31.6571 -31.5304 -30.9843 -30.5395 -30.2614 -30.2055 -30.0938
   -29.9746 -29.7434 -29.6407 -29.2549 -29.0599 -29.0214 -28.8839 -28.7365
   -28.5615 -28.4719 -28.3673 -28.1457 -27.8757 -27.8238 -27.6784 -27.4492
   -27.2566 -27.1144 -27.0651 -26.9469 -26.7162 -26.6117 -26.4218 -26.3509
   -26.2729 -26.1885 -26.0040 -25.7977 -25.4600 -25.2693 -24.9052 -24.5763
   -21.9977 -21.3494 -21.0496 -20.6423 -20.2812 -20.1671 -19.9132 -19.5342
   -19.1563 -18.9807 -18.8288 -18.7061 -18.6185 -18.4126 -18.3161 -18.2048
   -17.8344 -17.6484 -17.5445 -17.4839 -17.3227 -17.1273 -16.9793 -16.7423
   -16.5654 -16.5055 -16.3058 -16.1745 -16.0345 -15.9977 -15.7952 -15.6485
   -15.5461 -15.4664 -15.3737 -15.2954 -15.2696 -14.9880 -14.9098 -14.7436
   -14.6052 -14.5240 -14.4334 -14.2265 -14.0969 -14.0171 -13.9990 -13.8517
   -13.8202 -13.6368 -13.5347 -13.4600 -13.2494 -13.2272 -13.0657 -12.6288
   -12.4529 -12.4108 -12.3388 -11.9707 -11.7666 -11.5532 -11.4738 -11.2778
   -10.8054 -10.1797  -9.8487  -9.6613  -9.6074  -9.3465  -9.2168  -9.1431
    -8.7781  -8.7397  -8.6820  -8.4751  -8.2130  -8.1396  -7.9941  -7.8906
    -7.7303  -7.5488  -7.5161  -7.2478  -7.0796  -7.0411  -6.9873  -6.7897
    -6.6944  -6.4637  -6.4302  -6.2684  -6.0977  -5.9724  -5.8305  -5.6505
    -5.5172  -5.4924  -5.3472  -5.1939  -5.1577  -5.0614  -4.8432  -4.7961
    -4.7438  -4.5598  -4.5262  -4.4227  -4.2659  -4.2275  -4.2017  -4.1453
    -3.9570  -3.8890  -3.7577  -3.6775  -3.4620  -3.4353  -3.4202  -3.2746
    -3.0618  -3.0214  -2.8576  -2.8057  -2.7641  -2.6394  -2.5297  -2.4523
    -2.3737  -2.3168  -2.2378  -2.0299  -2.0088  -1.9482  -1.8376  -1.6895
    -1.5595  -1.4956  -1.3359  -1.2316  -1.1145  -0.9009  -0.8509  -0.8093
    -0.7814  -0.6050  -0.5274  -0.4556  -0.3737  -0.1531  -0.0204   0.0843
     0.2462   0.4352   0.5149   0.5418   0.5983   0.6843   0.7413   0.9263
     1.0886   1.2136   1.2714   1.3769   1.5195   1.7091   1.8782   2.0069
     2.0390   2.2277   2.2733   2.3942   2.5367   2.5855   2.7037   2.8317
     3.0073   3.2291   3.3444   3.4505   3.5948   3.7558   3.7880   4.0022
     4.3913   4.4460   4.6945   4.8178   4.9684   5.3067   5.4056   5.6023
     5.6762   6.3053   6.4752   6.4926   6.8319   7.2383   7.3528   7.5146
     7.5945   7.6218   7.7304   7.8962   7.9316   8.4813   8.5865   8.7022
     8.8406   9.0622   9.1987   9.3995   9.5193   9.7873   9.8176  10.0188
    10.0581  10.1332  10.1847  10.3638  10.5116  10.5761  10.6535  10.7771
    10.8778  11.0522  11.1023  11.1901  11.2401  11.4212  11.5134  11.5592
    11.6904  11.7115  11.8848  11.9093  11.9715  12.0395  12.1353  12.1798
    12.2261  12.3351  12.3765

     the Fermi energy is     5.6760 ev

!    total energy              =   -1800.02099673 Ry
     Harris-Foulkes estimate   =   -1800.02099672 Ry
     estimated scf accuracy    <          5.5E-09 Ry

     The total energy is the sum of the following terms:

     one-electron contribution =  -14684.02445595 Ry
     hartree contribution      =    7512.37181049 Ry
     xc contribution           =    -636.73743042 Ry
     ewald contribution        =    6008.37123623 Ry
     smearing contrib. (-TS)   =      -0.00215708 Ry

     convergence has been achieved in  20 iterations

     Writing output data file pwscf.save
 
     init_run     :      0.58s CPU      0.66s WALL (       1 calls)
     electrons    :     48.34s CPU     49.72s WALL (       1 calls)

     Called by init_run:
     wfcinit      :      0.48s CPU      0.55s WALL (       1 calls)
     potinit      :      0.02s CPU      0.02s WALL (       1 calls)

     Called by electrons:
     c_bands      :     46.41s CPU     47.54s WALL (      20 calls)
     sum_band     :      1.60s CPU      1.64s WALL (      20 calls)
     v_of_rho     :      0.16s CPU      0.17s WALL (      21 calls)
     mix_rho      :      0.13s CPU      0.24s WALL (      20 calls)

     Called by c_bands:
     init_us_2    :      0.05s CPU      0.06s WALL (      41 calls)
     cegterg      :     46.28s CPU     47.35s WALL (      20 calls)

     Called by sum_band:

     Called by *egterg:
     h_psi        :      7.61s CPU      7.76s WALL (     101 calls)
     g_psi        :      0.06s CPU      0.06s WALL (      80 calls)
     cdiaghg      :     29.97s CPU     30.02s WALL (     100 calls)

     Called by h_psi:
     h_psi:pot    :      7.42s CPU      7.57s WALL (     101 calls)
     h_psi:calbec :      0.28s CPU      0.29s WALL (     101 calls)
     vloc_psi     :      6.90s CPU      7.03s WALL (     101 calls)
     add_vuspsi   :      0.24s CPU      0.25s WALL (     101 calls)

     General routines
     calbec       :      0.28s CPU      0.29s WALL (     101 calls)
     fft          :      0.09s CPU      0.09s WALL (     230 calls)
     fftw         :      7.62s CPU      7.78s WALL (   34932 calls)
     davcio       :      0.02s CPU      0.12s WALL (     308 calls)
 
     Parallel routines
     fft_scatter  :      2.80s CPU      2.88s WALL (   35162 calls)
 
     PWSCF        :    49.07s CPU        50.77s WALL

 
   This run was terminated on:  14: 2:10   2Feb2018            

=------------------------------------------------------------------------------=
   JOB DONE.
=------------------------------------------------------------------------------=
