
     Program PWSCF v.6.0 (svn rev. 13079) starts on  2Feb2018 at 14: 5:49 

     This program is part of the open-source Quantum ESPRESSO suite
     for quantum simulation of materials; please cite
         "P. Giannozzi et al., J. Phys.:Condens. Matter 21 395502 (2009);
          URL http://www.quantum-espresso.org", 
     in publications or presentations arising from this work. More details at
     http://www.quantum-espresso.org/quote

     Parallel version (MPI), running on    28 processors
     R & G space division:  proc/nbgrp/npool/nimage =      28
     Reading input from input/scf-bigwater-1/547.in
Warning: card &IONS ignored
Warning: card     POT_EXTRAPOLATION='SECOND-ORDER' ignored
Warning: card     WFC_EXTRAPOLATION='SECOND-ORDER' ignored
Warning: card     ION_TEMPERATURE = 'ANDERSEN' ignored
Warning: card     TEMPW = 1000 ignored
Warning: card / ignored

     Current dimensions of program PWSCF are:
     Max number of different atomic species (ntypx) = 10
     Max number of k-points (npk) =  40000
     Max angular momentum in pseudopotentials (lmaxx) =  3

     Subspace diagonalization in iterative solution of the eigenvalue problem:
     a serial algorithm will be used

 
     Parallelization info
     --------------------
     sticks:   dense  smooth     PW     G-vecs:    dense   smooth      PW
     Min         136     136     33                 6338     6338     787
     Max         137     137     34                 6341     6341     792
     Sum        3809    3809    949               177509   177509   22119
 


     bravais-lattice index     =            1
     lattice parameter (alat)  =      20.0000  a.u.
     unit-cell volume          =    8000.0000 (a.u.)^3
     number of atoms/cell      =          192
     number of atomic types    =            2
     number of electrons       =       512.00
     number of Kohn-Sham states=          307
     kinetic-energy cutoff     =      30.0000  Ry
     charge density cutoff     =     120.0000  Ry
     convergence threshold     =      1.0E-08
     mixing beta               =       0.7000
     number of iterations used =            8  plain     mixing
     Exchange-correlation      = BLYP ( 1  3  1  3 0 0)

     celldm(1)=  20.000000  celldm(2)=   0.000000  celldm(3)=   0.000000
     celldm(4)=   0.000000  celldm(5)=   0.000000  celldm(6)=   0.000000

     crystal axes: (cart. coord. in units of alat)
               a(1) = (   1.000000   0.000000   0.000000 )  
               a(2) = (   0.000000   1.000000   0.000000 )  
               a(3) = (   0.000000   0.000000   1.000000 )  

     reciprocal axes: (cart. coord. in units 2 pi/alat)
               b(1) = (  1.000000  0.000000  0.000000 )  
               b(2) = (  0.000000  1.000000  0.000000 )  
               b(3) = (  0.000000  0.000000  1.000000 )  


     PseudoPot. # 1 for  H read from file:
     ./H.blyp-hgh.UPF
     MD5 check sum: c576e69559cde411e611be972c763230
     Pseudo is Norm-conserving, Zval =  1.0
     Generated in analytical, separable form
     Using radial grid of  929 points,  0 beta functions with: 

     PseudoPot. # 2 for  O read from file:
     ./O.blyp-hgh.UPF
     MD5 check sum: d0b7156309aa9befef28faac7bc56342
     Pseudo is Norm-conserving, Zval =  6.0
     Generated in analytical, separable form
     Using radial grid of 1095 points,  1 beta functions with: 
                l(1) =   0

     atomic species   valence    mass     pseudopotential
        H              1.00     1.01000      H( 1.00)
        O              6.00    16.00000      O( 1.00)

     No symmetry found



   Cartesian axes

     site n.     atom                  positions (alat units)
         1           O   tau(   1) = (  -0.2629871  -0.0633080  -0.0806403  )
         2           O   tau(   2) = (   0.1673317  -0.1224539   0.2889167  )
         3           O   tau(   3) = (  -0.2742837   0.3030931  -0.2693171  )
         4           O   tau(   4) = (   0.0269441   0.1846840  -0.0501895  )
         5           O   tau(   5) = (  -0.2462280   0.0519045   0.1857322  )
         6           O   tau(   6) = (  -0.0046174   0.3091210   0.2949355  )
         7           O   tau(   7) = (  -0.0329361  -0.2691777  -0.1360601  )
         8           O   tau(   8) = (   0.1219925   0.0336777   0.2195740  )
         9           O   tau(   9) = (  -0.1419015  -0.2856530   0.2918041  )
        10           O   tau(  10) = (   0.1319085  -0.1246596   0.1454935  )
        11           O   tau(  11) = (   0.1284885  -0.3241349   0.1491568  )
        12           O   tau(  12) = (  -0.1903309  -0.1820800   0.2258422  )
        13           O   tau(  13) = (  -0.2311138  -0.3125568   0.0283784  )
        14           O   tau(  14) = (  -0.1724032  -0.2626637  -0.1884390  )
        15           O   tau(  15) = (   0.1402745  -0.1629938  -0.1122573  )
        16           O   tau(  16) = (  -0.1000597   0.1183161  -0.0284041  )
        17           O   tau(  17) = (  -0.0696229  -0.1393407   0.1313958  )
        18           O   tau(  18) = (   0.0187252  -0.2245007   0.1788318  )
        19           O   tau(  19) = (   0.2392700  -0.2277715  -0.2388245  )
        20           O   tau(  20) = (   0.2505930   0.2535963   0.1122414  )
        21           O   tau(  21) = (   0.2580177  -0.1737210   0.1762558  )
        22           O   tau(  22) = (  -0.1464705  -0.1311206  -0.1906792  )
        23           O   tau(  23) = (  -0.0597366   0.1450112  -0.2303290  )
        24           O   tau(  24) = (   0.2081449   0.1070142   0.1328921  )
        25           O   tau(  25) = (   0.1413450   0.0690026  -0.1915017  )
        26           O   tau(  26) = (  -0.2071662   0.1305388  -0.3003420  )
        27           O   tau(  27) = (   0.2482953  -0.2859533  -0.0417168  )
        28           O   tau(  28) = (   0.0840911  -0.0161036  -0.2733309  )
        29           O   tau(  29) = (  -0.0869087   0.0055566  -0.2589900  )
        30           O   tau(  30) = (   0.0621202  -0.0349464   0.0597846  )
        31           O   tau(  31) = (   0.2694595  -0.0887749  -0.1810320  )
        32           O   tau(  32) = (   0.2402927  -0.0108691  -0.0180583  )
        33           O   tau(  33) = (   0.0133958   0.2229767   0.1856691  )
        34           O   tau(  34) = (  -0.2368253   0.0286602  -0.2041126  )
        35           O   tau(  35) = (   0.0488581  -0.1919960  -0.0128193  )
        36           O   tau(  36) = (   0.2241136   0.2138023  -0.2754893  )
        37           O   tau(  37) = (   0.1195984   0.2966207   0.2746374  )
        38           O   tau(  38) = (  -0.2831600   0.2530441  -0.0863628  )
        39           O   tau(  39) = (  -0.0142231   0.0576045  -0.1149685  )
        40           O   tau(  40) = (  -0.1834129  -0.1974777  -0.0456512  )
        41           O   tau(  41) = (  -0.1511167   0.2803862   0.1499261  )
        42           O   tau(  42) = (  -0.1021818   0.1522890   0.2347997  )
        43           O   tau(  43) = (  -0.1056890  -0.0710112  -0.0319765  )
        44           O   tau(  44) = (  -0.0702748  -0.0736511   0.2637907  )
        45           O   tau(  45) = (   0.0257030   0.0984061   0.2827802  )
        46           O   tau(  46) = (  -0.2339082   0.1655293   0.0644935  )
        47           O   tau(  47) = (   0.1601393   0.2120121  -0.0714085  )
        48           O   tau(  48) = (   0.1245737  -0.2864449  -0.2011239  )
        49           O   tau(  49) = (  -0.1442067   0.2174950  -0.1503742  )
        50           O   tau(  50) = (   0.2206540   0.0325247   0.3153371  )
        51           O   tau(  51) = (  -0.1193495   0.0248152   0.1030569  )
        52           O   tau(  52) = (  -0.0053130  -0.0981128  -0.1655534  )
        53           O   tau(  53) = (   0.0022282  -0.1715839  -0.2837343  )
        54           O   tau(  54) = (   0.3077141  -0.2972398   0.2218761  )
        55           O   tau(  55) = (   0.1968527  -0.1686127   0.0151339  )
        56           O   tau(  56) = (   0.2622654  -0.0384510   0.1335387  )
        57           O   tau(  57) = (   0.0867554   0.1932921  -0.2174639  )
        58           O   tau(  58) = (  -0.0735049  -0.3050128  -0.0140497  )
        59           O   tau(  59) = (  -0.2599108  -0.0894069  -0.2996414  )
        60           O   tau(  60) = (  -0.2316257   0.0568963  -0.0497506  )
        61           O   tau(  61) = (   0.2459938   0.1302453  -0.1501686  )
        62           O   tau(  62) = (   0.1113404  -0.0230166  -0.0646898  )
        63           O   tau(  63) = (  -0.2427719  -0.1111516   0.0461606  )
        64           O   tau(  64) = (   0.0922275   0.1294758   0.0624598  )
        65           H   tau(  65) = (  -0.2236772  -0.0830211  -0.1025184  )
        66           H   tau(  66) = (  -0.2494550  -0.0155073  -0.0728008  )
        67           H   tau(  67) = (   0.2137081  -0.1118564   0.2769071  )
        68           H   tau(  68) = (   0.1431369  -0.1186047   0.2458912  )
        69           H   tau(  69) = (  -0.3074731   0.2690596  -0.2816765  )
        70           H   tau(  70) = (  -0.2779067   0.3116398  -0.2214747  )
        71           H   tau(  71) = (   0.0356928   0.1644832  -0.0932653  )
        72           H   tau(  72) = (   0.0655291   0.2142907  -0.0455886  )
        73           H   tau(  73) = (  -0.2631272   0.0071009   0.1730041  )
        74           H   tau(  74) = (  -0.2580808   0.0496084   0.2328073  )
        75           H   tau(  75) = (  -0.0084519   0.3415347   0.2567821  )
        76           H   tau(  76) = (   0.0458336   0.3045590   0.2968569  )
        77           H   tau(  77) = (  -0.0713509  -0.2713792  -0.1061183  )
        78           H   tau(  78) = (  -0.0234238  -0.3144629  -0.1523163  )
        79           H   tau(  79) = (   0.1355579   0.0628329   0.1827746  )
        80           H   tau(  80) = (   0.0870757   0.0568145   0.2464398  )
        81           H   tau(  81) = (  -0.1676806  -0.2856190   0.3347453  )
        82           H   tau(  82) = (  -0.0959600  -0.2932478   0.3083501  )
        83           H   tau(  83) = (   0.1259999  -0.0792404   0.1272979  )
        84           H   tau(  84) = (   0.1543994  -0.1503329   0.1095055  )
        85           H   tau(  85) = (   0.1653499  -0.3308063   0.1169734  )
        86           H   tau(  86) = (   0.0862697  -0.3273418   0.1249682  )
        87           H   tau(  87) = (  -0.1676970  -0.2180631   0.2515759  )
        88           H   tau(  88) = (  -0.2282094  -0.1787658   0.2563480  )
        89           H   tau(  89) = (  -0.2317768  -0.3601443   0.0388537  )
        90           H   tau(  90) = (  -0.2263374  -0.3039778  -0.0187543  )
        91           H   tau(  91) = (  -0.1812996  -0.2145652  -0.1839216  )
        92           H   tau(  92) = (  -0.1347795  -0.2707390  -0.1589091  )
        93           H   tau(  93) = (   0.1291036  -0.1159321  -0.1190141  )
        94           H   tau(  94) = (   0.1166738  -0.1776464  -0.0712552  )
        95           H   tau(  95) = (  -0.1196689   0.1442230  -0.0647019  )
        96           H   tau(  96) = (  -0.0876417   0.1419842   0.0122269  )
        97           H   tau(  97) = (  -0.0569606  -0.1680355   0.0924007  )
        98           H   tau(  98) = (  -0.0546852  -0.0960053   0.1149853  )
        99           H   tau(  99) = (   0.0647146  -0.2108191   0.1872135  )
       100           H   tau( 100) = (  -0.0087021  -0.1835522   0.1823421  )
       101           H   tau( 101) = (   0.2552482  -0.2545292  -0.2765611  )
       102           H   tau( 102) = (   0.2588102  -0.1856137  -0.2539995  )
       103           H   tau( 103) = (   0.2847729   0.2644317   0.1474339  )
       104           H   tau( 104) = (   0.2677135   0.2259933   0.0748671  )
       105           H   tau( 105) = (   0.2722082  -0.1381603   0.1453308  )
       106           H   tau( 106) = (   0.2111837  -0.1587125   0.1807632  )
       107           H   tau( 107) = (  -0.1031261  -0.1307421  -0.1675086  )
       108           H   tau( 108) = (  -0.1436941  -0.1030498  -0.2303803  )
       109           H   tau( 109) = (  -0.0118223   0.1416335  -0.2206583  )
       110           H   tau( 110) = (  -0.0711138   0.1018894  -0.2494609  )
       111           H   tau( 111) = (   0.2338759   0.1389730   0.1593581  )
       112           H   tau( 112) = (   0.1771235   0.1340707   0.1055187  )
       113           H   tau( 113) = (   0.1157039   0.0400884  -0.2240554  )
       114           H   tau( 114) = (   0.1199199   0.1136982  -0.1946866  )
       115           H   tau( 115) = (  -0.2069725   0.1120880  -0.2550012  )
       116           H   tau( 116) = (  -0.1668910   0.1156538  -0.3233396  )
       117           H   tau( 117) = (   0.2743960  -0.2980275  -0.0019251  )
       118           H   tau( 118) = (   0.2786174  -0.2994863  -0.0781116  )
       119           H   tau( 119) = (   0.1147144  -0.0489145  -0.2938416  )
       120           H   tau( 120) = (   0.0452419  -0.0091810  -0.3014413  )
       121           H   tau( 121) = (  -0.0741108  -0.0078099  -0.3046613  )
       122           H   tau( 122) = (  -0.1321462  -0.0127741  -0.2556694  )
       123           H   tau( 123) = (   0.0631685   0.0134643   0.0679853  )
       124           H   tau( 124) = (   0.0847196  -0.0343639   0.0153367  )
       125           H   tau( 125) = (   0.2356655  -0.1093665  -0.1527035  )
       126           H   tau( 126) = (   0.3056658  -0.0819281  -0.1470516  )
       127           H   tau( 127) = (   0.2444481   0.0296537  -0.0441290  )
       128           H   tau( 128) = (   0.2745924  -0.0401925  -0.0356726  )
       129           H   tau( 129) = (  -0.0015925   0.2477358   0.2259247  )
       130           H   tau( 130) = (  -0.0287382   0.2242815   0.1618519  )
       131           H   tau( 131) = (  -0.1933137   0.0471842  -0.1923298  )
       132           H   tau( 132) = (  -0.2632357   0.0439575  -0.1659059  )
       133           H   tau( 133) = (   0.0239449  -0.2142999  -0.0487683  )
       134           H   tau( 134) = (   0.0382273  -0.1449906  -0.0219670  )
       135           H   tau( 135) = (   0.1902368   0.2496387  -0.2792375  )
       136           H   tau( 136) = (   0.2163673   0.1889566  -0.3172663  )
       137           H   tau( 137) = (   0.1136548   0.2776290   0.2283768  )
       138           H   tau( 138) = (   0.1258920   0.3441198   0.2643642  )
       139           H   tau( 139) = (  -0.2909300   0.2094854  -0.1072596  )
       140           H   tau( 140) = (  -0.2451460   0.2654594  -0.1148997  )
       141           H   tau( 141) = (  -0.0312986   0.0572685  -0.0689855  )
       142           H   tau( 142) = (  -0.0054763   0.0113956  -0.1296558  )
       143           H   tau( 143) = (  -0.1500319  -0.2280356  -0.0267319  )
       144           H   tau( 144) = (  -0.2187578  -0.1876961  -0.0145827  )
       145           H   tau( 145) = (  -0.1973015   0.2893505   0.1377555  )
       146           H   tau( 146) = (  -0.1474087   0.3003455   0.1943177  )
       147           H   tau( 147) = (  -0.1464414   0.1582958   0.2151724  )
       148           H   tau( 148) = (  -0.0999866   0.1817418   0.2739203  )
       149           H   tau( 149) = (  -0.1310216  -0.1106828  -0.0465514  )
       150           H   tau( 150) = (  -0.1014917  -0.0825012   0.0151270  )
       151           H   tau( 151) = (  -0.1073116  -0.1006666   0.2459696  )
       152           H   tau( 152) = (  -0.0398650  -0.1064809   0.2856231  )
       153           H   tau( 153) = (  -0.0166168   0.0764792   0.2703669  )
       154           H   tau( 154) = (   0.0339955   0.1332948   0.2486315  )
       155           H   tau( 155) = (  -0.2504700   0.1454710   0.1059075  )
       156           H   tau( 156) = (  -0.1943408   0.1396982   0.0527760  )
       157           H   tau( 157) = (   0.1871744   0.2483354  -0.0525656  )
       158           H   tau( 158) = (   0.1923375   0.1780153  -0.0881344  )
       159           H   tau( 159) = (   0.1477423  -0.2686029  -0.2402469  )
       160           H   tau( 160) = (   0.1340170  -0.2535072  -0.1655289  )
       161           H   tau( 161) = (  -0.1360683   0.1721535  -0.1691707  )
       162           H   tau( 162) = (  -0.1106478   0.2197078  -0.1151998  )
       163           H   tau( 163) = (   0.2052389   0.0387612   0.3611161  )
       164           H   tau( 164) = (   0.1815948   0.0356254   0.2856145  )
       165           H   tau( 165) = (  -0.0747308   0.0369833   0.1175685  )
       166           H   tau( 166) = (  -0.1319766   0.0062154   0.1468286  )
       167           H   tau( 167) = (  -0.0293870  -0.0616298  -0.1888884  )
       168           H   tau( 168) = (   0.0029785  -0.1290215  -0.2036009  )
       169           H   tau( 169) = (  -0.0324663  -0.2068223  -0.2858097  )
       170           H   tau( 170) = (   0.0432915  -0.1976586  -0.2783178  )
       171           H   tau( 171) = (   0.3285287  -0.2866594   0.2651001  )
       172           H   tau( 172) = (   0.3064334  -0.2552751   0.1960686  )
       173           H   tau( 173) = (   0.2413853  -0.1849967   0.0258044  )
       174           H   tau( 174) = (   0.1970193  -0.1675779  -0.0341212  )
       175           H   tau( 175) = (   0.2460940  -0.0102647   0.0965975  )
       176           H   tau( 176) = (   0.2250576  -0.0381639   0.1650574  )
       177           H   tau( 177) = (   0.0851462   0.1958717  -0.2663075  )
       178           H   tau( 178) = (   0.1033087   0.2402086  -0.2066130  )
       179           H   tau( 179) = (  -0.0254251  -0.3129211  -0.0111573  )
       180           H   tau( 180) = (  -0.0859338  -0.2867752   0.0296289  )
       181           H   tau( 181) = (  -0.2949852  -0.0884967  -0.2648635  )
       182           H   tau( 182) = (  -0.2512761  -0.1365753  -0.3056847  )
       183           H   tau( 183) = (  -0.1904964   0.0550412  -0.0229299  )
       184           H   tau( 184) = (  -0.2625698   0.0883487  -0.0293733  )
       185           H   tau( 185) = (   0.2519658   0.1652351  -0.1843068  )
       186           H   tau( 186) = (   0.2019635   0.1125306  -0.1627611  )
       187           H   tau( 187) = (   0.1588150  -0.0217305  -0.0481969  )
       188           H   tau( 188) = (   0.1149019   0.0041331  -0.1060013  )
       189           H   tau( 189) = (  -0.2750190  -0.0769339   0.0591228  )
       190           H   tau( 190) = (  -0.2508967  -0.1474175   0.0781263  )
       191           H   tau( 191) = (   0.0553322   0.1406001   0.0919808  )
       192           H   tau( 192) = (   0.0777302   0.1423136   0.0174477  )

     number of k points=     1  Marzari-Vanderbilt smearing, width (Ry)=  0.0250
                       cart. coord. in units 2pi/alat
        k(    1) = (   0.0000000   0.0000000   0.0000000), wk =   2.0000000

     Dense  grid:   177509 G-vectors     FFT dimensions: (  72,  72,  72)

     Estimated max dynamical RAM per process >      67.80Mb

     Estimated total allocated dynamical RAM >    1898.40Mb

     Initial potential from superposition of free atoms
     Check: negative starting charge=   -0.792713

     starting charge  511.99856, renormalised to  512.00000

     negative rho (up, down):  7.927E-01 0.000E+00
     Starting wfc are  384 randomized atomic wfcs

     total cpu time spent up to now is        0.8 secs

     per-process dynamical memory:    45.9 Mb

     Self-consistent Calculation

     iteration #  1     ecut=    30.00 Ry     beta=0.70
     Davidson diagonalization with overlap
     ethr =  1.00E-02,  avg # of iterations =  8.0

     negative rho (up, down):  1.902E-01 0.000E+00

     total cpu time spent up to now is        9.0 secs

     total energy              =   -1792.16352804 Ry
     Harris-Foulkes estimate   =   -1820.13560211 Ry
     estimated scf accuracy    <      42.92345541 Ry

     iteration #  2     ecut=    30.00 Ry     beta=0.70
     Davidson diagonalization with overlap
     ethr =  8.38E-03,  avg # of iterations =  4.0

     negative rho (up, down):  8.983E-04 0.000E+00

     total cpu time spent up to now is       12.1 secs

     total energy              =   -1772.39366661 Ry
     Harris-Foulkes estimate   =   -1807.01344966 Ry
     estimated scf accuracy    <      79.22523673 Ry

     iteration #  3     ecut=    30.00 Ry     beta=0.70
     Davidson diagonalization with overlap
     ethr =  8.38E-03,  avg # of iterations =  5.0

     negative rho (up, down):  1.505E-07 0.000E+00

     total cpu time spent up to now is       15.8 secs

     total energy              =   -1797.09483118 Ry
     Harris-Foulkes estimate   =   -1807.45353654 Ry
     estimated scf accuracy    <      30.40921077 Ry

     iteration #  4     ecut=    30.00 Ry     beta=0.70
     Davidson diagonalization with overlap
     ethr =  5.94E-03,  avg # of iterations =  3.0

     total cpu time spent up to now is       17.7 secs

     total energy              =   -1800.33676657 Ry
     Harris-Foulkes estimate   =   -1802.29419717 Ry
     estimated scf accuracy    <       6.49111909 Ry

     iteration #  5     ecut=    30.00 Ry     beta=0.70
     Davidson diagonalization with overlap
     ethr =  1.27E-03,  avg # of iterations =  5.0

     total cpu time spent up to now is       20.2 secs

     total energy              =   -1800.02708185 Ry
     Harris-Foulkes estimate   =   -1800.68898769 Ry
     estimated scf accuracy    <       2.70387568 Ry

     iteration #  6     ecut=    30.00 Ry     beta=0.70
     Davidson diagonalization with overlap
     ethr =  5.28E-04,  avg # of iterations =  6.0

     total cpu time spent up to now is       23.0 secs

     total energy              =   -1799.75153576 Ry
     Harris-Foulkes estimate   =   -1800.11203826 Ry
     estimated scf accuracy    <       1.15162223 Ry

     iteration #  7     ecut=    30.00 Ry     beta=0.70
     Davidson diagonalization with overlap
     ethr =  2.25E-04,  avg # of iterations =  6.0

     total cpu time spent up to now is       25.9 secs

     total energy              =   -1799.86566218 Ry
     Harris-Foulkes estimate   =   -1799.89574922 Ry
     estimated scf accuracy    <       0.68838724 Ry

     iteration #  8     ecut=    30.00 Ry     beta=0.70
     Davidson diagonalization with overlap
     ethr =  1.34E-04,  avg # of iterations =  1.0

     total cpu time spent up to now is       27.0 secs

     total energy              =   -1799.80063175 Ry
     Harris-Foulkes estimate   =   -1799.87089195 Ry
     estimated scf accuracy    <       0.38914103 Ry

     iteration #  9     ecut=    30.00 Ry     beta=0.70
     Davidson diagonalization with overlap
     ethr =  7.60E-05,  avg # of iterations =  4.0

     total cpu time spent up to now is       29.0 secs

     total energy              =   -1799.78902048 Ry
     Harris-Foulkes estimate   =   -1799.83398439 Ry
     estimated scf accuracy    <       0.27902910 Ry

     iteration # 10     ecut=    30.00 Ry     beta=0.70
     Davidson diagonalization with overlap
     ethr =  5.45E-05,  avg # of iterations =  1.0

     total cpu time spent up to now is       30.1 secs

     total energy              =   -1799.80285488 Ry
     Harris-Foulkes estimate   =   -1799.81845198 Ry
     estimated scf accuracy    <       0.08607512 Ry

     iteration # 11     ecut=    30.00 Ry     beta=0.70
     Davidson diagonalization with overlap
     ethr =  1.68E-05,  avg # of iterations =  7.0

     total cpu time spent up to now is       33.2 secs

     total energy              =   -1799.80771939 Ry
     Harris-Foulkes estimate   =   -1799.81451472 Ry
     estimated scf accuracy    <       0.05488899 Ry

     iteration # 12     ecut=    30.00 Ry     beta=0.70
     Davidson diagonalization with overlap
     ethr =  1.07E-05,  avg # of iterations =  5.0

     total cpu time spent up to now is       35.5 secs

     total energy              =   -1799.80855739 Ry
     Harris-Foulkes estimate   =   -1799.81341093 Ry
     estimated scf accuracy    <       0.02246433 Ry

     iteration # 13     ecut=    30.00 Ry     beta=0.70
     Davidson diagonalization with overlap
     ethr =  4.39E-06,  avg # of iterations =  4.0

     total cpu time spent up to now is       37.5 secs

     total energy              =   -1799.81125381 Ry
     Harris-Foulkes estimate   =   -1799.81171514 Ry
     estimated scf accuracy    <       0.00326707 Ry

     iteration # 14     ecut=    30.00 Ry     beta=0.70
     Davidson diagonalization with overlap
     ethr =  6.38E-07,  avg # of iterations =  2.0

     total cpu time spent up to now is       38.9 secs

     total energy              =   -1799.81140688 Ry
     Harris-Foulkes estimate   =   -1799.81147203 Ry
     estimated scf accuracy    <       0.00031468 Ry

     iteration # 15     ecut=    30.00 Ry     beta=0.70
     Davidson diagonalization with overlap
     ethr =  6.15E-08,  avg # of iterations =  2.0

     total cpu time spent up to now is       40.4 secs

     total energy              =   -1799.81142317 Ry
     Harris-Foulkes estimate   =   -1799.81147467 Ry
     estimated scf accuracy    <       0.00023728 Ry

     iteration # 16     ecut=    30.00 Ry     beta=0.70
     Davidson diagonalization with overlap
     ethr =  4.63E-08,  avg # of iterations =  2.0

     total cpu time spent up to now is       41.8 secs

     total energy              =   -1799.81145067 Ry
     Harris-Foulkes estimate   =   -1799.81145809 Ry
     estimated scf accuracy    <       0.00004196 Ry

     iteration # 17     ecut=    30.00 Ry     beta=0.70
     Davidson diagonalization with overlap
     ethr =  8.19E-09,  avg # of iterations =  2.0

     total cpu time spent up to now is       43.3 secs

     total energy              =   -1799.81145503 Ry
     Harris-Foulkes estimate   =   -1799.81145549 Ry
     estimated scf accuracy    <       0.00000209 Ry

     iteration # 18     ecut=    30.00 Ry     beta=0.70
     Davidson diagonalization with overlap
     ethr =  4.08E-10,  avg # of iterations =  3.0

     total cpu time spent up to now is       45.3 secs

     total energy              =   -1799.81145550 Ry
     Harris-Foulkes estimate   =   -1799.81145558 Ry
     estimated scf accuracy    <       0.00000035 Ry

     iteration # 19     ecut=    30.00 Ry     beta=0.70
     Davidson diagonalization with overlap
     ethr =  6.77E-11,  avg # of iterations =  3.0

     total cpu time spent up to now is       47.3 secs

     total energy              =   -1799.81145563 Ry
     Harris-Foulkes estimate   =   -1799.81145560 Ry
     estimated scf accuracy    <       0.00000017 Ry

     iteration # 20     ecut=    30.00 Ry     beta=0.70
     Davidson diagonalization with overlap
     ethr =  3.39E-11,  avg # of iterations =  3.0

     total cpu time spent up to now is       49.1 secs

     total energy              =   -1799.81145567 Ry
     Harris-Foulkes estimate   =   -1799.81145566 Ry
     estimated scf accuracy    <       0.00000001 Ry

     iteration # 21     ecut=    30.00 Ry     beta=0.70
     Davidson diagonalization with overlap
     ethr =  2.50E-12,  avg # of iterations =  3.0

     total cpu time spent up to now is       51.2 secs

     total energy              =   -1799.81145570 Ry
     Harris-Foulkes estimate   =   -1799.81145568 Ry
     estimated scf accuracy    <       0.00000002 Ry

     iteration # 22     ecut=    30.00 Ry     beta=0.70
     Davidson diagonalization with overlap
     ethr =  2.50E-12,  avg # of iterations =  3.0

     total cpu time spent up to now is       53.0 secs

     End of self-consistent calculation

          k = 0.0000 0.0000 0.0000 ( 22119 PWs)   bands (ev):

   -40.4500 -39.7834 -39.6113 -39.5552 -38.5183 -38.0982 -37.8106 -37.0205
   -36.5525 -36.2960 -35.6658 -35.5808 -35.1399 -35.0176 -34.0537 -33.8352
   -33.7477 -33.2354 -33.2235 -32.7552 -32.7025 -32.3346 -32.2443 -32.0093
   -31.7459 -31.6683 -31.5152 -30.9920 -30.5025 -30.2271 -30.2018 -30.0208
   -30.0073 -29.7791 -29.6458 -29.3079 -29.1073 -29.0847 -28.8715 -28.7663
   -28.5840 -28.4995 -28.3689 -28.1942 -27.8634 -27.8518 -27.6821 -27.4762
   -27.2609 -27.0931 -27.0792 -26.9632 -26.7610 -26.6489 -26.4278 -26.3838
   -26.2683 -26.1711 -26.0249 -25.8267 -25.4823 -25.3052 -24.9285 -24.6465
   -22.0734 -21.3551 -21.0779 -20.6348 -20.2775 -20.1734 -19.9349 -19.6114
   -19.1627 -19.0316 -18.8440 -18.7721 -18.6020 -18.4079 -18.3905 -18.2127
   -17.9049 -17.6995 -17.5648 -17.5177 -17.3435 -17.1763 -16.9902 -16.7172
   -16.5848 -16.4357 -16.2454 -16.1638 -15.9892 -15.9269 -15.8201 -15.6723
   -15.5402 -15.4514 -15.3535 -15.2383 -15.2131 -14.9581 -14.9139 -14.7599
   -14.6101 -14.5147 -14.3740 -14.2330 -14.1134 -13.9943 -13.9622 -13.8567
   -13.8039 -13.6040 -13.4811 -13.3482 -13.2776 -13.2281 -13.0626 -12.6905
   -12.5171 -12.4213 -12.3556 -11.9630 -11.7762 -11.6208 -11.4956 -11.1660
   -10.8530 -10.1318  -9.8165  -9.5976  -9.5758  -9.3402  -9.1719  -9.1072
    -8.8585  -8.7497  -8.6532  -8.4696  -8.1893  -8.1412  -7.9981  -7.8853
    -7.7376  -7.6015  -7.5304  -7.2667  -7.1274  -7.0362  -6.9535  -6.7741
    -6.7020  -6.5067  -6.3886  -6.2755  -6.1214  -5.9716  -5.8301  -5.6813
    -5.5340  -5.5030  -5.3591  -5.2034  -5.1418  -5.0417  -4.8567  -4.7865
    -4.7356  -4.5431  -4.4890  -4.3998  -4.2825  -4.2262  -4.1837  -4.1718
    -3.9486  -3.8702  -3.7483  -3.6873  -3.4585  -3.4405  -3.4060  -3.2469
    -3.0677  -2.9938  -2.8575  -2.8014  -2.7622  -2.6426  -2.5310  -2.4347
    -2.3534  -2.2973  -2.2382  -2.0436  -2.0132  -1.9559  -1.7979  -1.6777
    -1.5355  -1.4556  -1.3473  -1.2543  -1.1183  -0.9247  -0.8563  -0.8235
    -0.7975  -0.5905  -0.5190  -0.4673  -0.3608  -0.1619  -0.0837   0.0548
     0.2263   0.3655   0.4719   0.5882   0.6482   0.6863   0.7170   0.9148
     1.0867   1.1797   1.2569   1.3821   1.5523   1.7103   1.8815   2.0031
     2.0405   2.2162   2.2968   2.3858   2.5301   2.6056   2.7383   2.8795
     2.9797   3.2759   3.3530   3.5040   3.6008   3.7643   3.8647   3.9717
     4.4283   4.4453   4.6691   4.7833   5.0210   5.3187   5.4366   5.5938
     5.6738   6.3120   6.4690   6.5008   6.8265   7.2364   7.3561   7.5112
     7.5992   7.6130   7.7234   7.8831   7.9261   8.4787   8.5884   8.6980
     8.8369   9.0611   9.1942   9.4094   9.5157   9.7743   9.8149  10.0183
    10.0543  10.1244  10.1763  10.3628  10.5138  10.5920  10.6466  10.7740
    10.8676  11.0497  11.1041  11.1923  11.2325  11.4228  11.5067  11.5509
    11.6963  11.6996  11.8830  11.9020  11.9811  12.0335  12.1290  12.1686
    12.2305  12.3258  12.3672

     the Fermi energy is     5.6797 ev

!    total energy              =   -1799.81145571 Ry
     Harris-Foulkes estimate   =   -1799.81145570 Ry
     estimated scf accuracy    <          3.6E-09 Ry

     The total energy is the sum of the following terms:

     one-electron contribution =  -14671.45832039 Ry
     hartree contribution      =    7506.03802238 Ry
     xc contribution           =    -636.74071852 Ry
     ewald contribution        =    6002.35255178 Ry
     smearing contrib. (-TS)   =      -0.00299096 Ry

     convergence has been achieved in  22 iterations

     Writing output data file pwscf.save
 
     init_run     :      0.55s CPU      0.61s WALL (       1 calls)
     electrons    :     50.71s CPU     52.30s WALL (       1 calls)

     Called by init_run:
     wfcinit      :      0.45s CPU      0.51s WALL (       1 calls)
     potinit      :      0.02s CPU      0.02s WALL (       1 calls)

     Called by electrons:
     c_bands      :     48.58s CPU     49.89s WALL (      22 calls)
     sum_band     :      1.79s CPU      1.84s WALL (      22 calls)
     v_of_rho     :      0.17s CPU      0.18s WALL (      23 calls)
     mix_rho      :      0.10s CPU      0.23s WALL (      22 calls)

     Called by c_bands:
     init_us_2    :      0.06s CPU      0.06s WALL (      45 calls)
     cegterg      :     48.44s CPU     49.68s WALL (      22 calls)

     Called by sum_band:

     Called by *egterg:
     h_psi        :      8.37s CPU      8.56s WALL (     105 calls)
     g_psi        :      0.07s CPU      0.07s WALL (      82 calls)
     cdiaghg      :     30.64s CPU     30.78s WALL (     104 calls)

     Called by h_psi:
     h_psi:pot    :      8.16s CPU      8.35s WALL (     105 calls)
     h_psi:calbec :      0.31s CPU      0.31s WALL (     105 calls)
     vloc_psi     :      7.59s CPU      7.77s WALL (     105 calls)
     add_vuspsi   :      0.27s CPU      0.27s WALL (     105 calls)

     General routines
     calbec       :      0.31s CPU      0.31s WALL (     105 calls)
     fft          :      0.10s CPU      0.10s WALL (     252 calls)
     fftw         :      8.43s CPU      8.64s WALL (   38204 calls)
     davcio       :      0.02s CPU      0.13s WALL (     348 calls)
 
     Parallel routines
     fft_scatter  :      2.88s CPU      2.98s WALL (   38456 calls)
 
     PWSCF        :    51.43s CPU        53.32s WALL

 
   This run was terminated on:  14: 6:42   2Feb2018            

=------------------------------------------------------------------------------=
   JOB DONE.
=------------------------------------------------------------------------------=
