
     Program PWSCF v.6.0 (svn rev. 13079) starts on  2Feb2018 at 15: 9:57 

     This program is part of the open-source Quantum ESPRESSO suite
     for quantum simulation of materials; please cite
         "P. Giannozzi et al., J. Phys.:Condens. Matter 21 395502 (2009);
          URL http://www.quantum-espresso.org", 
     in publications or presentations arising from this work. More details at
     http://www.quantum-espresso.org/quote

     Parallel version (MPI), running on    28 processors
     R & G space division:  proc/nbgrp/npool/nimage =      28
     Reading input from input/scf-bigwater-1/618.in
Warning: card &IONS ignored
Warning: card     POT_EXTRAPOLATION='SECOND-ORDER' ignored
Warning: card     WFC_EXTRAPOLATION='SECOND-ORDER' ignored
Warning: card     ION_TEMPERATURE = 'ANDERSEN' ignored
Warning: card     TEMPW = 1000 ignored
Warning: card / ignored

     Current dimensions of program PWSCF are:
     Max number of different atomic species (ntypx) = 10
     Max number of k-points (npk) =  40000
     Max angular momentum in pseudopotentials (lmaxx) =  3

     Subspace diagonalization in iterative solution of the eigenvalue problem:
     a serial algorithm will be used

 
     Parallelization info
     --------------------
     sticks:   dense  smooth     PW     G-vecs:    dense   smooth      PW
     Min         136     136     33                 6338     6338     787
     Max         137     137     34                 6341     6341     792
     Sum        3809    3809    949               177509   177509   22119
 


     bravais-lattice index     =            1
     lattice parameter (alat)  =      20.0000  a.u.
     unit-cell volume          =    8000.0000 (a.u.)^3
     number of atoms/cell      =          192
     number of atomic types    =            2
     number of electrons       =       512.00
     number of Kohn-Sham states=          307
     kinetic-energy cutoff     =      30.0000  Ry
     charge density cutoff     =     120.0000  Ry
     convergence threshold     =      1.0E-08
     mixing beta               =       0.7000
     number of iterations used =            8  plain     mixing
     Exchange-correlation      = BLYP ( 1  3  1  3 0 0)

     celldm(1)=  20.000000  celldm(2)=   0.000000  celldm(3)=   0.000000
     celldm(4)=   0.000000  celldm(5)=   0.000000  celldm(6)=   0.000000

     crystal axes: (cart. coord. in units of alat)
               a(1) = (   1.000000   0.000000   0.000000 )  
               a(2) = (   0.000000   1.000000   0.000000 )  
               a(3) = (   0.000000   0.000000   1.000000 )  

     reciprocal axes: (cart. coord. in units 2 pi/alat)
               b(1) = (  1.000000  0.000000  0.000000 )  
               b(2) = (  0.000000  1.000000  0.000000 )  
               b(3) = (  0.000000  0.000000  1.000000 )  


     PseudoPot. # 1 for  H read from file:
     ./H.blyp-hgh.UPF
     MD5 check sum: c576e69559cde411e611be972c763230
     Pseudo is Norm-conserving, Zval =  1.0
     Generated in analytical, separable form
     Using radial grid of  929 points,  0 beta functions with: 

     PseudoPot. # 2 for  O read from file:
     ./O.blyp-hgh.UPF
     MD5 check sum: d0b7156309aa9befef28faac7bc56342
     Pseudo is Norm-conserving, Zval =  6.0
     Generated in analytical, separable form
     Using radial grid of 1095 points,  1 beta functions with: 
                l(1) =   0

     atomic species   valence    mass     pseudopotential
        H              1.00     1.01000      H( 1.00)
        O              6.00    16.00000      O( 1.00)

     No symmetry found



   Cartesian axes

     site n.     atom                  positions (alat units)
         1           O   tau(   1) = (  -0.2648725  -0.0642038  -0.0751952  )
         2           O   tau(   2) = (   0.1580739  -0.1267311   0.2907008  )
         3           O   tau(   3) = (  -0.2709986   0.3080926  -0.2726361  )
         4           O   tau(   4) = (   0.0404900   0.1811392  -0.0472031  )
         5           O   tau(   5) = (  -0.2525437   0.0536737   0.1827271  )
         6           O   tau(   6) = (  -0.0015299   0.3118269   0.3036971  )
         7           O   tau(   7) = (  -0.0380086  -0.2681924  -0.1304656  )
         8           O   tau(   8) = (   0.1253955   0.0381597   0.2231417  )
         9           O   tau(   9) = (  -0.1469145  -0.2937257   0.2937854  )
        10           O   tau(  10) = (   0.1330734  -0.1246288   0.1554053  )
        11           O   tau(  11) = (   0.1241529  -0.3213432   0.1496002  )
        12           O   tau(  12) = (  -0.1816601  -0.1829769   0.2229669  )
        13           O   tau(  13) = (  -0.2335576  -0.3236217   0.0343024  )
        14           O   tau(  14) = (  -0.1782412  -0.2583089  -0.1808722  )
        15           O   tau(  15) = (   0.1392847  -0.1642406  -0.1086011  )
        16           O   tau(  16) = (  -0.0961965   0.1171042  -0.0334112  )
        17           O   tau(  17) = (  -0.0663915  -0.1454672   0.1301973  )
        18           O   tau(  18) = (   0.0231088  -0.2221799   0.1765668  )
        19           O   tau(  19) = (   0.2395842  -0.2247131  -0.2396431  )
        20           O   tau(  20) = (   0.2556697   0.2487776   0.1094018  )
        21           O   tau(  21) = (   0.2508481  -0.1772616   0.1744735  )
        22           O   tau(  22) = (  -0.1416038  -0.1333366  -0.1841562  )
        23           O   tau(  23) = (  -0.0607340   0.1466957  -0.2267145  )
        24           O   tau(  24) = (   0.2067299   0.1028750   0.1266285  )
        25           O   tau(  25) = (   0.1434629   0.0626506  -0.1940930  )
        26           O   tau(  26) = (  -0.2097790   0.1339599  -0.2920364  )
        27           O   tau(  27) = (   0.2538546  -0.2863132  -0.0386111  )
        28           O   tau(  28) = (   0.0788507  -0.0126736  -0.2766800  )
        29           O   tau(  29) = (  -0.0864084   0.0138674  -0.2585058  )
        30           O   tau(  30) = (   0.0611103  -0.0377150   0.0637998  )
        31           O   tau(  31) = (   0.2777889  -0.0893194  -0.1879060  )
        32           O   tau(  32) = (   0.2353338  -0.0101742  -0.0269535  )
        33           O   tau(  33) = (   0.0139571   0.2144790   0.1963260  )
        34           O   tau(  34) = (  -0.2349197   0.0323103  -0.2001781  )
        35           O   tau(  35) = (   0.0421231  -0.1906143  -0.0157056  )
        36           O   tau(  36) = (   0.2302323   0.2101198  -0.2852751  )
        37           O   tau(  37) = (   0.1153408   0.3028440   0.2712799  )
        38           O   tau(  38) = (  -0.2783059   0.2524824  -0.0937704  )
        39           O   tau(  39) = (  -0.0132791   0.0626056  -0.1154690  )
        40           O   tau(  40) = (  -0.1864619  -0.1951767  -0.0468901  )
        41           O   tau(  41) = (  -0.1524402   0.2826197   0.1476088  )
        42           O   tau(  42) = (  -0.0984942   0.1551772   0.2291647  )
        43           O   tau(  43) = (  -0.0980914  -0.0772154  -0.0286682  )
        44           O   tau(  44) = (  -0.0679577  -0.0799665   0.2658618  )
        45           O   tau(  45) = (   0.0147240   0.1065595   0.2827411  )
        46           O   tau(  46) = (  -0.2384640   0.1641608   0.0649655  )
        47           O   tau(  47) = (   0.1598825   0.2136998  -0.0745428  )
        48           O   tau(  48) = (   0.1110352  -0.2887118  -0.2002615  )
        49           O   tau(  49) = (  -0.1515008   0.2185458  -0.1501443  )
        50           O   tau(  50) = (   0.2215737   0.0342454   0.3240222  )
        51           O   tau(  51) = (  -0.1080072   0.0230322   0.1042234  )
        52           O   tau(  52) = (  -0.0015544  -0.0962742  -0.1742142  )
        53           O   tau(  53) = (   0.0021247  -0.1735532  -0.2854900  )
        54           O   tau(  54) = (   0.3121416  -0.2998858   0.2176616  )
        55           O   tau(  55) = (   0.1875214  -0.1613233   0.0231370  )
        56           O   tau(  56) = (   0.2753040  -0.0324552   0.1386586  )
        57           O   tau(  57) = (   0.0857643   0.1940267  -0.2198046  )
        58           O   tau(  58) = (  -0.0750775  -0.3115207  -0.0158379  )
        59           O   tau(  59) = (  -0.2636344  -0.0878784  -0.2980816  )
        60           O   tau(  60) = (  -0.2282160   0.0600244  -0.0544609  )
        61           O   tau(  61) = (   0.2485923   0.1487688  -0.1568393  )
        62           O   tau(  62) = (   0.1066639  -0.0274311  -0.0710793  )
        63           O   tau(  63) = (  -0.2429572  -0.1293958   0.0487926  )
        64           O   tau(  64) = (   0.0930123   0.1351396   0.0634085  )
        65           H   tau(  65) = (  -0.2396245  -0.0751007  -0.1157555  )
        66           H   tau(  66) = (  -0.2426645  -0.0221590  -0.0615885  )
        67           H   tau(  67) = (   0.2036121  -0.1202306   0.3077556  )
        68           H   tau(  68) = (   0.1592806  -0.1231314   0.2419281  )
        69           H   tau(  69) = (  -0.2978316   0.2668496  -0.2749926  )
        70           H   tau(  70) = (  -0.2685730   0.3189878  -0.2250682  )
        71           H   tau(  71) = (   0.0317725   0.1552768  -0.0889173  )
        72           H   tau(  72) = (   0.0846756   0.2032339  -0.0548838  )
        73           H   tau(  73) = (  -0.2598711   0.0138475   0.1559311  )
        74           H   tau(  74) = (  -0.2630587   0.0414143   0.2290658  )
        75           H   tau(  75) = (  -0.0041126   0.3335269   0.2592407  )
        76           H   tau(  76) = (   0.0484678   0.3031623   0.3004860  )
        77           H   tau(  77) = (  -0.0656552  -0.2844161  -0.0919706  )
        78           H   tau(  78) = (  -0.0069913  -0.3062044  -0.1332572  )
        79           H   tau(  79) = (   0.1527157   0.0617138   0.1890596  )
        80           H   tau(  80) = (   0.0977456   0.0724418   0.2443592  )
        81           H   tau(  81) = (  -0.1734423  -0.2736822   0.3303422  )
        82           H   tau(  82) = (  -0.1030880  -0.3020891   0.3137262  )
        83           H   tau(  83) = (   0.1124015  -0.1010462   0.1157905  )
        84           H   tau(  84) = (   0.1531250  -0.1610060   0.1285765  )
        85           H   tau(  85) = (   0.1509223  -0.3484530   0.1188560  )
        86           H   tau(  86) = (   0.0763191  -0.3219387   0.1397247  )
        87           H   tau(  87) = (  -0.1519195  -0.2197665   0.2376265  )
        88           H   tau(  88) = (  -0.2261973  -0.1988888   0.2354701  )
        89           H   tau(  89) = (  -0.2369858  -0.3726843   0.0321342  )
        90           H   tau(  90) = (  -0.2433124  -0.3158418  -0.0133664  )
        91           H   tau(  91) = (  -0.1742800  -0.2089186  -0.1856298  )
        92           H   tau(  92) = (  -0.1289992  -0.2667866  -0.1796786  )
        93           H   tau(  93) = (   0.1141712  -0.1223165  -0.1124842  )
        94           H   tau(  94) = (   0.1219428  -0.1803142  -0.0652015  )
        95           H   tau(  95) = (  -0.1373616   0.1239820  -0.0610396  )
        96           H   tau(  96) = (  -0.0853089   0.1640068  -0.0212295  )
        97           H   tau(  97) = (  -0.0718634  -0.1768976   0.0929757  )
        98           H   tau(  98) = (  -0.0654219  -0.1004151   0.1106640  )
        99           H   tau(  99) = (   0.0664071  -0.2028460   0.1629393  )
       100           H   tau( 100) = (  -0.0035882  -0.1836662   0.1580110  )
       101           H   tau( 101) = (   0.2686274  -0.2509494  -0.2694639  )
       102           H   tau( 102) = (   0.2343877  -0.1778263  -0.2504568  )
       103           H   tau( 103) = (   0.2744214   0.2855449   0.1355288  )
       104           H   tau( 104) = (   0.2958899   0.2232175   0.1001488  )
       105           H   tau( 105) = (   0.2785992  -0.1383766   0.1628701  )
       106           H   tau( 106) = (   0.2094817  -0.1563413   0.1891486  )
       107           H   tau( 107) = (  -0.0922679  -0.1239757  -0.1820213  )
       108           H   tau( 108) = (  -0.1566248  -0.1020194  -0.2184751  )
       109           H   tau( 109) = (  -0.0158273   0.1447763  -0.2083592  )
       110           H   tau( 110) = (  -0.0706539   0.0987459  -0.2319733  )
       111           H   tau( 111) = (   0.2404972   0.1264240   0.1522226  )
       112           H   tau( 112) = (   0.1698383   0.1335914   0.1156549  )
       113           H   tau( 113) = (   0.1177269   0.0245612  -0.2139151  )
       114           H   tau( 114) = (   0.1168446   0.1038028  -0.1990280  )
       115           H   tau( 115) = (  -0.2324521   0.1009302  -0.2618044  )
       116           H   tau( 116) = (  -0.1695949   0.1063766  -0.3003898  )
       117           H   tau( 117) = (   0.2892808  -0.3025712  -0.0086361  )
       118           H   tau( 118) = (   0.2608932  -0.3165291  -0.0767408  )
       119           H   tau( 119) = (   0.1068203  -0.0374411  -0.3083347  )
       120           H   tau( 120) = (   0.0395856   0.0017771  -0.3010114  )
       121           H   tau( 121) = (  -0.0729931  -0.0186919  -0.2946990  )
       122           H   tau( 122) = (  -0.1334786   0.0014212  -0.2557333  )
       123           H   tau( 123) = (   0.0535539   0.0069974   0.0811655  )
       124           H   tau( 124) = (   0.0702901  -0.0307988   0.0154704  )
       125           H   tau( 125) = (   0.2513469  -0.1264214  -0.1687819  )
       126           H   tau( 126) = (   0.3182119  -0.0870763  -0.1610600  )
       127           H   tau( 127) = (   0.2518126   0.0312155  -0.0465658  )
       128           H   tau( 128) = (   0.2677471  -0.0444075  -0.0421005  )
       129           H   tau( 129) = (   0.0085750   0.2456648   0.2335545  )
       130           H   tau( 130) = (  -0.0292810   0.2061584   0.1752954  )
       131           H   tau( 131) = (  -0.1932729   0.0380783  -0.1739657  )
       132           H   tau( 132) = (  -0.2681797   0.0515112  -0.1694038  )
       133           H   tau( 133) = (   0.0236212  -0.2071432  -0.0582245  )
       134           H   tau( 134) = (   0.0309494  -0.1432065  -0.0173419  )
       135           H   tau( 135) = (   0.1966722   0.2425064  -0.2731940  )
       136           H   tau( 136) = (   0.2228051   0.1952737  -0.3307203  )
       137           H   tau( 137) = (   0.1296127   0.2944295   0.2212604  )
       138           H   tau( 138) = (   0.1332684   0.3485032   0.2710824  )
       139           H   tau( 139) = (  -0.2918627   0.2145342  -0.1209644  )
       140           H   tau( 140) = (  -0.2510317   0.2846127  -0.1186993  )
       141           H   tau( 141) = (  -0.0256756   0.0359042  -0.0758328  )
       142           H   tau( 142) = (  -0.0262828   0.0332700  -0.1526234  )
       143           H   tau( 143) = (  -0.1908135  -0.2441349  -0.0491807  )
       144           H   tau( 144) = (  -0.2057128  -0.1803445  -0.0039064  )
       145           H   tau( 145) = (  -0.1964450   0.3040420   0.1523274  )
       146           H   tau( 146) = (  -0.1341039   0.2835647   0.1933890  )
       147           H   tau( 147) = (  -0.1355147   0.1806124   0.2097739  )
       148           H   tau( 148) = (  -0.0959474   0.1683586   0.2764578  )
       149           H   tau( 149) = (  -0.1249612  -0.1094558  -0.0543493  )
       150           H   tau( 150) = (  -0.1090199  -0.0897364   0.0172514  )
       151           H   tau( 151) = (  -0.1096925  -0.0851543   0.2412658  )
       152           H   tau( 152) = (  -0.0427939  -0.1220619   0.2659709  )
       153           H   tau( 153) = (  -0.0105060   0.0907119   0.2432238  )
       154           H   tau( 154) = (   0.0045282   0.1546850   0.2849857  )
       155           H   tau( 155) = (  -0.2654247   0.1413496   0.0990060  )
       156           H   tau( 156) = (  -0.1919945   0.1590007   0.0814583  )
       157           H   tau( 157) = (   0.1914829   0.2397727  -0.0474549  )
       158           H   tau( 158) = (   0.1858729   0.2019452  -0.1149912  )
       159           H   tau( 159) = (   0.1330839  -0.2852974  -0.2441434  )
       160           H   tau( 160) = (   0.1298015  -0.2478929  -0.1795757  )
       161           H   tau( 161) = (  -0.1397987   0.1883114  -0.1878656  )
       162           H   tau( 162) = (  -0.1028082   0.2274848  -0.1441995  )
       163           H   tau( 163) = (   0.1955663   0.0590063   0.3586604  )
       164           H   tau( 164) = (   0.1882199   0.0274561   0.2892783  )
       165           H   tau( 165) = (  -0.0801431   0.0633220   0.1010296  )
       166           H   tau( 166) = (  -0.1391221   0.0369032   0.1396153  )
       167           H   tau( 167) = (  -0.0052666  -0.0478142  -0.1735599  )
       168           H   tau( 168) = (   0.0080256  -0.1054863  -0.2214509  )
       169           H   tau( 169) = (  -0.0248572  -0.2085411  -0.3061731  )
       170           H   tau( 170) = (   0.0434969  -0.1989928  -0.2787389  )
       171           H   tau( 171) = (   0.3379855  -0.3047275   0.2593328  )
       172           H   tau( 172) = (   0.3040459  -0.2519826   0.2084781  )
       173           H   tau( 173) = (   0.2224578  -0.1919539   0.0386707  )
       174           H   tau( 174) = (   0.1892182  -0.1728419  -0.0244444  )
       175           H   tau( 175) = (   0.2435497  -0.0339091   0.1011129  )
       176           H   tau( 176) = (   0.2451628  -0.0344130   0.1770169  )
       177           H   tau( 177) = (   0.0839575   0.1936355  -0.2680234  )
       178           H   tau( 178) = (   0.1106874   0.2306876  -0.2004920  )
       179           H   tau( 179) = (  -0.0264022  -0.3144134  -0.0148981  )
       180           H   tau( 180) = (  -0.0918315  -0.3054521   0.0298033  )
       181           H   tau( 181) = (  -0.2918370  -0.0933460  -0.2573016  )
       182           H   tau( 182) = (  -0.2341780  -0.1269203  -0.3029577  )
       183           H   tau( 183) = (  -0.1851967   0.0619979  -0.0302665  )
       184           H   tau( 184) = (  -0.2544257   0.0938620  -0.0306029  )
       185           H   tau( 185) = (   0.2596579   0.1674557  -0.2011854  )
       186           H   tau( 186) = (   0.2203676   0.1099286  -0.1717854  )
       187           H   tau( 187) = (   0.1548043  -0.0197494  -0.0575133  )
       188           H   tau( 188) = (   0.0881984   0.0163407  -0.0857452  )
       189           H   tau( 189) = (  -0.2599388  -0.0834732   0.0506465  )
       190           H   tau( 190) = (  -0.2293195  -0.1377140   0.0956482  )
       191           H   tau( 191) = (   0.0576325   0.1377565   0.0971238  )
       192           H   tau( 192) = (   0.0692996   0.1435483   0.0200537  )

     number of k points=     1  Marzari-Vanderbilt smearing, width (Ry)=  0.0250
                       cart. coord. in units 2pi/alat
        k(    1) = (   0.0000000   0.0000000   0.0000000), wk =   2.0000000

     Dense  grid:   177509 G-vectors     FFT dimensions: (  72,  72,  72)

     Estimated max dynamical RAM per process >      67.80Mb

     Estimated total allocated dynamical RAM >    1898.40Mb

     Initial potential from superposition of free atoms
     Check: negative starting charge=   -0.793747

     starting charge  511.99856, renormalised to  512.00000

     negative rho (up, down):  7.937E-01 0.000E+00
     Starting wfc are  384 randomized atomic wfcs

     total cpu time spent up to now is        0.8 secs

     per-process dynamical memory:    45.9 Mb

     Self-consistent Calculation

     iteration #  1     ecut=    30.00 Ry     beta=0.70
     Davidson diagonalization with overlap
     ethr =  1.00E-02,  avg # of iterations =  9.0

     negative rho (up, down):  1.888E-01 0.000E+00

     total cpu time spent up to now is       10.0 secs

     total energy              =   -1791.70889692 Ry
     Harris-Foulkes estimate   =   -1819.92538203 Ry
     estimated scf accuracy    <      43.04534578 Ry

     iteration #  2     ecut=    30.00 Ry     beta=0.70
     Davidson diagonalization with overlap
     ethr =  8.41E-03,  avg # of iterations =  4.0

     negative rho (up, down):  8.025E-04 0.000E+00

     total cpu time spent up to now is       13.2 secs

     total energy              =   -1769.42611333 Ry
     Harris-Foulkes estimate   =   -1807.28629276 Ry
     estimated scf accuracy    <      90.38911842 Ry

     iteration #  3     ecut=    30.00 Ry     beta=0.70
     Davidson diagonalization with overlap
     ethr =  8.41E-03,  avg # of iterations =  5.0

     negative rho (up, down):  4.984E-07 0.000E+00

     total cpu time spent up to now is       16.9 secs

     total energy              =   -1795.08146702 Ry
     Harris-Foulkes estimate   =   -1807.52997173 Ry
     estimated scf accuracy    <      38.45099894 Ry

     iteration #  4     ecut=    30.00 Ry     beta=0.70
     Davidson diagonalization with overlap
     ethr =  7.51E-03,  avg # of iterations =  3.0

     total cpu time spent up to now is       18.8 secs

     total energy              =   -1800.01542220 Ry
     Harris-Foulkes estimate   =   -1802.37132730 Ry
     estimated scf accuracy    <       7.57203311 Ry

     iteration #  5     ecut=    30.00 Ry     beta=0.70
     Davidson diagonalization with overlap
     ethr =  1.48E-03,  avg # of iterations =  4.0

     total cpu time spent up to now is       20.9 secs

     total energy              =   -1799.72983044 Ry
     Harris-Foulkes estimate   =   -1800.44472253 Ry
     estimated scf accuracy    <       3.01718116 Ry

     iteration #  6     ecut=    30.00 Ry     beta=0.70
     Davidson diagonalization with overlap
     ethr =  5.89E-04,  avg # of iterations =  5.0

     total cpu time spent up to now is       23.3 secs

     total energy              =   -1799.59188032 Ry
     Harris-Foulkes estimate   =   -1799.84947640 Ry
     estimated scf accuracy    <       1.58549551 Ry

     iteration #  7     ecut=    30.00 Ry     beta=0.70
     Davidson diagonalization with overlap
     ethr =  3.10E-04,  avg # of iterations =  3.0

     total cpu time spent up to now is       25.1 secs

     total energy              =   -1799.52381617 Ry
     Harris-Foulkes estimate   =   -1799.64639612 Ry
     estimated scf accuracy    <       0.80727689 Ry

     iteration #  8     ecut=    30.00 Ry     beta=0.70
     Davidson diagonalization with overlap
     ethr =  1.58E-04,  avg # of iterations =  8.0

     total cpu time spent up to now is       28.4 secs

     total energy              =   -1799.43474566 Ry
     Harris-Foulkes estimate   =   -1799.56414932 Ry
     estimated scf accuracy    <       0.44214235 Ry

     iteration #  9     ecut=    30.00 Ry     beta=0.70
     Davidson diagonalization with overlap
     ethr =  8.64E-05,  avg # of iterations =  4.0

     total cpu time spent up to now is       30.5 secs

     total energy              =   -1799.44432178 Ry
     Harris-Foulkes estimate   =   -1799.46926160 Ry
     estimated scf accuracy    <       0.13575621 Ry

     iteration # 10     ecut=    30.00 Ry     beta=0.70
     Davidson diagonalization with overlap
     ethr =  2.65E-05,  avg # of iterations =  5.0

     total cpu time spent up to now is       32.9 secs

     total energy              =   -1799.44729645 Ry
     Harris-Foulkes estimate   =   -1799.47466049 Ry
     estimated scf accuracy    <       0.17376336 Ry

     iteration # 11     ecut=    30.00 Ry     beta=0.70
     Davidson diagonalization with overlap
     ethr =  2.65E-05,  avg # of iterations =  3.0

     total cpu time spent up to now is       34.6 secs

     total energy              =   -1799.44950972 Ry
     Harris-Foulkes estimate   =   -1799.45573679 Ry
     estimated scf accuracy    <       0.02949394 Ry

     iteration # 12     ecut=    30.00 Ry     beta=0.70
     Davidson diagonalization with overlap
     ethr =  5.76E-06,  avg # of iterations =  5.0

     total cpu time spent up to now is       37.3 secs

     total energy              =   -1799.45133608 Ry
     Harris-Foulkes estimate   =   -1799.45641223 Ry
     estimated scf accuracy    <       0.03408364 Ry

     iteration # 13     ecut=    30.00 Ry     beta=0.70
     Davidson diagonalization with overlap
     ethr =  5.76E-06,  avg # of iterations =  2.0

     total cpu time spent up to now is       38.7 secs

     total energy              =   -1799.45337089 Ry
     Harris-Foulkes estimate   =   -1799.45435952 Ry
     estimated scf accuracy    <       0.00353115 Ry

     iteration # 14     ecut=    30.00 Ry     beta=0.70
     Davidson diagonalization with overlap
     ethr =  6.90E-07,  avg # of iterations =  2.0

     total cpu time spent up to now is       40.1 secs

     total energy              =   -1799.45371001 Ry
     Harris-Foulkes estimate   =   -1799.45431928 Ry
     estimated scf accuracy    <       0.00335220 Ry

     iteration # 15     ecut=    30.00 Ry     beta=0.70
     Davidson diagonalization with overlap
     ethr =  6.55E-07,  avg # of iterations =  2.0

     total cpu time spent up to now is       41.5 secs

     total energy              =   -1799.45400051 Ry
     Harris-Foulkes estimate   =   -1799.45407339 Ry
     estimated scf accuracy    <       0.00039009 Ry

     iteration # 16     ecut=    30.00 Ry     beta=0.70
     Davidson diagonalization with overlap
     ethr =  7.62E-08,  avg # of iterations =  2.0

     total cpu time spent up to now is       42.9 secs

     total energy              =   -1799.45404227 Ry
     Harris-Foulkes estimate   =   -1799.45405012 Ry
     estimated scf accuracy    <       0.00005172 Ry

     iteration # 17     ecut=    30.00 Ry     beta=0.70
     Davidson diagonalization with overlap
     ethr =  1.01E-08,  avg # of iterations =  2.0

     total cpu time spent up to now is       44.4 secs

     total energy              =   -1799.45404836 Ry
     Harris-Foulkes estimate   =   -1799.45404931 Ry
     estimated scf accuracy    <       0.00001578 Ry

     iteration # 18     ecut=    30.00 Ry     beta=0.70
     Davidson diagonalization with overlap
     ethr =  3.08E-09,  avg # of iterations =  2.0

     total cpu time spent up to now is       45.8 secs

     total energy              =   -1799.45404961 Ry
     Harris-Foulkes estimate   =   -1799.45404955 Ry
     estimated scf accuracy    <       0.00000035 Ry

     iteration # 19     ecut=    30.00 Ry     beta=0.70
     Davidson diagonalization with overlap
     ethr =  6.74E-11,  avg # of iterations =  3.0

     total cpu time spent up to now is       47.9 secs

     total energy              =   -1799.45404976 Ry
     Harris-Foulkes estimate   =   -1799.45404973 Ry
     estimated scf accuracy    <       0.00000025 Ry

     iteration # 20     ecut=    30.00 Ry     beta=0.70
     Davidson diagonalization with overlap
     ethr =  4.80E-11,  avg # of iterations =  3.0

     total cpu time spent up to now is       49.7 secs

     total energy              =   -1799.45404979 Ry
     Harris-Foulkes estimate   =   -1799.45404981 Ry
     estimated scf accuracy    <       0.00000011 Ry

     iteration # 21     ecut=    30.00 Ry     beta=0.70
     Davidson diagonalization with overlap
     ethr =  2.17E-11,  avg # of iterations =  2.0

     total cpu time spent up to now is       51.1 secs

     total energy              =   -1799.45404982 Ry
     Harris-Foulkes estimate   =   -1799.45404981 Ry
     estimated scf accuracy    <       0.00000002 Ry

     iteration # 22     ecut=    30.00 Ry     beta=0.70
     Davidson diagonalization with overlap
     ethr =  3.45E-12,  avg # of iterations =  3.0

     total cpu time spent up to now is       53.0 secs

     End of self-consistent calculation

          k = 0.0000 0.0000 0.0000 ( 22119 PWs)   bands (ev):

   -41.4378 -40.7529 -40.1704 -39.1547 -38.9315 -38.2005 -37.9547 -37.9164
   -37.1066 -36.8783 -36.5212 -36.2610 -35.7937 -35.2123 -34.6635 -34.5693
   -33.4836 -33.2542 -32.9060 -32.7556 -32.5311 -32.3415 -32.1172 -31.7782
   -31.5504 -31.4582 -31.2022 -30.9702 -30.7735 -30.6030 -30.1472 -30.1101
   -29.9838 -29.6731 -29.5808 -29.4034 -29.3711 -29.2748 -28.8146 -28.7400
   -28.5468 -28.4836 -28.1482 -28.0913 -28.0323 -27.9413 -27.7883 -27.7349
   -27.6817 -27.5290 -27.3084 -27.2692 -27.1140 -26.9444 -26.7589 -26.7141
   -26.2154 -26.0277 -25.8972 -25.7409 -25.3840 -25.2236 -25.0115 -24.6462
   -22.9647 -21.3685 -21.1653 -20.7449 -20.7365 -20.3829 -20.1765 -19.9762
   -19.7431 -19.6418 -19.2578 -19.1284 -19.0143 -18.9262 -18.7776 -18.5296
   -18.4097 -18.3000 -17.8888 -17.6588 -17.3854 -17.2004 -17.1401 -17.0357
   -16.7420 -16.6548 -16.3449 -16.1404 -15.9641 -15.7277 -15.5597 -15.4075
   -15.3189 -15.2239 -15.1678 -15.0395 -14.8656 -14.8424 -14.7724 -14.6383
   -14.4730 -14.2674 -14.2398 -14.1435 -14.0956 -14.0097 -13.8911 -13.8187
   -13.4833 -13.4629 -13.1730 -13.1350 -13.0432 -13.0160 -12.8418 -12.6957
   -12.4408 -12.2446 -12.1383 -12.0485 -11.9545 -11.5558 -11.3672 -10.7276
   -10.4285 -10.2044 -10.0118  -9.8052  -9.5894  -9.5558  -9.1943  -9.0545
    -8.9017  -8.7396  -8.5766  -8.4664  -8.3960  -8.1035  -7.8114  -7.7574
    -7.6577  -7.5226  -7.4563  -7.3150  -7.0511  -6.9447  -6.9081  -6.7207
    -6.6250  -6.5612  -6.4041  -6.0540  -5.9861  -5.9221  -5.8514  -5.7647
    -5.6132  -5.4327  -5.3971  -5.2989  -5.1847  -5.0212  -4.8569  -4.8172
    -4.7326  -4.5657  -4.3543  -4.3176  -4.2176  -4.0659  -3.9644  -3.9190
    -3.7655  -3.6460  -3.5587  -3.4664  -3.3733  -3.2491  -3.0273  -2.9914
    -2.9111  -2.8715  -2.8071  -2.6720  -2.5750  -2.5051  -2.4738  -2.3962
    -2.3532  -2.1860  -2.1058  -1.9829  -1.9061  -1.7932  -1.7726  -1.5690
    -1.4129  -1.3750  -1.2580  -1.1721  -1.0326  -0.8868  -0.7674  -0.6057
    -0.5740  -0.5449  -0.4445  -0.4025  -0.1956  -0.1874   0.0292   0.1570
     0.2185   0.2727   0.3816   0.4662   0.5199   0.6001   0.6917   0.8274
     0.9790   0.9906   1.1133   1.2089   1.3544   1.5399   1.6092   1.7632
     1.8547   2.0522   2.2923   2.4956   2.6585   2.7357   2.8400   3.0850
     3.4353   3.4531   3.5138   3.6277   3.7790   3.9449   3.9833   4.0826
     4.4147   4.4498   4.6718   4.8381   5.1200   5.2524   5.4130   5.5373
     5.6928   6.3795   6.4617   6.6384   6.8119   7.1945   7.3591   7.4107
     7.5489   7.6475   7.7052   7.8785   7.9992   8.4076   8.6282   8.7238
     8.7849   9.0731   9.2066   9.4622   9.5714   9.6800   9.8699   9.9071
     9.9926  10.0184  10.1823  10.4339  10.5296  10.6577  10.6768  10.6897
    10.8462  10.9467  11.0995  11.1897  11.3397  11.4168  11.4678  11.5516
    11.5993  11.6713  11.8050  11.8399  11.8759  12.0331  12.1049  12.1407
    12.2023  12.2835  12.3084

     the Fermi energy is     5.6469 ev

!    total energy              =   -1799.45404984 Ry
     Harris-Foulkes estimate   =   -1799.45404983 Ry
     estimated scf accuracy    <          8.0E-09 Ry

     The total energy is the sum of the following terms:

     one-electron contribution =  -14491.86863468 Ry
     hartree contribution      =    7415.60271930 Ry
     xc contribution           =    -636.54879780 Ry
     ewald contribution        =    5913.35785074 Ry
     smearing contrib. (-TS)   =       0.00281259 Ry

     convergence has been achieved in  22 iterations

     Writing output data file pwscf.save
 
     init_run     :      0.56s CPU      0.63s WALL (       1 calls)
     electrons    :     50.85s CPU     52.39s WALL (       1 calls)

     Called by init_run:
     wfcinit      :      0.46s CPU      0.52s WALL (       1 calls)
     potinit      :      0.02s CPU      0.02s WALL (       1 calls)

     Called by electrons:
     c_bands      :     48.73s CPU     49.94s WALL (      22 calls)
     sum_band     :      1.75s CPU      1.79s WALL (      22 calls)
     v_of_rho     :      0.18s CPU      0.20s WALL (      23 calls)
     mix_rho      :      0.12s CPU      0.25s WALL (      22 calls)

     Called by c_bands:
     init_us_2    :      0.05s CPU      0.06s WALL (      45 calls)
     cegterg      :     48.60s CPU     49.75s WALL (      22 calls)

     Called by sum_band:

     Called by *egterg:
     h_psi        :      8.36s CPU      8.50s WALL (     104 calls)
     g_psi        :      0.07s CPU      0.07s WALL (      81 calls)
     cdiaghg      :     30.86s CPU     30.90s WALL (     103 calls)

     Called by h_psi:
     h_psi:pot    :      8.15s CPU      8.30s WALL (     104 calls)
     h_psi:calbec :      0.30s CPU      0.31s WALL (     104 calls)
     vloc_psi     :      7.58s CPU      7.71s WALL (     104 calls)
     add_vuspsi   :      0.27s CPU      0.27s WALL (     104 calls)

     General routines
     calbec       :      0.30s CPU      0.31s WALL (     104 calls)
     fft          :      0.10s CPU      0.11s WALL (     252 calls)
     fftw         :      8.37s CPU      8.53s WALL (   38028 calls)
     davcio       :      0.02s CPU      0.16s WALL (     348 calls)
 
     Parallel routines
     fft_scatter  :      2.77s CPU      2.84s WALL (   38280 calls)
 
     PWSCF        :    51.56s CPU        53.38s WALL

 
   This run was terminated on:  15:10:51   2Feb2018            

=------------------------------------------------------------------------------=
   JOB DONE.
=------------------------------------------------------------------------------=
