
     Program PWSCF v.6.0 (svn rev. 13079) starts on  2Feb2018 at 15:39:55 

     This program is part of the open-source Quantum ESPRESSO suite
     for quantum simulation of materials; please cite
         "P. Giannozzi et al., J. Phys.:Condens. Matter 21 395502 (2009);
          URL http://www.quantum-espresso.org", 
     in publications or presentations arising from this work. More details at
     http://www.quantum-espresso.org/quote

     Parallel version (MPI), running on    28 processors
     R & G space division:  proc/nbgrp/npool/nimage =      28
     Reading input from input/scf-bigwater-1/650.in
Warning: card &IONS ignored
Warning: card     POT_EXTRAPOLATION='SECOND-ORDER' ignored
Warning: card     WFC_EXTRAPOLATION='SECOND-ORDER' ignored
Warning: card     ION_TEMPERATURE = 'ANDERSEN' ignored
Warning: card     TEMPW = 1000 ignored
Warning: card / ignored

     Current dimensions of program PWSCF are:
     Max number of different atomic species (ntypx) = 10
     Max number of k-points (npk) =  40000
     Max angular momentum in pseudopotentials (lmaxx) =  3

     Subspace diagonalization in iterative solution of the eigenvalue problem:
     a serial algorithm will be used

 
     Parallelization info
     --------------------
     sticks:   dense  smooth     PW     G-vecs:    dense   smooth      PW
     Min         136     136     33                 6338     6338     787
     Max         137     137     34                 6341     6341     792
     Sum        3809    3809    949               177509   177509   22119
 


     bravais-lattice index     =            1
     lattice parameter (alat)  =      20.0000  a.u.
     unit-cell volume          =    8000.0000 (a.u.)^3
     number of atoms/cell      =          192
     number of atomic types    =            2
     number of electrons       =       512.00
     number of Kohn-Sham states=          307
     kinetic-energy cutoff     =      30.0000  Ry
     charge density cutoff     =     120.0000  Ry
     convergence threshold     =      1.0E-08
     mixing beta               =       0.7000
     number of iterations used =            8  plain     mixing
     Exchange-correlation      = BLYP ( 1  3  1  3 0 0)

     celldm(1)=  20.000000  celldm(2)=   0.000000  celldm(3)=   0.000000
     celldm(4)=   0.000000  celldm(5)=   0.000000  celldm(6)=   0.000000

     crystal axes: (cart. coord. in units of alat)
               a(1) = (   1.000000   0.000000   0.000000 )  
               a(2) = (   0.000000   1.000000   0.000000 )  
               a(3) = (   0.000000   0.000000   1.000000 )  

     reciprocal axes: (cart. coord. in units 2 pi/alat)
               b(1) = (  1.000000  0.000000  0.000000 )  
               b(2) = (  0.000000  1.000000  0.000000 )  
               b(3) = (  0.000000  0.000000  1.000000 )  


     PseudoPot. # 1 for  H read from file:
     ./H.blyp-hgh.UPF
     MD5 check sum: c576e69559cde411e611be972c763230
     Pseudo is Norm-conserving, Zval =  1.0
     Generated in analytical, separable form
     Using radial grid of  929 points,  0 beta functions with: 

     PseudoPot. # 2 for  O read from file:
     ./O.blyp-hgh.UPF
     MD5 check sum: d0b7156309aa9befef28faac7bc56342
     Pseudo is Norm-conserving, Zval =  6.0
     Generated in analytical, separable form
     Using radial grid of 1095 points,  1 beta functions with: 
                l(1) =   0

     atomic species   valence    mass     pseudopotential
        H              1.00     1.01000      H( 1.00)
        O              6.00    16.00000      O( 1.00)

     No symmetry found



   Cartesian axes

     site n.     atom                  positions (alat units)
         1           O   tau(   1) = (  -0.2656855  -0.0654365  -0.0731854  )
         2           O   tau(   2) = (   0.1538873  -0.1288774   0.2919845  )
         3           O   tau(   3) = (  -0.2716858   0.3095233  -0.2739483  )
         4           O   tau(   4) = (   0.0459507   0.1803875  -0.0468630  )
         5           O   tau(   5) = (  -0.2532489   0.0557917   0.1811210  )
         6           O   tau(   6) = (  -0.0031459   0.3127696   0.3056261  )
         7           O   tau(   7) = (  -0.0400160  -0.2689621  -0.1280779  )
         8           O   tau(   8) = (   0.1270881   0.0403002   0.2236077  )
         9           O   tau(   9) = (  -0.1473110  -0.2965906   0.2947330  )
        10           O   tau(  10) = (   0.1326507  -0.1253366   0.1569946  )
        11           O   tau(  11) = (   0.1233288  -0.3195607   0.1479414  )
        12           O   tau(  12) = (  -0.1782903  -0.1821918   0.2212765  )
        13           O   tau(  13) = (  -0.2351042  -0.3287104   0.0357228  )
        14           O   tau(  14) = (  -0.1799644  -0.2561645  -0.1783616  )
        15           O   tau(  15) = (   0.1392274  -0.1645211  -0.1069983  )
        16           O   tau(  16) = (  -0.0975279   0.1194983  -0.0338745  )
        17           O   tau(  17) = (  -0.0662155  -0.1473143   0.1288299  )
        18           O   tau(  18) = (   0.0259774  -0.2209376   0.1756451  )
        19           O   tau(  19) = (   0.2387408  -0.2248160  -0.2391249  )
        20           O   tau(  20) = (   0.2584323   0.2465762   0.1083900  )
        21           O   tau(  21) = (   0.2505766  -0.1791687   0.1735447  )
        22           O   tau(  22) = (  -0.1387482  -0.1320244  -0.1813857  )
        23           O   tau(  23) = (  -0.0615694   0.1470605  -0.2253443  )
        24           O   tau(  24) = (   0.2058866   0.1005553   0.1246003  )
        25           O   tau(  25) = (   0.1433434   0.0611571  -0.1931556  )
        26           O   tau(  26) = (  -0.2113345   0.1345617  -0.2877949  )
        27           O   tau(  27) = (   0.2552404  -0.2866991  -0.0367835  )
        28           O   tau(  28) = (   0.0753033  -0.0128880  -0.2779876  )
        29           O   tau(  29) = (  -0.0871418   0.0167619  -0.2588626  )
        30           O   tau(  30) = (   0.0606526  -0.0393930   0.0654808  )
        31           O   tau(  31) = (   0.2802547  -0.0907582  -0.1918899  )
        32           O   tau(  32) = (   0.2336460  -0.0098525  -0.0306608  )
        33           O   tau(  33) = (   0.0155492   0.2115610   0.1997069  )
        34           O   tau(  34) = (  -0.2330926   0.0340356  -0.1981556  )
        35           O   tau(  35) = (   0.0385115  -0.1903190  -0.0175117  )
        36           O   tau(  36) = (   0.2343068   0.2087472  -0.2889006  )
        37           O   tau(  37) = (   0.1183160   0.3060167   0.2702569  )
        38           O   tau(  38) = (  -0.2764473   0.2526276  -0.0980985  )
        39           O   tau(  39) = (  -0.0118290   0.0626177  -0.1166643  )
        40           O   tau(  40) = (  -0.1869178  -0.1951986  -0.0484699  )
        41           O   tau(  41) = (  -0.1525322   0.2830951   0.1476939  )
        42           O   tau(  42) = (  -0.0986942   0.1566561   0.2265244  )
        43           O   tau(  43) = (  -0.0945421  -0.0798910  -0.0277305  )
        44           O   tau(  44) = (  -0.0676049  -0.0818782   0.2662336  )
        45           O   tau(  45) = (   0.0103087   0.1102088   0.2816208  )
        46           O   tau(  46) = (  -0.2399059   0.1616503   0.0660302  )
        47           O   tau(  47) = (   0.1611101   0.2153905  -0.0761365  )
        48           O   tau(  48) = (   0.1053300  -0.2890064  -0.2003935  )
        49           O   tau(  49) = (  -0.1528852   0.2177734  -0.1503530  )
        50           O   tau(  50) = (   0.2233429   0.0351755   0.3270660  )
        51           O   tau(  51) = (  -0.1032157   0.0237405   0.1065966  )
        52           O   tau(  52) = (  -0.0011607  -0.0949836  -0.1782581  )
        53           O   tau(  53) = (   0.0023162  -0.1743546  -0.2872467  )
        54           O   tau(  54) = (   0.3147614  -0.3002679   0.2145681  )
        55           O   tau(  55) = (   0.1853692  -0.1586640   0.0275253  )
        56           O   tau(  56) = (   0.2806288  -0.0316997   0.1398456  )
        57           O   tau(  57) = (   0.0849076   0.1926691  -0.2197671  )
        58           O   tau(  58) = (  -0.0760675  -0.3156188  -0.0152434  )
        59           O   tau(  59) = (  -0.2646688  -0.0876917  -0.2979583  )
        60           O   tau(  60) = (  -0.2257652   0.0630459  -0.0553815  )
        61           O   tau(  61) = (   0.2495284   0.1566879  -0.1616372  )
        62           O   tau(  62) = (   0.1040075  -0.0288873  -0.0734079  )
        63           O   tau(  63) = (  -0.2433721  -0.1372738   0.0542746  )
        64           O   tau(  64) = (   0.0921425   0.1370590   0.0646887  )
        65           H   tau(  65) = (  -0.2360614  -0.0749826  -0.1107462  )
        66           H   tau(  66) = (  -0.2423556  -0.0235114  -0.0603733  )
        67           H   tau(  67) = (   0.1943564  -0.1168168   0.3161948  )
        68           H   tau(  68) = (   0.1593943  -0.1184635   0.2440817  )
        69           H   tau(  69) = (  -0.2918660   0.2650301  -0.2696274  )
        70           H   tau(  70) = (  -0.2556126   0.3248148  -0.2292008  )
        71           H   tau(  71) = (   0.0257150   0.1478882  -0.0771176  )
        72           H   tau(  72) = (   0.0932377   0.1932514  -0.0624209  )
        73           H   tau(  73) = (  -0.2710377   0.0171542   0.1548630  )
        74           H   tau(  74) = (  -0.2662532   0.0374142   0.2241063  )
        75           H   tau(  75) = (  -0.0028869   0.3349566   0.2612510  )
        76           H   tau(  76) = (   0.0462171   0.3042649   0.3065328  )
        77           H   tau(  77) = (  -0.0602900  -0.2819094  -0.0850528  )
        78           H   tau(  78) = (   0.0015206  -0.2947966  -0.1338709  )
        79           H   tau(  79) = (   0.1622941   0.0596475   0.1937676  )
        80           H   tau(  80) = (   0.1011573   0.0785944   0.2415595  )
        81           H   tau(  81) = (  -0.1755019  -0.2801576   0.3312049  )
        82           H   tau(  82) = (  -0.1054626  -0.3106971   0.3165682  )
        83           H   tau(  83) = (   0.1014218  -0.1042350   0.1244444  )
        84           H   tau(  84) = (   0.1490217  -0.1629052   0.1304526  )
        85           H   tau(  85) = (   0.1430722  -0.3568872   0.1226095  )
        86           H   tau(  86) = (   0.0742305  -0.3237118   0.1447059  )
        87           H   tau(  87) = (  -0.1529922  -0.2227174   0.2334496  )
        88           H   tau(  88) = (  -0.2203546  -0.2083469   0.2229083  )
        89           H   tau(  89) = (  -0.2369909  -0.3774027   0.0394754  )
        90           H   tau(  90) = (  -0.2497112  -0.3170158  -0.0086780  )
        91           H   tau(  91) = (  -0.1745301  -0.2067983  -0.1807372  )
        92           H   tau(  92) = (  -0.1360604  -0.2747198  -0.1896699  )
        93           H   tau(  93) = (   0.1114896  -0.1247087  -0.1153433  )
        94           H   tau(  94) = (   0.1139695  -0.1882623  -0.0711387  )
        95           H   tau(  95) = (  -0.1334392   0.1146857  -0.0653042  )
        96           H   tau(  96) = (  -0.0776698   0.1640846  -0.0387384  )
        97           H   tau(  97) = (  -0.0792974  -0.1762798   0.0902270  )
        98           H   tau(  98) = (  -0.0654022  -0.1030348   0.1095892  )
        99           H   tau(  99) = (   0.0676738  -0.2042182   0.1570758  )
       100           H   tau( 100) = (  -0.0068280  -0.1928684   0.1507697  )
       101           H   tau( 101) = (   0.2779942  -0.2375868  -0.2668633  )
       102           H   tau( 102) = (   0.2299673  -0.1796569  -0.2546666  )
       103           H   tau( 103) = (   0.2659782   0.2896082   0.1322645  )
       104           H   tau( 104) = (   0.3041386   0.2271394   0.1090200  )
       105           H   tau( 105) = (   0.2799057  -0.1400901   0.1687382  )
       106           H   tau( 106) = (   0.2128347  -0.1577339   0.1956939  )
       107           H   tau( 107) = (  -0.0899517  -0.1229939  -0.1875032  )
       108           H   tau( 108) = (  -0.1632155  -0.1046175  -0.2136258  )
       109           H   tau( 109) = (  -0.0180574   0.1536771  -0.2030022  )
       110           H   tau( 110) = (  -0.0693887   0.0987583  -0.2290056  )
       111           H   tau( 111) = (   0.2410540   0.1232295   0.1495746  )
       112           H   tau( 112) = (   0.1711377   0.1327285   0.1104351  )
       113           H   tau( 113) = (   0.1248146   0.0206504  -0.2139353  )
       114           H   tau( 114) = (   0.1153976   0.1001778  -0.2028221  )
       115           H   tau( 115) = (  -0.2426559   0.0993356  -0.2732626  )
       116           H   tau( 116) = (  -0.1725334   0.1054572  -0.2915378  )
       117           H   tau( 117) = (   0.2913187  -0.3023625  -0.0079393  )
       118           H   tau( 118) = (   0.2571212  -0.3178203  -0.0740649  )
       119           H   tau( 119) = (   0.1034911  -0.0357836  -0.3105317  )
       120           H   tau( 120) = (   0.0393889   0.0108617  -0.3016005  )
       121           H   tau( 121) = (  -0.0716430  -0.0236405  -0.2849096  )
       122           H   tau( 122) = (  -0.1355685   0.0116177  -0.2532076  )
       123           H   tau( 123) = (   0.0540511   0.0035578   0.0876157  )
       124           H   tau( 124) = (   0.0659679  -0.0293492   0.0171769  )
       125           H   tau( 125) = (   0.2591634  -0.1314258  -0.1755365  )
       126           H   tau( 126) = (   0.3166705  -0.0836248  -0.1601296  )
       127           H   tau( 127) = (   0.2531241   0.0313347  -0.0462263  )
       128           H   tau( 128) = (   0.2615525  -0.0452457  -0.0484836  )
       129           H   tau( 129) = (   0.0089696   0.2445873   0.2355911  )
       130           H   tau( 130) = (  -0.0302168   0.1968104   0.1902707  )
       131           H   tau( 131) = (  -0.2012743   0.0358540  -0.1611397  )
       132           H   tau( 132) = (  -0.2691011   0.0533451  -0.1711867  )
       133           H   tau( 133) = (   0.0192936  -0.2015792  -0.0615924  )
       134           H   tau( 134) = (   0.0238832  -0.1436503  -0.0131412  )
       135           H   tau( 135) = (   0.1984844   0.2406282  -0.2778698  )
       136           H   tau( 136) = (   0.2262253   0.1973334  -0.3358800  )
       137           H   tau( 137) = (   0.1272373   0.3000454   0.2199952  )
       138           H   tau( 138) = (   0.1363352   0.3507760   0.2798926  )
       139           H   tau( 139) = (  -0.2873853   0.2156671  -0.1279803  )
       140           H   tau( 140) = (  -0.2486870   0.2825215  -0.1248671  )
       141           H   tau( 141) = (  -0.0267952   0.0329139  -0.0809718  )
       142           H   tau( 142) = (  -0.0343193   0.0507850  -0.1591581  )
       143           H   tau( 143) = (  -0.2088428  -0.2378204  -0.0552022  )
       144           H   tau( 144) = (  -0.2014002  -0.1795230  -0.0046008  )
       145           H   tau( 145) = (  -0.1931857   0.3089206   0.1543790  )
       146           H   tau( 146) = (  -0.1321970   0.2807919   0.1914459  )
       147           H   tau( 147) = (  -0.1322742   0.1882045   0.2105447  )
       148           H   tau( 148) = (  -0.0955398   0.1616778   0.2750545  )
       149           H   tau( 149) = (  -0.1205496  -0.1119481  -0.0547048  )
       150           H   tau( 150) = (  -0.1157165  -0.0884902   0.0154175  )
       151           H   tau( 151) = (  -0.1071849  -0.0838752   0.2381803  )
       152           H   tau( 152) = (  -0.0418453  -0.1229133   0.2603289  )
       153           H   tau( 153) = (  -0.0067856   0.1011272   0.2371815  )
       154           H   tau( 154) = (  -0.0059518   0.1522593   0.2995099  )
       155           H   tau( 155) = (  -0.2699212   0.1368196   0.0955289  )
       156           H   tau( 156) = (  -0.1989462   0.1718670   0.0905338  )
       157           H   tau( 157) = (   0.1912678   0.2389861  -0.0461801  )
       158           H   tau( 158) = (   0.1847891   0.2097522  -0.1188082  )
       159           H   tau( 159) = (   0.1279146  -0.2929399  -0.2432599  )
       160           H   tau( 160) = (   0.1254136  -0.2495824  -0.1783667  )
       161           H   tau( 161) = (  -0.1480597   0.1997053  -0.1967219  )
       162           H   tau( 162) = (  -0.1076620   0.2359891  -0.1504059  )
       163           H   tau( 163) = (   0.1936921   0.0611846   0.3562627  )
       164           H   tau( 164) = (   0.1933590   0.0283526   0.2880387  )
       165           H   tau( 165) = (  -0.0855283   0.0656315   0.0881642  )
       166           H   tau( 166) = (  -0.1408807   0.0466017   0.1298537  )
       167           H   tau( 167) = (   0.0091930  -0.0481430  -0.1668021  )
       168           H   tau( 168) = (   0.0107069  -0.1002747  -0.2256880  )
       169           H   tau( 169) = (  -0.0217744  -0.2126403  -0.3058209  )
       170           H   tau( 170) = (   0.0448835  -0.1958464  -0.2766449  )
       171           H   tau( 171) = (   0.3405518  -0.3107638   0.2547811  )
       172           H   tau( 172) = (   0.2957407  -0.2543181   0.2176633  )
       173           H   tau( 173) = (   0.2123629  -0.1933922   0.0486957  )
       174           H   tau( 174) = (   0.1860059  -0.1690629  -0.0204438  )
       175           H   tau( 175) = (   0.2456944  -0.0418262   0.1069756  )
       176           H   tau( 176) = (   0.2551471  -0.0248064   0.1809586  )
       177           H   tau( 177) = (   0.0868460   0.1974596  -0.2685497  )
       178           H   tau( 178) = (   0.1061366   0.2337633  -0.1995837  )
       179           H   tau( 179) = (  -0.0275249  -0.3158411  -0.0093825  )
       180           H   tau( 180) = (  -0.0968868  -0.3157093   0.0289766  )
       181           H   tau( 181) = (  -0.2908885  -0.0930158  -0.2565140  )
       182           H   tau( 182) = (  -0.2286249  -0.1200983  -0.3004036  )
       183           H   tau( 183) = (  -0.1824629   0.0608144  -0.0328478  )
       184           H   tau( 184) = (  -0.2508418   0.0965121  -0.0300878  )
       185           H   tau( 185) = (   0.2612846   0.1675326  -0.2084865  )
       186           H   tau( 186) = (   0.2357153   0.1090344  -0.1662838  )
       187           H   tau( 187) = (   0.1513560  -0.0182832  -0.0644349  )
       188           H   tau( 188) = (   0.0815502   0.0139773  -0.0762012  )
       189           H   tau( 189) = (  -0.2531715  -0.0915010   0.0394509  )
       190           H   tau( 190) = (  -0.2184458  -0.1332923   0.0964017  )
       191           H   tau( 191) = (   0.0604458   0.1405032   0.1012549  )
       192           H   tau( 192) = (   0.0684557   0.1470711   0.0207281  )

     number of k points=     1  Marzari-Vanderbilt smearing, width (Ry)=  0.0250
                       cart. coord. in units 2pi/alat
        k(    1) = (   0.0000000   0.0000000   0.0000000), wk =   2.0000000

     Dense  grid:   177509 G-vectors     FFT dimensions: (  72,  72,  72)

     Estimated max dynamical RAM per process >      67.80Mb

     Estimated total allocated dynamical RAM >    1898.40Mb

     Initial potential from superposition of free atoms
     Check: negative starting charge=   -0.781531

     starting charge  511.99856, renormalised to  512.00000

     negative rho (up, down):  7.815E-01 0.000E+00
     Starting wfc are  384 randomized atomic wfcs

     total cpu time spent up to now is        0.8 secs

     per-process dynamical memory:    45.9 Mb

     Self-consistent Calculation

     iteration #  1     ecut=    30.00 Ry     beta=0.70
     Davidson diagonalization with overlap
     ethr =  1.00E-02,  avg # of iterations =  8.0

     negative rho (up, down):  1.850E-01 0.000E+00

     total cpu time spent up to now is        8.9 secs

     total energy              =   -1790.49192332 Ry
     Harris-Foulkes estimate   =   -1818.69228323 Ry
     estimated scf accuracy    <      43.14701087 Ry

     iteration #  2     ecut=    30.00 Ry     beta=0.70
     Davidson diagonalization with overlap
     ethr =  8.43E-03,  avg # of iterations =  4.0

     negative rho (up, down):  6.615E-04 0.000E+00

     total cpu time spent up to now is       12.0 secs

     total energy              =   -1767.14430674 Ry
     Harris-Foulkes estimate   =   -1806.81004640 Ry
     estimated scf accuracy    <      96.57852190 Ry

     iteration #  3     ecut=    30.00 Ry     beta=0.70
     Davidson diagonalization with overlap
     ethr =  8.43E-03,  avg # of iterations =  5.0

     total cpu time spent up to now is       15.7 secs

     total energy              =   -1794.53847726 Ry
     Harris-Foulkes estimate   =   -1806.34070552 Ry
     estimated scf accuracy    <      36.41222991 Ry

     iteration #  4     ecut=    30.00 Ry     beta=0.70
     Davidson diagonalization with overlap
     ethr =  7.11E-03,  avg # of iterations =  3.0

     total cpu time spent up to now is       17.6 secs

     total energy              =   -1798.89469387 Ry
     Harris-Foulkes estimate   =   -1801.23984654 Ry
     estimated scf accuracy    <       7.73794956 Ry

     iteration #  5     ecut=    30.00 Ry     beta=0.70
     Davidson diagonalization with overlap
     ethr =  1.51E-03,  avg # of iterations =  4.0

     total cpu time spent up to now is       19.7 secs

     total energy              =   -1798.59258493 Ry
     Harris-Foulkes estimate   =   -1799.33638451 Ry
     estimated scf accuracy    <       3.32476154 Ry

     iteration #  6     ecut=    30.00 Ry     beta=0.70
     Davidson diagonalization with overlap
     ethr =  6.49E-04,  avg # of iterations =  5.0

     total cpu time spent up to now is       22.1 secs

     total energy              =   -1798.46840601 Ry
     Harris-Foulkes estimate   =   -1798.72606702 Ry
     estimated scf accuracy    <       1.59395811 Ry

     iteration #  7     ecut=    30.00 Ry     beta=0.70
     Davidson diagonalization with overlap
     ethr =  3.11E-04,  avg # of iterations =  4.0

     total cpu time spent up to now is       24.1 secs

     total energy              =   -1798.24030119 Ry
     Harris-Foulkes estimate   =   -1798.49848161 Ry
     estimated scf accuracy    <       1.03286077 Ry

     iteration #  8     ecut=    30.00 Ry     beta=0.70
     Davidson diagonalization with overlap
     ethr =  2.02E-04,  avg # of iterations =  6.0

     total cpu time spent up to now is       26.9 secs

     total energy              =   -1798.25482162 Ry
     Harris-Foulkes estimate   =   -1798.35669205 Ry
     estimated scf accuracy    <       0.89738832 Ry

     iteration #  9     ecut=    30.00 Ry     beta=0.70
     Davidson diagonalization with overlap
     ethr =  1.75E-04,  avg # of iterations =  1.0

     total cpu time spent up to now is       28.0 secs

     total energy              =   -1798.23217598 Ry
     Harris-Foulkes estimate   =   -1798.28266780 Ry
     estimated scf accuracy    <       0.16862779 Ry

     iteration # 10     ecut=    30.00 Ry     beta=0.70
     Davidson diagonalization with overlap
     ethr =  3.29E-05,  avg # of iterations =  6.0

     total cpu time spent up to now is       31.1 secs

     total energy              =   -1798.24542473 Ry
     Harris-Foulkes estimate   =   -1798.29366439 Ry
     estimated scf accuracy    <       0.63469122 Ry

     iteration # 11     ecut=    30.00 Ry     beta=0.70
     Davidson diagonalization with overlap
     ethr =  3.29E-05,  avg # of iterations =  2.0

     total cpu time spent up to now is       32.5 secs

     total energy              =   -1798.26101231 Ry
     Harris-Foulkes estimate   =   -1798.26633974 Ry
     estimated scf accuracy    <       0.06716478 Ry

     iteration # 12     ecut=    30.00 Ry     beta=0.70
     Davidson diagonalization with overlap
     ethr =  1.31E-05,  avg # of iterations =  5.0

     total cpu time spent up to now is       35.0 secs

     total energy              =   -1798.24754656 Ry
     Harris-Foulkes estimate   =   -1798.27622588 Ry
     estimated scf accuracy    <       0.24865739 Ry

     iteration # 13     ecut=    30.00 Ry     beta=0.70
     Davidson diagonalization with overlap
     ethr =  1.31E-05,  avg # of iterations =  5.0

     total cpu time spent up to now is       37.3 secs

     total energy              =   -1798.25778873 Ry
     Harris-Foulkes estimate   =   -1798.26253555 Ry
     estimated scf accuracy    <       0.07667357 Ry

     iteration # 14     ecut=    30.00 Ry     beta=0.70
     Davidson diagonalization with overlap
     ethr =  1.31E-05,  avg # of iterations =  1.0

     total cpu time spent up to now is       38.5 secs

     total energy              =   -1798.25881212 Ry
     Harris-Foulkes estimate   =   -1798.26127889 Ry
     estimated scf accuracy    <       0.01766201 Ry

     iteration # 15     ecut=    30.00 Ry     beta=0.70
     Davidson diagonalization with overlap
     ethr =  3.45E-06,  avg # of iterations =  1.0

     total cpu time spent up to now is       39.6 secs

     total energy              =   -1798.25953118 Ry
     Harris-Foulkes estimate   =   -1798.25986424 Ry
     estimated scf accuracy    <       0.00169796 Ry

     iteration # 16     ecut=    30.00 Ry     beta=0.70
     Davidson diagonalization with overlap
     ethr =  3.32E-07,  avg # of iterations =  6.0

     total cpu time spent up to now is       42.2 secs

     total energy              =   -1798.25966661 Ry
     Harris-Foulkes estimate   =   -1798.25977741 Ry
     estimated scf accuracy    <       0.00059249 Ry

     iteration # 17     ecut=    30.00 Ry     beta=0.70
     Davidson diagonalization with overlap
     ethr =  1.16E-07,  avg # of iterations =  2.0

     total cpu time spent up to now is       43.6 secs

     total energy              =   -1798.25969435 Ry
     Harris-Foulkes estimate   =   -1798.25972111 Ry
     estimated scf accuracy    <       0.00012281 Ry

     iteration # 18     ecut=    30.00 Ry     beta=0.70
     Davidson diagonalization with overlap
     ethr =  2.40E-08,  avg # of iterations =  2.0

     total cpu time spent up to now is       45.1 secs

     total energy              =   -1798.25970508 Ry
     Harris-Foulkes estimate   =   -1798.25971785 Ry
     estimated scf accuracy    <       0.00008315 Ry

     iteration # 19     ecut=    30.00 Ry     beta=0.70
     Davidson diagonalization with overlap
     ethr =  1.62E-08,  avg # of iterations =  2.0

     total cpu time spent up to now is       46.5 secs

     total energy              =   -1798.25970983 Ry
     Harris-Foulkes estimate   =   -1798.25971500 Ry
     estimated scf accuracy    <       0.00003170 Ry

     iteration # 20     ecut=    30.00 Ry     beta=0.70
     Davidson diagonalization with overlap
     ethr =  6.19E-09,  avg # of iterations =  2.0

     total cpu time spent up to now is       47.9 secs

     total energy              =   -1798.25971260 Ry
     Harris-Foulkes estimate   =   -1798.25971271 Ry
     estimated scf accuracy    <       0.00000093 Ry

     iteration # 21     ecut=    30.00 Ry     beta=0.70
     Davidson diagonalization with overlap
     ethr =  1.82E-10,  avg # of iterations =  3.0

     total cpu time spent up to now is       50.1 secs

     total energy              =   -1798.25971279 Ry
     Harris-Foulkes estimate   =   -1798.25971293 Ry
     estimated scf accuracy    <       0.00000082 Ry

     iteration # 22     ecut=    30.00 Ry     beta=0.70
     Davidson diagonalization with overlap
     ethr =  1.61E-10,  avg # of iterations =  2.0

     total cpu time spent up to now is       51.5 secs

     total energy              =   -1798.25971292 Ry
     Harris-Foulkes estimate   =   -1798.25971296 Ry
     estimated scf accuracy    <       0.00000038 Ry

     iteration # 23     ecut=    30.00 Ry     beta=0.70
     Davidson diagonalization with overlap
     ethr =  7.41E-11,  avg # of iterations =  2.0

     total cpu time spent up to now is       53.0 secs

     total energy              =   -1798.25971296 Ry
     Harris-Foulkes estimate   =   -1798.25971297 Ry
     estimated scf accuracy    <       0.00000007 Ry

     iteration # 24     ecut=    30.00 Ry     beta=0.70
     Davidson diagonalization with overlap
     ethr =  1.30E-11,  avg # of iterations =  3.0

     total cpu time spent up to now is       54.7 secs

     total energy              =   -1798.25971297 Ry
     Harris-Foulkes estimate   =   -1798.25971298 Ry
     estimated scf accuracy    <       0.00000012 Ry

     iteration # 25     ecut=    30.00 Ry     beta=0.70
     Davidson diagonalization with overlap
     ethr =  1.30E-11,  avg # of iterations =  2.0

     total cpu time spent up to now is       56.1 secs

     End of self-consistent calculation

          k = 0.0000 0.0000 0.0000 ( 22119 PWs)   bands (ev):

   -41.9296 -40.7841 -39.7723 -39.0981 -38.7164 -38.3278 -37.5855 -37.5017
   -37.0040 -36.6441 -36.1429 -35.9736 -35.8286 -35.1882 -34.6076 -34.2960
   -33.3431 -33.0497 -32.7039 -32.6228 -32.5071 -32.3013 -32.2281 -31.7815
   -31.7211 -31.4027 -31.1344 -30.8163 -30.6545 -30.4831 -30.2680 -30.0606
   -29.8214 -29.7538 -29.4164 -29.2968 -29.1711 -29.0813 -28.9599 -28.6795
   -28.4689 -28.3988 -28.2796 -27.9983 -27.9256 -27.8904 -27.7661 -27.6107
   -27.4158 -27.3823 -27.1650 -27.0081 -26.8256 -26.7973 -26.6219 -26.5003
   -26.1859 -26.1065 -25.9235 -25.7885 -25.7483 -25.3067 -25.1494 -24.8267
   -23.2704 -21.6313 -21.4385 -20.8306 -20.5669 -20.4760 -20.3394 -20.1875
   -19.8491 -19.7565 -19.4365 -19.2363 -18.9518 -18.8402 -18.6837 -18.6405
   -18.2839 -18.0575 -17.8953 -17.6595 -17.4678 -17.3952 -17.0761 -16.8810
   -16.6890 -16.5434 -16.4083 -16.1203 -16.0430 -15.9941 -15.6765 -15.5510
   -15.4084 -15.2376 -15.1099 -14.9866 -14.7308 -14.6464 -14.5135 -14.4553
   -14.4293 -14.3085 -14.2168 -14.1045 -13.7318 -13.5918 -13.4928 -13.3512
   -13.3137 -13.2456 -13.2167 -13.0360 -12.9990 -12.9069 -12.8531 -12.4637
   -12.3007 -12.2508 -12.2326 -12.0403 -11.8272 -11.5905 -11.1181 -10.7395
   -10.5194 -10.3182  -9.9235  -9.7300  -9.4679  -9.4293  -9.2499  -9.1807
    -8.9069  -8.8607  -8.5979  -8.4743  -8.3236  -8.2417  -7.8921  -7.7848
    -7.6928  -7.5136  -7.3027  -7.2701  -7.1798  -7.0662  -6.8672  -6.7469
    -6.5782  -6.5051  -6.2098  -6.0432  -5.9912  -5.8971  -5.7923  -5.6785
    -5.4845  -5.3765  -5.3160  -5.1884  -5.1085  -4.9398  -4.8489  -4.7981
    -4.6998  -4.6363  -4.5776  -4.5577  -4.2805  -4.2427  -4.0509  -4.0258
    -3.7162  -3.6646  -3.5912  -3.4765  -3.3637  -3.2798  -3.0804  -3.0005
    -2.9344  -2.8368  -2.7397  -2.7235  -2.7122  -2.6345  -2.5018  -2.3260
    -2.2139  -2.1700  -2.0818  -1.9222  -1.8594  -1.8296  -1.6948  -1.6722
    -1.5516  -1.4526  -1.3046  -1.2723  -1.0701  -1.0261  -0.9184  -0.7604
    -0.6255  -0.5119  -0.4822  -0.4201  -0.2727  -0.2450  -0.1273   0.0450
     0.1074   0.1670   0.2488   0.3147   0.4927   0.6324   0.7257   0.8104
     0.9378   1.0066   1.1784   1.3133   1.4699   1.5496   1.6519   1.8140
     1.9404   2.0092   2.1655   2.4136   2.6599   2.8233   3.1240   3.1452
     3.3326   3.3895   3.5160   3.6763   3.8713   4.0893   4.2025   4.3605
     4.5121   4.6104   4.8690   5.0172   5.0425   5.3489   5.4549   5.5128
     5.6046   6.3579   6.4657   6.6896   6.8548   7.1404   7.3172   7.3873
     7.5724   7.6916   7.7602   7.9031   8.0587   8.3552   8.6033   8.6841
     8.8079   9.0550   9.2002   9.4929   9.6044   9.7365   9.8295   9.8840
     9.9624  10.0933  10.1903  10.4322  10.5560  10.6444  10.6603  10.7715
    10.8515  10.9216  11.0799  11.2048  11.3109  11.3986  11.4978  11.6088
    11.6476  11.6985  11.7697  11.8394  11.9272  12.0481  12.1094  12.1234
    12.2471  12.2915  12.3400

     the Fermi energy is     5.6306 ev

!    total energy              =   -1798.25971297 Ry
     Harris-Foulkes estimate   =   -1798.25971298 Ry
     estimated scf accuracy    <          2.4E-09 Ry

     The total energy is the sum of the following terms:

     one-electron contribution =  -14404.94193619 Ry
     hartree contribution      =    7372.59245227 Ry
     xc contribution           =    -636.52665516 Ry
     ewald contribution        =    5870.61551579 Ry
     smearing contrib. (-TS)   =       0.00091032 Ry

     convergence has been achieved in  25 iterations

     Writing output data file pwscf.save
 
     init_run     :      0.55s CPU      0.63s WALL (       1 calls)
     electrons    :     53.64s CPU     55.46s WALL (       1 calls)

     Called by init_run:
     wfcinit      :      0.46s CPU      0.53s WALL (       1 calls)
     potinit      :      0.02s CPU      0.02s WALL (       1 calls)

     Called by electrons:
     c_bands      :     51.14s CPU     52.66s WALL (      25 calls)
     sum_band     :      2.07s CPU      2.12s WALL (      25 calls)
     v_of_rho     :      0.20s CPU      0.21s WALL (      26 calls)
     mix_rho      :      0.15s CPU      0.28s WALL (      25 calls)

     Called by c_bands:
     init_us_2    :      0.06s CPU      0.07s WALL (      51 calls)
     cegterg      :     51.03s CPU     52.47s WALL (      25 calls)

     Called by sum_band:

     Called by *egterg:
     h_psi        :      9.44s CPU      9.62s WALL (     112 calls)
     g_psi        :      0.08s CPU      0.08s WALL (      86 calls)
     cdiaghg      :     31.61s CPU     31.76s WALL (     111 calls)

     Called by h_psi:
     h_psi:pot    :      9.20s CPU      9.37s WALL (     112 calls)
     h_psi:calbec :      0.34s CPU      0.35s WALL (     112 calls)
     vloc_psi     :      8.56s CPU      8.72s WALL (     112 calls)
     add_vuspsi   :      0.30s CPU      0.30s WALL (     112 calls)

     General routines
     calbec       :      0.34s CPU      0.35s WALL (     112 calls)
     fft          :      0.11s CPU      0.12s WALL (     285 calls)
     fftw         :      9.52s CPU      9.71s WALL (   42537 calls)
     davcio       :      0.03s CPU      0.15s WALL (     408 calls)
 
     Parallel routines
     fft_scatter  :      3.16s CPU      3.26s WALL (   42822 calls)
 
     PWSCF        :    54.34s CPU        56.47s WALL

 
   This run was terminated on:  15:40:51   2Feb2018            

=------------------------------------------------------------------------------=
   JOB DONE.
=------------------------------------------------------------------------------=
