
     Program PWSCF v.6.0 (svn rev. 13079) starts on  2Feb2018 at  5:56:18 

     This program is part of the open-source Quantum ESPRESSO suite
     for quantum simulation of materials; please cite
         "P. Giannozzi et al., J. Phys.:Condens. Matter 21 395502 (2009);
          URL http://www.quantum-espresso.org", 
     in publications or presentations arising from this work. More details at
     http://www.quantum-espresso.org/quote

     Parallel version (MPI), running on    28 processors
     R & G space division:  proc/nbgrp/npool/nimage =      28
     Reading input from input/scf-bigwater-1/67.in
Warning: card &IONS ignored
Warning: card     POT_EXTRAPOLATION='SECOND-ORDER' ignored
Warning: card     WFC_EXTRAPOLATION='SECOND-ORDER' ignored
Warning: card     ION_TEMPERATURE = 'ANDERSEN' ignored
Warning: card     TEMPW = 1000 ignored
Warning: card / ignored

     Current dimensions of program PWSCF are:
     Max number of different atomic species (ntypx) = 10
     Max number of k-points (npk) =  40000
     Max angular momentum in pseudopotentials (lmaxx) =  3

     Subspace diagonalization in iterative solution of the eigenvalue problem:
     a serial algorithm will be used

 
     Parallelization info
     --------------------
     sticks:   dense  smooth     PW     G-vecs:    dense   smooth      PW
     Min         136     136     33                 6338     6338     787
     Max         137     137     34                 6341     6341     792
     Sum        3809    3809    949               177509   177509   22119
 


     bravais-lattice index     =            1
     lattice parameter (alat)  =      20.0000  a.u.
     unit-cell volume          =    8000.0000 (a.u.)^3
     number of atoms/cell      =          192
     number of atomic types    =            2
     number of electrons       =       512.00
     number of Kohn-Sham states=          307
     kinetic-energy cutoff     =      30.0000  Ry
     charge density cutoff     =     120.0000  Ry
     convergence threshold     =      1.0E-08
     mixing beta               =       0.7000
     number of iterations used =            8  plain     mixing
     Exchange-correlation      = BLYP ( 1  3  1  3 0 0)

     celldm(1)=  20.000000  celldm(2)=   0.000000  celldm(3)=   0.000000
     celldm(4)=   0.000000  celldm(5)=   0.000000  celldm(6)=   0.000000

     crystal axes: (cart. coord. in units of alat)
               a(1) = (   1.000000   0.000000   0.000000 )  
               a(2) = (   0.000000   1.000000   0.000000 )  
               a(3) = (   0.000000   0.000000   1.000000 )  

     reciprocal axes: (cart. coord. in units 2 pi/alat)
               b(1) = (  1.000000  0.000000  0.000000 )  
               b(2) = (  0.000000  1.000000  0.000000 )  
               b(3) = (  0.000000  0.000000  1.000000 )  


     PseudoPot. # 1 for  H read from file:
     ./H.blyp-hgh.UPF
     MD5 check sum: c576e69559cde411e611be972c763230
     Pseudo is Norm-conserving, Zval =  1.0
     Generated in analytical, separable form
     Using radial grid of  929 points,  0 beta functions with: 

     PseudoPot. # 2 for  O read from file:
     ./O.blyp-hgh.UPF
     MD5 check sum: d0b7156309aa9befef28faac7bc56342
     Pseudo is Norm-conserving, Zval =  6.0
     Generated in analytical, separable form
     Using radial grid of 1095 points,  1 beta functions with: 
                l(1) =   0

     atomic species   valence    mass     pseudopotential
        H              1.00     1.01000      H( 1.00)
        O              6.00    16.00000      O( 1.00)

     No symmetry found



   Cartesian axes

     site n.     atom                  positions (alat units)
         1           O   tau(   1) = (  -0.2628975  -0.0777146  -0.0656856  )
         2           O   tau(   2) = (   0.1988130  -0.1095720   0.2698384  )
         3           O   tau(   3) = (  -0.2861044   0.2645151  -0.2769195  )
         4           O   tau(   4) = (  -0.0080994   0.1808570  -0.0783710  )
         5           O   tau(   5) = (  -0.2355688   0.0362837   0.1922745  )
         6           O   tau(   6) = (  -0.0117527   0.2717563   0.2597122  )
         7           O   tau(   7) = (  -0.0063033  -0.2685514  -0.1703785  )
         8           O   tau(   8) = (   0.1163050   0.0140389   0.1831932  )
         9           O   tau(   9) = (  -0.1427400  -0.2647661   0.2813188  )
        10           O   tau(  10) = (   0.0950825  -0.1493297   0.0848587  )
        11           O   tau(  11) = (   0.1256907  -0.3038593   0.1452390  )
        12           O   tau(  12) = (  -0.2094864  -0.1523972   0.2187219  )
        13           O   tau(  13) = (  -0.2214600  -0.2970618   0.0359631  )
        14           O   tau(  14) = (  -0.1784178  -0.2839326  -0.1827524  )
        15           O   tau(  15) = (   0.1064876  -0.1370932  -0.1082093  )
        16           O   tau(  16) = (  -0.0913148   0.1241558   0.0681442  )
        17           O   tau(  17) = (  -0.0544875  -0.0733176   0.0853865  )
        18           O   tau(  18) = (   0.0118224  -0.2121107   0.1836268  )
        19           O   tau(  19) = (   0.2720585  -0.2079171  -0.2475857  )
        20           O   tau(  20) = (   0.2779834   0.2414268   0.1092187  )
        21           O   tau(  21) = (   0.2997488  -0.1484395   0.1622061  )
        22           O   tau(  22) = (  -0.1616599  -0.1502123  -0.1914818  )
        23           O   tau(  23) = (  -0.0451657   0.1298685  -0.2468401  )
        24           O   tau(  24) = (   0.1939469   0.1176057   0.1421431  )
        25           O   tau(  25) = (   0.1161571   0.0648175  -0.1558120  )
        26           O   tau(  26) = (  -0.2452620   0.1413246  -0.3071985  )
        27           O   tau(  27) = (   0.2219671  -0.2974813  -0.0625583  )
        28           O   tau(  28) = (   0.0976950  -0.0656329  -0.2296117  )
        29           O   tau(  29) = (  -0.1012968   0.0118185  -0.2416872  )
        30           O   tau(  30) = (   0.0424580  -0.0163455   0.0336064  )
        31           O   tau(  31) = (   0.2392124  -0.0877714  -0.1888076  )
        32           O   tau(  32) = (   0.2589357   0.0035320  -0.0028030  )
        33           O   tau(  33) = (  -0.0144146   0.2253895   0.0921219  )
        34           O   tau(  34) = (  -0.2617075   0.0358874  -0.2005064  )
        35           O   tau(  35) = (   0.0363796  -0.1901897  -0.0178723  )
        36           O   tau(  36) = (   0.2302956   0.1754110  -0.2169074  )
        37           O   tau(  37) = (   0.1771839   0.2741358   0.2914652  )
        38           O   tau(  38) = (  -0.2555047   0.1838622  -0.0901245  )
        39           O   tau(  39) = (  -0.0195851   0.0520809  -0.0800769  )
        40           O   tau(  40) = (  -0.1503214  -0.1660775  -0.0571488  )
        41           O   tau(  41) = (  -0.1301307   0.2727832   0.1687109  )
        42           O   tau(  42) = (  -0.0747256   0.1400324   0.1950773  )
        43           O   tau(  43) = (  -0.1318453  -0.0112326  -0.0338665  )
        44           O   tau(  44) = (  -0.0758499  -0.1104305   0.2455665  )
        45           O   tau(  45) = (   0.0365767   0.0898361   0.2446893  )
        46           O   tau(  46) = (  -0.2403348   0.1696398   0.0723119  )
        47           O   tau(  47) = (   0.1399137   0.1949746  -0.0278246  )
        48           O   tau(  48) = (   0.1340974  -0.2987848  -0.1778430  )
        49           O   tau(  49) = (  -0.1326559   0.2294935  -0.1158176  )
        50           O   tau(  50) = (   0.2816855   0.0282957   0.2635431  )
        51           O   tau(  51) = (  -0.1557762   0.0092887   0.0985198  )
        52           O   tau(  52) = (  -0.0325852  -0.1212613  -0.1149093  )
        53           O   tau(  53) = (   0.0008982  -0.1616816  -0.2751173  )
        54           O   tau(  54) = (   0.2842308  -0.2986400   0.2213435  )
        55           O   tau(  55) = (   0.2564380  -0.1503315  -0.0118527  )
        56           O   tau(  56) = (   0.2350060  -0.0352025   0.1212980  )
        57           O   tau(  57) = (   0.0534831   0.2152089  -0.2177605  )
        58           O   tau(  58) = (  -0.0303973  -0.2882313   0.0233212  )
        59           O   tau(  59) = (  -0.2775791  -0.0685273  -0.2888670  )
        60           O   tau(  60) = (  -0.2316530   0.0716571  -0.0462882  )
        61           O   tau(  61) = (   0.2608113   0.0820162  -0.1367166  )
        62           O   tau(  62) = (   0.1365044  -0.0133633  -0.0485860  )
        63           O   tau(  63) = (  -0.2648191  -0.0601498   0.0612773  )
        64           O   tau(  64) = (   0.0763449   0.1347592   0.0719924  )
        65           H   tau(  65) = (  -0.2426374  -0.0789431  -0.0206470  )
        66           H   tau(  66) = (  -0.2236159  -0.0659470  -0.0925050  )
        67           H   tau(  67) = (   0.1773791  -0.1488494   0.2887707  )
        68           H   tau(  68) = (   0.1645109  -0.0820701   0.2483259  )
        69           H   tau(  69) = (  -0.3146994   0.2423402  -0.2436686  )
        70           H   tau(  70) = (  -0.2937599   0.2334533  -0.3140876  )
        71           H   tau(  71) = (   0.0164722   0.1589986  -0.0419996  )
        72           H   tau(  72) = (   0.0215894   0.2124505  -0.1002645  )
        73           H   tau(  73) = (  -0.2738784   0.0056869   0.1911204  )
        74           H   tau(  74) = (  -0.2531144   0.0660438   0.2273747  )
        75           H   tau(  75) = (   0.0097531   0.3152734   0.2549599  )
        76           H   tau(  76) = (  -0.0062211   0.2546019   0.3050561  )
        77           H   tau(  77) = (  -0.0207309  -0.2803268  -0.1253294  )
        78           H   tau(  78) = (  -0.0406377  -0.2911312  -0.1966958  )
        79           H   tau(  79) = (   0.1231216   0.0588889   0.1638133  )
        80           H   tau(  80) = (   0.0690107   0.0057085   0.1746114  )
        81           H   tau(  81) = (  -0.1750776  -0.2787653   0.3153689  )
        82           H   tau(  82) = (  -0.0995357  -0.2673399   0.3037796  )
        83           H   tau(  83) = (   0.0960908  -0.1008469   0.0754183  )
        84           H   tau(  84) = (   0.1387898  -0.1699699   0.0872710  )
        85           H   tau(  85) = (   0.1647392  -0.3133835   0.1175352  )
        86           H   tau(  86) = (   0.0883286  -0.3287343   0.1257790  )
        87           H   tau(  87) = (  -0.1748399  -0.1753910   0.1933779  )
        88           H   tau(  88) = (  -0.2178510  -0.1095036   0.1968766  )
        89           H   tau(  89) = (  -0.1779687  -0.3153343   0.0233510  )
        90           H   tau(  90) = (  -0.2220899  -0.2525539   0.0152445  )
        91           H   tau(  91) = (  -0.2237707  -0.2788147  -0.1655952  )
        92           H   tau(  92) = (  -0.1780786  -0.3308463  -0.1962647  )
        93           H   tau(  93) = (   0.1089458  -0.0883478  -0.1028003  )
        94           H   tau(  94) = (   0.1129735  -0.1533945  -0.0623202  )
        95           H   tau(  95) = (  -0.0695478   0.1565651   0.0387132  )
        96           H   tau(  96) = (  -0.0732845   0.0799214   0.0575124  )
        97           H   tau(  97) = (  -0.0162188  -0.0891278   0.0595622  )
        98           H   tau(  98) = (  -0.0449815  -0.0816533   0.1326226  )
        99           H   tau(  99) = (   0.0494667  -0.1805548   0.1860799  )
       100           H   tau( 100) = (  -0.0171053  -0.1872151   0.1531078  )
       101           H   tau( 101) = (   0.2993377  -0.2411641  -0.2709381  )
       102           H   tau( 102) = (   0.3002217  -0.1740296  -0.2262021  )
       103           H   tau( 103) = (   0.2832055   0.2778967   0.1428584  )
       104           H   tau( 104) = (   0.3077053   0.2534974   0.0719647  )
       105           H   tau( 105) = (   0.2669022  -0.1245803   0.1347224  )
       106           H   tau( 106) = (   0.3253523  -0.1822153   0.1388547  )
       107           H   tau( 107) = (  -0.1170082  -0.1405053  -0.2082619  )
       108           H   tau( 108) = (  -0.1959191  -0.1478909  -0.2257342  )
       109           H   tau( 109) = (  -0.0217315   0.1482974  -0.2082236  )
       110           H   tau( 110) = (  -0.0472900   0.0805178  -0.2411910  )
       111           H   tau( 111) = (   0.2366767   0.1259794   0.1640877  )
       112           H   tau( 112) = (   0.1720424   0.1608984   0.1375835  )
       113           H   tau( 113) = (   0.1449787   0.0507953  -0.1924502  )
       114           H   tau( 114) = (   0.1000873   0.1105393  -0.1612093  )
       115           H   tau( 115) = (  -0.2519563   0.1166429  -0.2651237  )
       116           H   tau( 116) = (  -0.1989326   0.1561738  -0.3101129  )
       117           H   tau( 117) = (   0.2089572  -0.2524361  -0.0768113  )
       118           H   tau( 118) = (   0.2697067  -0.2930998  -0.0542258  )
       119           H   tau( 119) = (   0.1394273  -0.0590827  -0.2542312  )
       120           H   tau( 120) = (   0.0595722  -0.0510535  -0.2560538  )
       121           H   tau( 121) = (  -0.1042282  -0.0252607  -0.2730580  )
       122           H   tau( 122) = (  -0.1428030   0.0371500  -0.2448958  )
       123           H   tau( 123) = (   0.0611131   0.0287022   0.0394208  )
       124           H   tau( 124) = (   0.0605104  -0.0227367  -0.0116487  )
       125           H   tau( 125) = (   0.2002667  -0.1099848  -0.1686776  )
       126           H   tau( 126) = (   0.2699141  -0.0848586  -0.1507126  )
       127           H   tau( 127) = (   0.2581302   0.0516232  -0.0088912  )
       128           H   tau( 128) = (   0.2980212  -0.0164912  -0.0257808  )
       129           H   tau( 129) = (  -0.0332324   0.1976774   0.1288365  )
       130           H   tau( 130) = (  -0.0248586   0.2725478   0.0991270  )
       131           H   tau( 131) = (  -0.2361615   0.0523924  -0.1618775  )
       132           H   tau( 132) = (  -0.3039202   0.0270180  -0.1755176  )
       133           H   tau( 133) = (   0.0320611  -0.2359098  -0.0332953  )
       134           H   tau( 134) = (   0.0442010  -0.1955135   0.0303356  )
       135           H   tau( 135) = (   0.1839665   0.1885755  -0.2103795  )
       136           H   tau( 136) = (   0.2311698   0.1398178  -0.2502964  )
       137           H   tau( 137) = (   0.1612174   0.2499660   0.2518219  )
       138           H   tau( 138) = (   0.1396461   0.3046375   0.2976828  )
       139           H   tau( 139) = (  -0.2907570   0.1944283  -0.0582331  )
       140           H   tau( 140) = (  -0.2371850   0.2256880  -0.1080949  )
       141           H   tau( 141) = (  -0.0011997   0.0162590  -0.1076197  )
       142           H   tau( 142) = (  -0.0676685   0.0467062  -0.0896950  )
       143           H   tau( 143) = (  -0.1504685  -0.1606393  -0.1062757  )
       144           H   tau( 144) = (  -0.1341551  -0.2116554  -0.0527605  )
       145           H   tau( 145) = (  -0.1662049   0.2917833   0.1419935  )
       146           H   tau( 146) = (  -0.1287081   0.2991158   0.2104857  )
       147           H   tau( 147) = (  -0.0755243   0.0927340   0.1821354  )
       148           H   tau( 148) = (  -0.1150700   0.1583273   0.1746060  )
       149           H   tau( 149) = (  -0.1131658  -0.0535684  -0.0182302  )
       150           H   tau( 150) = (  -0.1454994   0.0080558   0.0095449  )
       151           H   tau( 151) = (  -0.1221475  -0.1093592   0.2616131  )
       152           H   tau( 152) = (  -0.0632176  -0.1564051   0.2569906  )
       153           H   tau( 153) = (   0.0796987   0.0808524   0.2646643  )
       154           H   tau( 154) = (   0.0069180   0.1174700   0.2722070  )
       155           H   tau( 155) = (  -0.2665128   0.1747426   0.1131695  )
       156           H   tau( 156) = (  -0.1944565   0.1549672   0.0816248  )
       157           H   tau( 157) = (   0.1688721   0.2307879  -0.0108551  )
       158           H   tau( 158) = (   0.1419665   0.2054336  -0.0753710  )
       159           H   tau( 159) = (   0.1810073  -0.2950118  -0.1916289  )
       160           H   tau( 160) = (   0.1106772  -0.2610330  -0.1981560  )
       161           H   tau( 161) = (  -0.1243728   0.1940997  -0.1487379  )
       162           H   tau( 162) = (  -0.1016866   0.2114980  -0.0819482  )
       163           H   tau( 163) = (   0.3000125  -0.0017913   0.2997073  )
       164           H   tau( 164) = (   0.2340577   0.0188532   0.2630064  )
       165           H   tau( 165) = (  -0.1393379  -0.0322534   0.1171016  )
       166           H   tau( 166) = (  -0.1875617   0.0288369   0.1311835  )
       167           H   tau( 167) = (  -0.0011701  -0.1585774  -0.1169524  )
       168           H   tau( 168) = (  -0.0155615  -0.1034677  -0.0728859  )
       169           H   tau( 169) = (   0.0200451  -0.1693433  -0.2306386  )
       170           H   tau( 170) = (   0.0391905  -0.1547885  -0.3042244  )
       171           H   tau( 171) = (   0.2474010  -0.2793521   0.2468196  )
       172           H   tau( 172) = (   0.3258335  -0.2854001   0.2425662  )
       173           H   tau( 173) = (   0.2860219  -0.1747605   0.0182827  )
       174           H   tau( 174) = (   0.2329271  -0.1217355   0.0200008  )
       175           H   tau( 175) = (   0.2219633  -0.0175516   0.0769238  )
       176           H   tau( 176) = (   0.2073911  -0.0100062   0.1531810  )
       177           H   tau( 177) = (   0.0689273   0.1890322  -0.2557255  )
       178           H   tau( 178) = (   0.0826639   0.2546143  -0.2104778  )
       179           H   tau( 179) = (  -0.0467868  -0.3258785  -0.0032322  )
       180           H   tau( 180) = (  -0.0667238  -0.2574902   0.0336627  )
       181           H   tau( 181) = (  -0.2720292  -0.1000851  -0.3256775  )
       182           H   tau( 182) = (  -0.2370068  -0.0478100  -0.2718391  )
       183           H   tau( 183) = (  -0.1974419   0.1059507  -0.0505145  )
       184           H   tau( 184) = (  -0.2394049   0.0736492   0.0019208  )
       185           H   tau( 185) = (   0.2914745   0.1202505  -0.1383044  )
       186           H   tau( 186) = (   0.2182479   0.0991796  -0.1208314  )
       187           H   tau( 187) = (   0.1818162  -0.0220722  -0.0302291  )
       188           H   tau( 188) = (   0.1439555   0.0192526  -0.0848128  )
       189           H   tau( 189) = (  -0.3031631  -0.0353727   0.0797227  )
       190           H   tau( 190) = (  -0.2428031  -0.0797334   0.0994810  )
       191           H   tau( 191) = (   0.0546920   0.1800170   0.0720741  )
       192           H   tau( 192) = (   0.1148950   0.1349905   0.0420460  )

     number of k points=     1  Marzari-Vanderbilt smearing, width (Ry)=  0.0250
                       cart. coord. in units 2pi/alat
        k(    1) = (   0.0000000   0.0000000   0.0000000), wk =   2.0000000

     Dense  grid:   177509 G-vectors     FFT dimensions: (  72,  72,  72)

     Estimated max dynamical RAM per process >      67.80Mb

     Estimated total allocated dynamical RAM >    1898.40Mb

     Initial potential from superposition of free atoms
     Check: negative starting charge=   -0.863813

     starting charge  511.99856, renormalised to  512.00000

     negative rho (up, down):  8.638E-01 0.000E+00
     Starting wfc are  384 randomized atomic wfcs

     total cpu time spent up to now is        0.8 secs

     per-process dynamical memory:    45.9 Mb

     Self-consistent Calculation

     iteration #  1     ecut=    30.00 Ry     beta=0.70
     Davidson diagonalization with overlap
     ethr =  1.00E-02,  avg # of iterations =  8.0

     negative rho (up, down):  2.051E-01 0.000E+00

     total cpu time spent up to now is        9.0 secs

     total energy              =   -1780.93922167 Ry
     Harris-Foulkes estimate   =   -1808.97835915 Ry
     estimated scf accuracy    <      42.46691749 Ry

     iteration #  2     ecut=    30.00 Ry     beta=0.70
     Davidson diagonalization with overlap
     ethr =  8.29E-03,  avg # of iterations =  4.0

     negative rho (up, down):  5.711E-04 0.000E+00

     total cpu time spent up to now is       12.3 secs

     total energy              =   -1747.04013861 Ry
     Harris-Foulkes estimate   =   -1802.84148658 Ry
     estimated scf accuracy    <     175.28750746 Ry

     iteration #  3     ecut=    30.00 Ry     beta=0.70
     Davidson diagonalization with overlap
     ethr =  8.29E-03,  avg # of iterations =  5.0

     total cpu time spent up to now is       16.6 secs

     total energy              =   -1783.25070613 Ry
     Harris-Foulkes estimate   =   -1797.85679303 Ry
     estimated scf accuracy    <      52.48682274 Ry

     iteration #  4     ecut=    30.00 Ry     beta=0.70
     Davidson diagonalization with overlap
     ethr =  8.29E-03,  avg # of iterations =  3.0

     total cpu time spent up to now is       18.4 secs

     total energy              =   -1789.28773949 Ry
     Harris-Foulkes estimate   =   -1792.44784800 Ry
     estimated scf accuracy    <       9.29215419 Ry

     iteration #  5     ecut=    30.00 Ry     beta=0.70
     Davidson diagonalization with overlap
     ethr =  1.81E-03,  avg # of iterations =  4.0

     total cpu time spent up to now is       20.6 secs

     total energy              =   -1789.62369041 Ry
     Harris-Foulkes estimate   =   -1790.43724160 Ry
     estimated scf accuracy    <       4.89712575 Ry

     iteration #  6     ecut=    30.00 Ry     beta=0.70
     Davidson diagonalization with overlap
     ethr =  9.56E-04,  avg # of iterations =  4.0

     total cpu time spent up to now is       22.7 secs

     total energy              =   -1789.22197841 Ry
     Harris-Foulkes estimate   =   -1789.74203328 Ry
     estimated scf accuracy    <       2.94268423 Ry

     iteration #  7     ecut=    30.00 Ry     beta=0.70
     Davidson diagonalization with overlap
     ethr =  5.75E-04,  avg # of iterations =  4.0

     total cpu time spent up to now is       24.7 secs

     total energy              =   -1789.20973336 Ry
     Harris-Foulkes estimate   =   -1789.34822366 Ry
     estimated scf accuracy    <       1.08759552 Ry

     iteration #  8     ecut=    30.00 Ry     beta=0.70
     Davidson diagonalization with overlap
     ethr =  2.12E-04,  avg # of iterations =  4.0

     total cpu time spent up to now is       26.7 secs

     total energy              =   -1789.19855900 Ry
     Harris-Foulkes estimate   =   -1789.25886413 Ry
     estimated scf accuracy    <       0.55509236 Ry

     iteration #  9     ecut=    30.00 Ry     beta=0.70
     Davidson diagonalization with overlap
     ethr =  1.08E-04,  avg # of iterations =  8.0

     total cpu time spent up to now is       30.0 secs

     total energy              =   -1789.14839231 Ry
     Harris-Foulkes estimate   =   -1789.22296545 Ry
     estimated scf accuracy    <       0.42325412 Ry

     iteration # 10     ecut=    30.00 Ry     beta=0.70
     Davidson diagonalization with overlap
     ethr =  8.27E-05,  avg # of iterations =  5.0

     total cpu time spent up to now is       32.4 secs

     total energy              =   -1789.12725573 Ry
     Harris-Foulkes estimate   =   -1789.17893837 Ry
     estimated scf accuracy    <       0.22545548 Ry

     iteration # 11     ecut=    30.00 Ry     beta=0.70
     Davidson diagonalization with overlap
     ethr =  4.40E-05,  avg # of iterations =  4.0

     total cpu time spent up to now is       34.5 secs

     total energy              =   -1789.14509632 Ry
     Harris-Foulkes estimate   =   -1789.16445931 Ry
     estimated scf accuracy    <       0.09889499 Ry

     iteration # 12     ecut=    30.00 Ry     beta=0.70
     Davidson diagonalization with overlap
     ethr =  1.93E-05,  avg # of iterations =  5.0

     total cpu time spent up to now is       36.9 secs

     total energy              =   -1789.15170055 Ry
     Harris-Foulkes estimate   =   -1789.15693363 Ry
     estimated scf accuracy    <       0.02059531 Ry

     iteration # 13     ecut=    30.00 Ry     beta=0.70
     Davidson diagonalization with overlap
     ethr =  4.02E-06,  avg # of iterations =  8.0

     total cpu time spent up to now is       40.5 secs

     total energy              =   -1789.15384245 Ry
     Harris-Foulkes estimate   =   -1789.15501352 Ry
     estimated scf accuracy    <       0.00406516 Ry

     iteration # 14     ecut=    30.00 Ry     beta=0.70
     Davidson diagonalization with overlap
     ethr =  7.94E-07,  avg # of iterations =  3.0

     total cpu time spent up to now is       42.3 secs

     total energy              =   -1789.15442172 Ry
     Harris-Foulkes estimate   =   -1789.15467990 Ry
     estimated scf accuracy    <       0.00082663 Ry

     iteration # 15     ecut=    30.00 Ry     beta=0.70
     Davidson diagonalization with overlap
     ethr =  1.61E-07,  avg # of iterations =  2.0

     total cpu time spent up to now is       43.8 secs

     total energy              =   -1789.15456459 Ry
     Harris-Foulkes estimate   =   -1789.15464513 Ry
     estimated scf accuracy    <       0.00027296 Ry

     iteration # 16     ecut=    30.00 Ry     beta=0.70
     Davidson diagonalization with overlap
     ethr =  5.33E-08,  avg # of iterations =  2.0

     total cpu time spent up to now is       45.4 secs

     total energy              =   -1789.15461059 Ry
     Harris-Foulkes estimate   =   -1789.15464521 Ry
     estimated scf accuracy    <       0.00013642 Ry

     iteration # 17     ecut=    30.00 Ry     beta=0.70
     Davidson diagonalization with overlap
     ethr =  2.66E-08,  avg # of iterations =  2.0

     total cpu time spent up to now is       46.8 secs

     total energy              =   -1789.15463377 Ry
     Harris-Foulkes estimate   =   -1789.15463455 Ry
     estimated scf accuracy    <       0.00001598 Ry

     iteration # 18     ecut=    30.00 Ry     beta=0.70
     Davidson diagonalization with overlap
     ethr =  3.12E-09,  avg # of iterations =  3.0

     total cpu time spent up to now is       48.6 secs

     total energy              =   -1789.15463655 Ry
     Harris-Foulkes estimate   =   -1789.15463712 Ry
     estimated scf accuracy    <       0.00000328 Ry

     iteration # 19     ecut=    30.00 Ry     beta=0.70
     Davidson diagonalization with overlap
     ethr =  6.41E-10,  avg # of iterations =  2.0

     total cpu time spent up to now is       50.3 secs

     total energy              =   -1789.15463695 Ry
     Harris-Foulkes estimate   =   -1789.15463815 Ry
     estimated scf accuracy    <       0.00000682 Ry

     iteration # 20     ecut=    30.00 Ry     beta=0.70
     Davidson diagonalization with overlap
     ethr =  6.41E-10,  avg # of iterations =  2.0

     total cpu time spent up to now is       51.8 secs

     total energy              =   -1789.15463750 Ry
     Harris-Foulkes estimate   =   -1789.15463825 Ry
     estimated scf accuracy    <       0.00000391 Ry

     iteration # 21     ecut=    30.00 Ry     beta=0.70
     Davidson diagonalization with overlap
     ethr =  6.41E-10,  avg # of iterations =  2.0

     total cpu time spent up to now is       53.2 secs

     total energy              =   -1789.15463796 Ry
     Harris-Foulkes estimate   =   -1789.15463805 Ry
     estimated scf accuracy    <       0.00000149 Ry

     iteration # 22     ecut=    30.00 Ry     beta=0.70
     Davidson diagonalization with overlap
     ethr =  2.91E-10,  avg # of iterations =  2.0

     total cpu time spent up to now is       54.7 secs

     total energy              =   -1789.15463812 Ry
     Harris-Foulkes estimate   =   -1789.15463817 Ry
     estimated scf accuracy    <       0.00000033 Ry

     iteration # 23     ecut=    30.00 Ry     beta=0.70
     Davidson diagonalization with overlap
     ethr =  6.45E-11,  avg # of iterations =  2.0

     total cpu time spent up to now is       56.1 secs

     total energy              =   -1789.15463816 Ry
     Harris-Foulkes estimate   =   -1789.15463819 Ry
     estimated scf accuracy    <       0.00000017 Ry

     iteration # 24     ecut=    30.00 Ry     beta=0.70
     Davidson diagonalization with overlap
     ethr =  3.41E-11,  avg # of iterations =  2.0

     total cpu time spent up to now is       57.5 secs

     total energy              =   -1789.15463819 Ry
     Harris-Foulkes estimate   =   -1789.15463820 Ry
     estimated scf accuracy    <       0.00000009 Ry

     iteration # 25     ecut=    30.00 Ry     beta=0.70
     Davidson diagonalization with overlap
     ethr =  1.72E-11,  avg # of iterations =  3.0

     total cpu time spent up to now is       59.3 secs

     End of self-consistent calculation

          k = 0.0000 0.0000 0.0000 ( 22119 PWs)   bands (ev):

   -45.2670 -43.6876 -42.3313 -41.3890 -40.4955 -39.6373 -39.1859 -38.8720
   -38.6571 -37.8395 -37.1508 -36.8507 -36.5479 -36.3449 -35.6760 -35.3104
   -34.7689 -34.4840 -34.3820 -33.7353 -33.5512 -33.3944 -33.1093 -32.9355
   -32.6507 -32.4573 -32.3152 -31.9199 -31.7422 -31.6157 -31.3989 -31.2045
   -31.1129 -30.8210 -30.4071 -30.2759 -30.1335 -30.0155 -29.9054 -29.7628
   -29.4774 -29.2573 -29.1257 -28.8530 -28.7112 -28.4390 -28.3975 -28.3202
   -28.2450 -28.1415 -27.8156 -27.6624 -27.5181 -27.4461 -27.2808 -26.9572
   -26.8600 -26.7715 -26.6652 -26.5392 -26.4377 -26.3265 -26.2367 -25.9799
   -25.6154 -25.0050 -24.1041 -23.5462 -23.0859 -22.6850 -22.5211 -22.2474
   -21.6738 -21.5500 -21.2112 -20.9180 -20.8262 -20.7213 -20.3091 -20.0869
   -19.9453 -19.8289 -19.5933 -19.2647 -19.0580 -18.8169 -18.7154 -18.6021
   -18.2487 -18.0109 -17.8469 -17.7600 -17.5481 -17.4157 -17.1923 -16.9185
   -16.6685 -16.6285 -16.3908 -16.2929 -16.1534 -16.0786 -15.9621 -15.8451
   -15.6667 -15.5853 -15.4849 -15.3422 -15.2796 -15.1786 -14.8783 -14.7388
   -14.5717 -14.5090 -14.3319 -14.2659 -13.8991 -13.7645 -13.6461 -13.5203
   -13.3319 -13.2909 -13.0890 -12.8073 -12.7025 -12.5766 -12.4087 -12.2902
   -12.2287 -12.1332 -12.0799 -12.0089 -11.3577 -11.2183 -11.1088 -10.9148
   -10.5429 -10.2661 -10.0563  -9.9567  -9.7476  -9.4985  -9.3479  -9.2900
    -8.9029  -8.8114  -8.7172  -8.4947  -8.2136  -7.9768  -7.8798  -7.6659
    -7.4446  -7.3963  -7.3053  -7.1178  -7.0365  -6.8921  -6.7167  -6.6945
    -6.5112  -6.4647  -6.3062  -6.1455  -6.0010  -5.8561  -5.7614  -5.6796
    -5.5569  -5.5399  -5.4504  -5.2589  -5.2151  -5.1922  -5.0086  -4.9527
    -4.9320  -4.8925  -4.7037  -4.6507  -4.5004  -4.4018  -4.2969  -4.0546
    -4.0380  -3.9018  -3.7907  -3.7243  -3.6530  -3.4079  -3.3125  -3.1865
    -3.0991  -2.9588  -2.9167  -2.7635  -2.6606  -2.5936  -2.4668  -2.3487
    -2.2330  -2.1114  -2.0300  -1.9563  -1.6719  -1.5398  -1.5152  -1.4222
    -1.3814  -1.3270  -1.1589  -0.9956  -0.8346  -0.7323  -0.6617  -0.5715
    -0.4643  -0.4172  -0.1668  -0.0659  -0.0638   0.1345   0.3409   0.4188
     0.5725   0.9946   1.3080   1.3420   1.3893   1.4323   1.5988   1.6450
     1.7513   1.8942   2.2607   2.3717   2.4082   2.5815   2.6441   2.7666
     3.0265   3.2066   3.3475   3.4980   3.5543   3.7369   4.1310   4.5743
     4.6420   4.9478   4.9767   5.2853   5.4214   5.5981   5.7034   5.8893
     6.0356   6.3545   6.5311   6.7071   6.8081   7.2296   7.3650   7.4477
     7.5408   7.5669   7.6979   7.8268   8.1070   8.4720   8.5357   8.7766
     8.8829   9.0174   9.2487   9.3759   9.5606   9.6029   9.8088   9.8536
     9.9682  10.0197  10.3470  10.4477  10.5677  10.5842  10.6951  10.7727
    10.8098  10.9228  11.0320  11.2354  11.3271  11.4028  11.4606  11.5664
    11.6461  11.6790  11.7691  11.8193  11.8771  11.9787  12.1013  12.1471
    12.2026  12.3438  12.3712

     the Fermi energy is     5.9730 ev

!    total energy              =   -1789.15463821 Ry
     Harris-Foulkes estimate   =   -1789.15463820 Ry
     estimated scf accuracy    <          7.7E-09 Ry

     The total energy is the sum of the following terms:

     one-electron contribution =  -16200.38375481 Ry
     hartree contribution      =    8252.41914316 Ry
     xc contribution           =    -638.91790970 Ry
     ewald contribution        =    6797.72330383 Ry
     smearing contrib. (-TS)   =       0.00457932 Ry

     convergence has been achieved in  25 iterations

     Writing output data file pwscf.save
 
     init_run     :      0.58s CPU      0.63s WALL (       1 calls)
     electrons    :     56.92s CPU     58.56s WALL (       1 calls)

     Called by init_run:
     wfcinit      :      0.48s CPU      0.53s WALL (       1 calls)
     potinit      :      0.02s CPU      0.02s WALL (       1 calls)

     Called by electrons:
     c_bands      :     54.43s CPU     55.79s WALL (      25 calls)
     sum_band     :      2.10s CPU      2.14s WALL (      25 calls)
     v_of_rho     :      0.20s CPU      0.21s WALL (      26 calls)
     mix_rho      :      0.14s CPU      0.29s WALL (      25 calls)

     Called by c_bands:
     init_us_2    :      0.07s CPU      0.08s WALL (      51 calls)
     cegterg      :     54.31s CPU     55.56s WALL (      25 calls)

     Called by sum_band:

     Called by *egterg:
     h_psi        :      9.47s CPU      9.65s WALL (     119 calls)
     g_psi        :      0.08s CPU      0.08s WALL (      93 calls)
     cdiaghg      :     34.03s CPU     34.06s WALL (     118 calls)

     Called by h_psi:
     h_psi:pot    :      9.23s CPU      9.40s WALL (     119 calls)
     h_psi:calbec :      0.34s CPU      0.35s WALL (     119 calls)
     vloc_psi     :      8.59s CPU      8.74s WALL (     119 calls)
     add_vuspsi   :      0.30s CPU      0.31s WALL (     119 calls)

     General routines
     calbec       :      0.34s CPU      0.35s WALL (     119 calls)
     fft          :      0.11s CPU      0.12s WALL (     285 calls)
     fftw         :      9.50s CPU      9.68s WALL (   43159 calls)
     davcio       :      0.03s CPU      0.16s WALL (     408 calls)
 
     Parallel routines
     fft_scatter  :      3.17s CPU      3.25s WALL (   43444 calls)
 
     PWSCF        :    57.66s CPU        59.57s WALL

 
   This run was terminated on:   5:57:17   2Feb2018            

=------------------------------------------------------------------------------=
   JOB DONE.
=------------------------------------------------------------------------------=
