
     Program PWSCF v.6.0 (svn rev. 13079) starts on  2Feb2018 at 16:37:56 

     This program is part of the open-source Quantum ESPRESSO suite
     for quantum simulation of materials; please cite
         "P. Giannozzi et al., J. Phys.:Condens. Matter 21 395502 (2009);
          URL http://www.quantum-espresso.org", 
     in publications or presentations arising from this work. More details at
     http://www.quantum-espresso.org/quote

     Parallel version (MPI), running on    28 processors
     R & G space division:  proc/nbgrp/npool/nimage =      28
     Reading input from input/scf-bigwater-1/710.in
Warning: card &IONS ignored
Warning: card     POT_EXTRAPOLATION='SECOND-ORDER' ignored
Warning: card     WFC_EXTRAPOLATION='SECOND-ORDER' ignored
Warning: card     ION_TEMPERATURE = 'ANDERSEN' ignored
Warning: card     TEMPW = 1000 ignored
Warning: card / ignored

     Current dimensions of program PWSCF are:
     Max number of different atomic species (ntypx) = 10
     Max number of k-points (npk) =  40000
     Max angular momentum in pseudopotentials (lmaxx) =  3

     Subspace diagonalization in iterative solution of the eigenvalue problem:
     a serial algorithm will be used

 
     Parallelization info
     --------------------
     sticks:   dense  smooth     PW     G-vecs:    dense   smooth      PW
     Min         136     136     33                 6338     6338     787
     Max         137     137     34                 6341     6341     792
     Sum        3809    3809    949               177509   177509   22119
 


     bravais-lattice index     =            1
     lattice parameter (alat)  =      20.0000  a.u.
     unit-cell volume          =    8000.0000 (a.u.)^3
     number of atoms/cell      =          192
     number of atomic types    =            2
     number of electrons       =       512.00
     number of Kohn-Sham states=          307
     kinetic-energy cutoff     =      30.0000  Ry
     charge density cutoff     =     120.0000  Ry
     convergence threshold     =      1.0E-08
     mixing beta               =       0.7000
     number of iterations used =            8  plain     mixing
     Exchange-correlation      = BLYP ( 1  3  1  3 0 0)

     celldm(1)=  20.000000  celldm(2)=   0.000000  celldm(3)=   0.000000
     celldm(4)=   0.000000  celldm(5)=   0.000000  celldm(6)=   0.000000

     crystal axes: (cart. coord. in units of alat)
               a(1) = (   1.000000   0.000000   0.000000 )  
               a(2) = (   0.000000   1.000000   0.000000 )  
               a(3) = (   0.000000   0.000000   1.000000 )  

     reciprocal axes: (cart. coord. in units 2 pi/alat)
               b(1) = (  1.000000  0.000000  0.000000 )  
               b(2) = (  0.000000  1.000000  0.000000 )  
               b(3) = (  0.000000  0.000000  1.000000 )  


     PseudoPot. # 1 for  H read from file:
     ./H.blyp-hgh.UPF
     MD5 check sum: c576e69559cde411e611be972c763230
     Pseudo is Norm-conserving, Zval =  1.0
     Generated in analytical, separable form
     Using radial grid of  929 points,  0 beta functions with: 

     PseudoPot. # 2 for  O read from file:
     ./O.blyp-hgh.UPF
     MD5 check sum: d0b7156309aa9befef28faac7bc56342
     Pseudo is Norm-conserving, Zval =  6.0
     Generated in analytical, separable form
     Using radial grid of 1095 points,  1 beta functions with: 
                l(1) =   0

     atomic species   valence    mass     pseudopotential
        H              1.00     1.01000      H( 1.00)
        O              6.00    16.00000      O( 1.00)

     No symmetry found



   Cartesian axes

     site n.     atom                  positions (alat units)
         1           O   tau(   1) = (  -0.2643805  -0.0671174  -0.0706901  )
         2           O   tau(   2) = (   0.1473212  -0.1324248   0.2957496  )
         3           O   tau(   3) = (  -0.2734464   0.3131262  -0.2734642  )
         4           O   tau(   4) = (   0.0523489   0.1775710  -0.0469960  )
         5           O   tau(   5) = (  -0.2542800   0.0583096   0.1774294  )
         6           O   tau(   6) = (  -0.0085753   0.3130291   0.3055269  )
         7           O   tau(   7) = (  -0.0422557  -0.2696503  -0.1267648  )
         8           O   tau(   8) = (   0.1316868   0.0444497   0.2237538  )
         9           O   tau(   9) = (  -0.1445442  -0.3026598   0.2957617  )
        10           O   tau(  10) = (   0.1291422  -0.1272495   0.1593837  )
        11           O   tau(  11) = (   0.1213684  -0.3185734   0.1418866  )
        12           O   tau(  12) = (  -0.1750423  -0.1843144   0.2181077  )
        13           O   tau(  13) = (  -0.2372537  -0.3350645   0.0392943  )
        14           O   tau(  14) = (  -0.1862796  -0.2542250  -0.1768224  )
        15           O   tau(  15) = (   0.1387527  -0.1675141  -0.1054828  )
        16           O   tau(  16) = (  -0.1000656   0.1257972  -0.0343641  )
        17           O   tau(  17) = (  -0.0691237  -0.1498258   0.1229871  )
        18           O   tau(  18) = (   0.0303377  -0.2228077   0.1748194  )
        19           O   tau(  19) = (   0.2385891  -0.2246037  -0.2397931  )
        20           O   tau(  20) = (   0.2628083   0.2424562   0.1074033  )
        21           O   tau(  21) = (   0.2530114  -0.1832164   0.1736606  )
        22           O   tau(  22) = (  -0.1345611  -0.1276277  -0.1763664  )
        23           O   tau(  23) = (  -0.0632507   0.1492086  -0.2241457  )
        24           O   tau(  24) = (   0.2053802   0.0952535   0.1227431  )
        25           O   tau(  25) = (   0.1445803   0.0602761  -0.1893348  )
        26           O   tau(  26) = (  -0.2154443   0.1356955  -0.2806522  )
        27           O   tau(  27) = (   0.2553689  -0.2865296  -0.0327674  )
        28           O   tau(  28) = (   0.0664212  -0.0142961  -0.2798192  )
        29           O   tau(  29) = (  -0.0898460   0.0221687  -0.2581516  )
        30           O   tau(  30) = (   0.0579061  -0.0432827   0.0698211  )
        31           O   tau(  31) = (   0.2840358  -0.0947419  -0.1970338  )
        32           O   tau(  32) = (   0.2296473  -0.0092089  -0.0372824  )
        33           O   tau(  33) = (   0.0186470   0.2095613   0.2026176  )
        34           O   tau(  34) = (  -0.2296044   0.0360640  -0.1904642  )
        35           O   tau(  35) = (   0.0299449  -0.1898530  -0.0228495  )
        36           O   tau(  36) = (   0.2419393   0.2070346  -0.2962075  )
        37           O   tau(  37) = (   0.1277864   0.3118174   0.2732720  )
        38           O   tau(  38) = (  -0.2741897   0.2538269  -0.1084216  )
        39           O   tau(  39) = (  -0.0074856   0.0606532  -0.1206760  )
        40           O   tau(  40) = (  -0.1874167  -0.1960638  -0.0518462  )
        41           O   tau(  41) = (  -0.1520009   0.2823390   0.1483405  )
        42           O   tau(  42) = (  -0.1024966   0.1601364   0.2207149  )
        43           O   tau(  43) = (  -0.0893404  -0.0855455  -0.0260541  )
        44           O   tau(  44) = (  -0.0678098  -0.0831815   0.2667697  )
        45           O   tau(  45) = (   0.0062933   0.1112796   0.2825474  )
        46           O   tau(  46) = (  -0.2416989   0.1558921   0.0689914  )
        47           O   tau(  47) = (   0.1649513   0.2200227  -0.0800250  )
        48           O   tau(  48) = (   0.0944978  -0.2894430  -0.2001045  )
        49           O   tau(  49) = (  -0.1534309   0.2166244  -0.1536423  )
        50           O   tau(  50) = (   0.2285477   0.0371286   0.3295886  )
        51           O   tau(  51) = (  -0.0959358   0.0308821   0.1100518  )
        52           O   tau(  52) = (  -0.0009354  -0.0911332  -0.1844264  )
        53           O   tau(  53) = (   0.0034910  -0.1755831  -0.2912307  )
        54           O   tau(  54) = (   0.3204366  -0.2987592   0.2080532  )
        55           O   tau(  55) = (   0.1826122  -0.1535564   0.0376266  )
        56           O   tau(  56) = (   0.2888169  -0.0339189   0.1424605  )
        57           O   tau(  57) = (   0.0834360   0.1906217  -0.2197364  )
        58           O   tau(  58) = (  -0.0766339  -0.3254579  -0.0114039  )
        59           O   tau(  59) = (  -0.2646301  -0.0866801  -0.3007077  )
        60           O   tau(  60) = (  -0.2205941   0.0682901  -0.0555964  )
        61           O   tau(  61) = (   0.2541632   0.1690573  -0.1718214  )
        62           O   tau(  62) = (   0.0973064  -0.0311393  -0.0758752  )
        63           O   tau(  63) = (  -0.2427437  -0.1491407   0.0670999  )
        64           O   tau(  64) = (   0.0906971   0.1396746   0.0693091  )
        65           H   tau(  65) = (  -0.2247750  -0.0926659  -0.0850060  )
        66           H   tau(  66) = (  -0.2582918  -0.0200166  -0.0576727  )
        67           H   tau(  67) = (   0.1729248  -0.0971704   0.3196619  )
        68           H   tau(  68) = (   0.1421688  -0.1100710   0.2516734  )
        69           H   tau(  69) = (  -0.2824359   0.2678351  -0.2574081  )
        70           H   tau(  70) = (  -0.2359614   0.3284974  -0.2455380  )
        71           H   tau(  71) = (   0.0270431   0.1366771  -0.0552466  )
        72           H   tau(  72) = (   0.0940819   0.1742895  -0.0736912  )
        73           H   tau(  73) = (  -0.2880194   0.0382032   0.1475585  )
        74           H   tau(  74) = (  -0.2609352   0.0460355   0.2233944  )
        75           H   tau(  75) = (  -0.0035824   0.3408835   0.2644397  )
        76           H   tau(  76) = (   0.0386843   0.3099820   0.3190571  )
        77           H   tau(  77) = (  -0.0523196  -0.2788768  -0.0791848  )
        78           H   tau(  78) = (   0.0060940  -0.2717685  -0.1331926  )
        79           H   tau(  79) = (   0.1627380   0.0618776   0.1877179  )
        80           H   tau(  80) = (   0.1088293   0.0857936   0.2377219  )
        81           H   tau(  81) = (  -0.1815780  -0.3001085   0.3269750  )
        82           H   tau(  82) = (  -0.1053868  -0.3217115   0.3177973  )
        83           H   tau(  83) = (   0.0951008  -0.0973140   0.1408332  )
        84           H   tau(  84) = (   0.1475208  -0.1495361   0.1187247  )
        85           H   tau(  85) = (   0.1329586  -0.3651227   0.1319064  )
        86           H   tau(  86) = (   0.0723146  -0.3212668   0.1472766  )
        87           H   tau(  87) = (  -0.1412175  -0.2148841   0.2322011  )
        88           H   tau(  88) = (  -0.2139776  -0.2034356   0.1958260  )
        89           H   tau(  89) = (  -0.2457914  -0.3832329   0.0406461  )
        90           H   tau(  90) = (  -0.2488886  -0.3338240  -0.0088451  )
        91           H   tau(  91) = (  -0.1598980  -0.2119498  -0.1665665  )
        92           H   tau(  92) = (  -0.1465991  -0.2807076  -0.1880972  )
        93           H   tau(  93) = (   0.1151547  -0.1267216  -0.1180950  )
        94           H   tau(  94) = (   0.1011888  -0.1905382  -0.0834162  )
        95           H   tau(  95) = (  -0.1230519   0.1163993  -0.0761922  )
        96           H   tau(  96) = (  -0.0698144   0.1558036  -0.0588570  )
        97           H   tau(  97) = (  -0.0948076  -0.1704061   0.0852074  )
        98           H   tau(  98) = (  -0.0535276  -0.1055397   0.1108505  )
        99           H   tau(  99) = (   0.0714542  -0.2032776   0.1563466  )
       100           H   tau( 100) = (  -0.0069756  -0.2045561   0.1481037  )
       101           H   tau( 101) = (   0.2866475  -0.2260608  -0.2491661  )
       102           H   tau( 102) = (   0.2142335  -0.1895426  -0.2641864  )
       103           H   tau( 103) = (   0.2515713   0.2858080   0.1283035  )
       104           H   tau( 104) = (   0.3110851   0.2414786   0.1183232  )
       105           H   tau( 105) = (   0.2857187  -0.1474399   0.1684478  )
       106           H   tau( 106) = (   0.2205942  -0.1689544   0.2072563  )
       107           H   tau( 107) = (  -0.0884687  -0.1173201  -0.1913943  )
       108           H   tau( 108) = (  -0.1639222  -0.1061603  -0.2088708  )
       109           H   tau( 109) = (  -0.0234413   0.1667923  -0.2014471  )
       110           H   tau( 110) = (  -0.0558196   0.1011381  -0.2359001  )
       111           H   tau( 111) = (   0.2375614   0.1285322   0.1389002  )
       112           H   tau( 112) = (   0.1767391   0.1226757   0.0921239  )
       113           H   tau( 113) = (   0.1253862   0.0227229  -0.2151945  )
       114           H   tau( 114) = (   0.1122045   0.0940298  -0.2041290  )
       115           H   tau( 115) = (  -0.2543641   0.1089140  -0.2928408  )
       116           H   tau( 116) = (  -0.1762363   0.1064056  -0.2800906  )
       117           H   tau( 117) = (   0.2835602  -0.3049724   0.0032985  )
       118           H   tau( 118) = (   0.2682200  -0.3124941  -0.0726035  )
       119           H   tau( 119) = (   0.0889608  -0.0360476  -0.3167858  )
       120           H   tau( 120) = (   0.0506894   0.0273309  -0.3019021  )
       121           H   tau( 121) = (  -0.0777241  -0.0232109  -0.2740400  )
       122           H   tau( 122) = (  -0.1382855   0.0192889  -0.2503369  )
       123           H   tau( 123) = (   0.0600011  -0.0009926   0.0940489  )
       124           H   tau( 124) = (   0.0741462  -0.0328879   0.0238678  )
       125           H   tau( 125) = (   0.2731669  -0.1410619  -0.1855873  )
       126           H   tau( 126) = (   0.2973520  -0.0702336  -0.1564188  )
       127           H   tau( 127) = (   0.2548426   0.0306582  -0.0455912  )
       128           H   tau( 128) = (   0.2535749  -0.0435545  -0.0608216  )
       129           H   tau( 129) = (   0.0167960   0.2433257   0.2384166  )
       130           H   tau( 130) = (  -0.0219401   0.1858822   0.2141665  )
       131           H   tau( 131) = (  -0.2117872   0.0351346  -0.1452803  )
       132           H   tau( 132) = (  -0.2754543   0.0528623  -0.1910084  )
       133           H   tau( 133) = (  -0.0014948  -0.1949309  -0.0603832  )
       134           H   tau( 134) = (   0.0157010  -0.1484763  -0.0010645  )
       135           H   tau( 135) = (   0.2062136   0.2401752  -0.2904329  )
       136           H   tau( 136) = (   0.2409859   0.1977842  -0.3443256  )
       137           H   tau( 137) = (   0.1245796   0.3129732   0.2233757  )
       138           H   tau( 138) = (   0.1439567   0.3568359   0.2847574  )
       139           H   tau( 139) = (  -0.2832028   0.2119969  -0.1320447  )
       140           H   tau( 140) = (  -0.2338700   0.2721313  -0.1291815  )
       141           H   tau( 141) = (  -0.0390935   0.0316991  -0.0958434  )
       142           H   tau( 142) = (  -0.0420015   0.0775112  -0.1519241  )
       143           H   tau( 143) = (  -0.2281728  -0.2154956  -0.0708145  )
       144           H   tau( 144) = (  -0.2043440  -0.1832240  -0.0084753  )
       145           H   tau( 145) = (  -0.1898461   0.3126433   0.1508119  )
       146           H   tau( 146) = (  -0.1312573   0.2903561   0.1918311  )
       147           H   tau( 147) = (  -0.1362483   0.1949366   0.2159944  )
       148           H   tau( 148) = (  -0.1063635   0.1483823   0.2680774  )
       149           H   tau( 149) = (  -0.1056594  -0.1177163  -0.0588282  )
       150           H   tau( 150) = (  -0.1232077  -0.0758919   0.0076035  )
       151           H   tau( 151) = (  -0.1009501  -0.0886475   0.2316069  )
       152           H   tau( 152) = (  -0.0362943  -0.1199093   0.2592172  )
       153           H   tau( 153) = (  -0.0022029   0.1309162   0.2391313  )
       154           H   tau( 154) = (  -0.0217681   0.1329838   0.3166045  )
       155           H   tau( 155) = (  -0.2670848   0.1245853   0.0963717  )
       156           H   tau( 156) = (  -0.2213932   0.1822974   0.1047412  )
       157           H   tau( 157) = (   0.1889461   0.2417997  -0.0437816  )
       158           H   tau( 158) = (   0.1967288   0.2109239  -0.1169868  )
       159           H   tau( 159) = (   0.1255602  -0.2964528  -0.2376323  )
       160           H   tau( 160) = (   0.1211340  -0.2563731  -0.1743272  )
       161           H   tau( 161) = (  -0.1712938   0.2129291  -0.1991306  )
       162           H   tau( 162) = (  -0.1244450   0.2557007  -0.1485212  )
       163           H   tau( 163) = (   0.1973412   0.0553654   0.3635080  )
       164           H   tau( 164) = (   0.2026404   0.0353165   0.2880098  )
       165           H   tau( 165) = (  -0.0897447   0.0417917   0.0631798  )
       166           H   tau( 166) = (  -0.1424286   0.0410838   0.1205067  )
       167           H   tau( 167) = (   0.0333328  -0.0652798  -0.1602677  )
       168           H   tau( 168) = (   0.0167556  -0.0909823  -0.2300447  )
       169           H   tau( 169) = (  -0.0174097  -0.2204751  -0.2888477  )
       170           H   tau( 170) = (   0.0480742  -0.1837646  -0.2722953  )
       171           H   tau( 171) = (   0.3384307  -0.3146684   0.2512632  )
       172           H   tau( 172) = (   0.2851327  -0.2700502   0.2268108  )
       173           H   tau( 173) = (   0.2006626  -0.1960304   0.0542344  )
       174           H   tau( 174) = (   0.1801256  -0.1625045  -0.0108965  )
       175           H   tau( 175) = (   0.2512539  -0.0490704   0.1154819  )
       176           H   tau( 176) = (   0.2698262  -0.0085150   0.1792070  )
       177           H   tau( 177) = (   0.0924704   0.2006513  -0.2668947  )
       178           H   tau( 178) = (   0.0821798   0.2358071  -0.1962401  )
       179           H   tau( 179) = (  -0.0348715  -0.3239395   0.0139688  )
       180           H   tau( 180) = (  -0.1120362  -0.3309266   0.0227936  )
       181           H   tau( 181) = (  -0.2882123  -0.0938072  -0.2580470  )
       182           H   tau( 182) = (  -0.2242287  -0.1138990  -0.3001939  )
       183           H   tau( 183) = (  -0.1825249   0.0568935  -0.0269771  )
       184           H   tau( 184) = (  -0.2381399   0.1054881  -0.0288090  )
       185           H   tau( 185) = (   0.2501561   0.1675463  -0.2220687  )
       186           H   tau( 186) = (   0.2501178   0.1241896  -0.1542091  )
       187           H   tau( 187) = (   0.1447573  -0.0187980  -0.0707132  )
       188           H   tau( 188) = (   0.0746915   0.0121799  -0.0784371  )
       189           H   tau( 189) = (  -0.2442579  -0.1237868   0.0246389  )
       190           H   tau( 190) = (  -0.2083567  -0.1264630   0.0938651  )
       191           H   tau( 191) = (   0.0608192   0.1526702   0.1060283  )
       192           H   tau( 192) = (   0.0715883   0.1634908   0.0283706  )

     number of k points=     1  Marzari-Vanderbilt smearing, width (Ry)=  0.0250
                       cart. coord. in units 2pi/alat
        k(    1) = (   0.0000000   0.0000000   0.0000000), wk =   2.0000000

     Dense  grid:   177509 G-vectors     FFT dimensions: (  72,  72,  72)

     Estimated max dynamical RAM per process >      67.80Mb

     Estimated total allocated dynamical RAM >    1898.40Mb

     Initial potential from superposition of free atoms
     Check: negative starting charge=   -0.768860

     starting charge  511.99856, renormalised to  512.00000

     negative rho (up, down):  7.689E-01 0.000E+00
     Starting wfc are  384 randomized atomic wfcs

     total cpu time spent up to now is        0.9 secs

     per-process dynamical memory:    45.9 Mb

     Self-consistent Calculation

     iteration #  1     ecut=    30.00 Ry     beta=0.70
     Davidson diagonalization with overlap
     ethr =  1.00E-02,  avg # of iterations =  9.0

     negative rho (up, down):  1.826E-01 0.000E+00

     total cpu time spent up to now is       10.2 secs

     total energy              =   -1792.15959510 Ry
     Harris-Foulkes estimate   =   -1820.28570564 Ry
     estimated scf accuracy    <      43.13638060 Ry

     iteration #  2     ecut=    30.00 Ry     beta=0.70
     Davidson diagonalization with overlap
     ethr =  8.43E-03,  avg # of iterations =  4.0

     negative rho (up, down):  1.388E-03 0.000E+00

     total cpu time spent up to now is       13.3 secs

     total energy              =   -1770.09494500 Ry
     Harris-Foulkes estimate   =   -1808.31828885 Ry
     estimated scf accuracy    <      91.08420356 Ry

     iteration #  3     ecut=    30.00 Ry     beta=0.70
     Davidson diagonalization with overlap
     ethr =  8.43E-03,  avg # of iterations =  5.0

     negative rho (up, down):  3.192E-06 0.000E+00

     total cpu time spent up to now is       17.1 secs

     total energy              =   -1796.39900943 Ry
     Harris-Foulkes estimate   =   -1807.44994681 Ry
     estimated scf accuracy    <      33.68865939 Ry

     iteration #  4     ecut=    30.00 Ry     beta=0.70
     Davidson diagonalization with overlap
     ethr =  6.58E-03,  avg # of iterations =  3.0

     total cpu time spent up to now is       18.9 secs

     total energy              =   -1800.51034378 Ry
     Harris-Foulkes estimate   =   -1802.56789869 Ry
     estimated scf accuracy    <       7.01235096 Ry

     iteration #  5     ecut=    30.00 Ry     beta=0.70
     Davidson diagonalization with overlap
     ethr =  1.37E-03,  avg # of iterations =  4.0

     total cpu time spent up to now is       21.1 secs

     total energy              =   -1800.16575996 Ry
     Harris-Foulkes estimate   =   -1800.88731562 Ry
     estimated scf accuracy    <       3.03606914 Ry

     iteration #  6     ecut=    30.00 Ry     beta=0.70
     Davidson diagonalization with overlap
     ethr =  5.93E-04,  avg # of iterations =  6.0

     total cpu time spent up to now is       23.8 secs

     total energy              =   -1800.15609598 Ry
     Harris-Foulkes estimate   =   -1800.27890560 Ry
     estimated scf accuracy    <       1.32957676 Ry

     iteration #  7     ecut=    30.00 Ry     beta=0.70
     Davidson diagonalization with overlap
     ethr =  2.60E-04,  avg # of iterations =  1.0

     total cpu time spent up to now is       24.9 secs

     total energy              =   -1799.95227503 Ry
     Harris-Foulkes estimate   =   -1800.19932148 Ry
     estimated scf accuracy    <       1.12135062 Ry

     iteration #  8     ecut=    30.00 Ry     beta=0.70
     Davidson diagonalization with overlap
     ethr =  2.19E-04,  avg # of iterations =  7.0

     total cpu time spent up to now is       28.0 secs

     total energy              =   -1799.94251834 Ry
     Harris-Foulkes estimate   =   -1800.05003140 Ry
     estimated scf accuracy    <       0.69221772 Ry

     iteration #  9     ecut=    30.00 Ry     beta=0.70
     Davidson diagonalization with overlap
     ethr =  1.35E-04,  avg # of iterations =  2.0

     total cpu time spent up to now is       29.4 secs

     total energy              =   -1799.92453969 Ry
     Harris-Foulkes estimate   =   -1799.99711202 Ry
     estimated scf accuracy    <       0.30873830 Ry

     iteration # 10     ecut=    30.00 Ry     beta=0.70
     Davidson diagonalization with overlap
     ethr =  6.03E-05,  avg # of iterations =  8.0

     total cpu time spent up to now is       32.8 secs

     total energy              =   -1799.96290716 Ry
     Harris-Foulkes estimate   =   -1799.97664490 Ry
     estimated scf accuracy    <       0.13965821 Ry

     iteration # 11     ecut=    30.00 Ry     beta=0.70
     Davidson diagonalization with overlap
     ethr =  2.73E-05,  avg # of iterations =  1.0

     total cpu time spent up to now is       33.9 secs

     total energy              =   -1799.95986643 Ry
     Harris-Foulkes estimate   =   -1799.97049475 Ry
     estimated scf accuracy    <       0.07054927 Ry

     iteration # 12     ecut=    30.00 Ry     beta=0.70
     Davidson diagonalization with overlap
     ethr =  1.38E-05,  avg # of iterations =  4.0

     total cpu time spent up to now is       36.0 secs

     total energy              =   -1799.96196643 Ry
     Harris-Foulkes estimate   =   -1799.96969103 Ry
     estimated scf accuracy    <       0.05372540 Ry

     iteration # 13     ecut=    30.00 Ry     beta=0.70
     Davidson diagonalization with overlap
     ethr =  1.05E-05,  avg # of iterations =  1.0

     total cpu time spent up to now is       37.1 secs

     total energy              =   -1799.96581166 Ry
     Harris-Foulkes estimate   =   -1799.96625464 Ry
     estimated scf accuracy    <       0.00304483 Ry

     iteration # 14     ecut=    30.00 Ry     beta=0.70
     Davidson diagonalization with overlap
     ethr =  5.95E-07,  avg # of iterations =  9.0

     total cpu time spent up to now is       40.7 secs

     total energy              =   -1799.96594538 Ry
     Harris-Foulkes estimate   =   -1799.96611102 Ry
     estimated scf accuracy    <       0.00090998 Ry

     iteration # 15     ecut=    30.00 Ry     beta=0.70
     Davidson diagonalization with overlap
     ethr =  1.78E-07,  avg # of iterations =  2.0

     total cpu time spent up to now is       42.2 secs

     total energy              =   -1799.96600080 Ry
     Harris-Foulkes estimate   =   -1799.96612993 Ry
     estimated scf accuracy    <       0.00123288 Ry

     iteration # 16     ecut=    30.00 Ry     beta=0.70
     Davidson diagonalization with overlap
     ethr =  1.78E-07,  avg # of iterations =  1.0

     total cpu time spent up to now is       43.3 secs

     total energy              =   -1799.96607031 Ry
     Harris-Foulkes estimate   =   -1799.96607747 Ry
     estimated scf accuracy    <       0.00006224 Ry

     iteration # 17     ecut=    30.00 Ry     beta=0.70
     Davidson diagonalization with overlap
     ethr =  1.22E-08,  avg # of iterations =  2.0

     total cpu time spent up to now is       44.7 secs

     total energy              =   -1799.96607636 Ry
     Harris-Foulkes estimate   =   -1799.96607723 Ry
     estimated scf accuracy    <       0.00000990 Ry

     iteration # 18     ecut=    30.00 Ry     beta=0.70
     Davidson diagonalization with overlap
     ethr =  1.93E-09,  avg # of iterations =  2.0

     total cpu time spent up to now is       46.2 secs

     total energy              =   -1799.96607764 Ry
     Harris-Foulkes estimate   =   -1799.96607813 Ry
     estimated scf accuracy    <       0.00000511 Ry

     iteration # 19     ecut=    30.00 Ry     beta=0.70
     Davidson diagonalization with overlap
     ethr =  9.98E-10,  avg # of iterations =  2.0

     total cpu time spent up to now is       47.6 secs

     total energy              =   -1799.96607801 Ry
     Harris-Foulkes estimate   =   -1799.96607800 Ry
     estimated scf accuracy    <       0.00000056 Ry

     iteration # 20     ecut=    30.00 Ry     beta=0.70
     Davidson diagonalization with overlap
     ethr =  1.10E-10,  avg # of iterations =  2.0

     total cpu time spent up to now is       49.0 secs

     total energy              =   -1799.96607809 Ry
     Harris-Foulkes estimate   =   -1799.96607810 Ry
     estimated scf accuracy    <       0.00000016 Ry

     iteration # 21     ecut=    30.00 Ry     beta=0.70
     Davidson diagonalization with overlap
     ethr =  3.20E-11,  avg # of iterations =  2.0

     total cpu time spent up to now is       50.6 secs

     total energy              =   -1799.96607811 Ry
     Harris-Foulkes estimate   =   -1799.96607812 Ry
     estimated scf accuracy    <       0.00000013 Ry

     iteration # 22     ecut=    30.00 Ry     beta=0.70
     Davidson diagonalization with overlap
     ethr =  2.60E-11,  avg # of iterations =  2.0

     total cpu time spent up to now is       52.1 secs

     total energy              =   -1799.96607812 Ry
     Harris-Foulkes estimate   =   -1799.96607812 Ry
     estimated scf accuracy    <       0.00000001 Ry

     iteration # 23     ecut=    30.00 Ry     beta=0.70
     Davidson diagonalization with overlap
     ethr =  2.47E-12,  avg # of iterations =  3.0

     total cpu time spent up to now is       53.9 secs

     End of self-consistent calculation

          k = 0.0000 0.0000 0.0000 ( 22119 PWs)   bands (ev):

   -43.3768 -41.2429 -39.4852 -39.0469 -38.5020 -38.3886 -37.2039 -36.4726
   -36.3209 -35.9361 -35.8640 -35.3166 -35.1008 -35.0576 -34.5460 -34.3321
   -33.6026 -33.0530 -32.7416 -32.5861 -32.4679 -32.1309 -31.9851 -31.6906
   -31.5370 -31.2299 -31.1139 -30.8211 -30.6914 -30.5454 -30.2457 -29.9940
   -29.8630 -29.6234 -29.4267 -29.3395 -29.1137 -29.0666 -28.8310 -28.7136
   -28.4512 -28.4089 -28.2154 -28.1708 -27.9707 -27.8888 -27.8439 -27.6619
   -27.4444 -27.3450 -27.2538 -27.1045 -26.9255 -26.7741 -26.7189 -26.4131
   -26.2958 -26.1845 -26.1740 -25.9334 -25.7831 -25.4677 -25.3136 -24.8191
   -22.6485 -21.7811 -21.0985 -20.9052 -20.5982 -20.4234 -20.3826 -20.1577
   -19.9328 -19.7003 -19.3766 -19.2405 -19.0372 -18.9159 -18.6502 -18.5123
   -18.3224 -18.0495 -17.8726 -17.7992 -17.5316 -17.4979 -16.9917 -16.8884
   -16.5956 -16.5931 -16.1780 -16.1314 -16.0390 -15.7653 -15.5979 -15.5136
   -15.4474 -15.2571 -15.2332 -15.2001 -15.1275 -14.7138 -14.6880 -14.6404
   -14.5574 -14.5288 -14.3100 -14.2999 -13.8903 -13.7379 -13.6110 -13.5420
   -13.3364 -13.2116 -13.0735 -12.9272 -12.8824 -12.6881 -12.5828 -12.5458
   -12.4708 -12.4011 -12.2664 -12.1950 -12.0440 -11.4541 -11.0502 -10.8891
   -10.7869 -10.4998 -10.1820  -9.9726  -9.8703  -9.4661  -9.1760  -9.1401
    -8.9422  -8.6621  -8.4953  -8.4022  -8.3409  -8.1084  -7.9040  -7.7556
    -7.6860  -7.4662  -7.2342  -7.0806  -6.9603  -6.8662  -6.7577  -6.5571
    -6.5405  -6.3690  -6.1512  -5.9389  -5.8060  -5.6617  -5.5854  -5.5049
    -5.3849  -5.2774  -5.0846  -4.9959  -4.9298  -4.8700  -4.8081  -4.7943
    -4.6962  -4.6470  -4.5721  -4.5551  -4.3646  -4.2349  -4.0146  -3.9783
    -3.9092  -3.7862  -3.7329  -3.5685  -3.3016  -3.2853  -3.1381  -3.1103
    -3.0727  -2.9422  -2.8071  -2.6997  -2.6656  -2.6096  -2.4266  -2.3421
    -2.2771  -2.2363  -2.1430  -2.0245  -1.9548  -1.8767  -1.8217  -1.7567
    -1.6129  -1.4993  -1.4441  -1.4056  -1.2120  -1.1637  -1.0226  -0.9632
    -0.8232  -0.6599  -0.5389  -0.4390  -0.4064  -0.3423  -0.2896  -0.2608
    -0.1313  -0.0427   0.0423   0.1526   0.1566   0.3519   0.4957   0.6325
     0.7683   0.8438   0.9195   1.0206   1.0737   1.2872   1.4347   1.5355
     1.6224   1.7187   1.9511   2.0714   2.1245   2.3996   2.5446   2.6269
     2.7251   2.8810   3.0311   3.4413   3.6316   3.6648   3.8524   3.9578
     4.0870   4.4838   4.5264   4.8193   5.1469   5.3109   5.4551   5.5979
     5.6539   6.2121   6.2906   6.6244   6.7895   6.9551   7.2269   7.2890
     7.6130   7.6465   7.7427   7.9323   8.1070   8.3024   8.4286   8.6369
     8.8533   9.0367   9.1816   9.4131   9.5756   9.6786   9.7485   9.8746
     9.9360  10.1102  10.2896  10.4512  10.5090  10.5649  10.6637  10.7970
    10.8279  10.9974  11.0431  11.1270  11.3056  11.3537  11.4600  11.5434
    11.6312  11.6637  11.7109  11.8341  11.8960  11.9806  12.0965  12.1764
    12.2350  12.3250  12.3884

     the Fermi energy is     5.6733 ev

!    total energy              =   -1799.96607812 Ry
     Harris-Foulkes estimate   =   -1799.96607812 Ry
     estimated scf accuracy    <          1.4E-09 Ry

     The total energy is the sum of the following terms:

     one-electron contribution =  -14226.11428931 Ry
     hartree contribution      =    7281.86830803 Ry
     xc contribution           =    -635.79733316 Ry
     ewald contribution        =    5780.07899993 Ry
     smearing contrib. (-TS)   =      -0.00176361 Ry

     convergence has been achieved in  23 iterations

     Writing output data file pwscf.save
 
     init_run     :      0.57s CPU      0.63s WALL (       1 calls)
     electrons    :     51.51s CPU     53.09s WALL (       1 calls)

     Called by init_run:
     wfcinit      :      0.47s CPU      0.53s WALL (       1 calls)
     potinit      :      0.02s CPU      0.03s WALL (       1 calls)

     Called by electrons:
     c_bands      :     49.18s CPU     50.44s WALL (      23 calls)
     sum_band     :      1.95s CPU      2.00s WALL (      23 calls)
     v_of_rho     :      0.20s CPU      0.21s WALL (      24 calls)
     mix_rho      :      0.13s CPU      0.28s WALL (      23 calls)

     Called by c_bands:
     init_us_2    :      0.06s CPU      0.07s WALL (      47 calls)
     cegterg      :     49.06s CPU     50.25s WALL (      23 calls)

     Called by sum_band:

     Called by *egterg:
     h_psi        :      8.81s CPU      8.96s WALL (     106 calls)
     g_psi        :      0.07s CPU      0.08s WALL (      82 calls)
     cdiaghg      :     31.03s CPU     31.07s WALL (     105 calls)

     Called by h_psi:
     h_psi:pot    :      8.58s CPU      8.73s WALL (     106 calls)
     h_psi:calbec :      0.31s CPU      0.32s WALL (     106 calls)
     vloc_psi     :      7.99s CPU      8.13s WALL (     106 calls)
     add_vuspsi   :      0.27s CPU      0.28s WALL (     106 calls)

     General routines
     calbec       :      0.31s CPU      0.32s WALL (     106 calls)
     fft          :      0.11s CPU      0.12s WALL (     263 calls)
     fftw         :      8.91s CPU      9.08s WALL (   39103 calls)
     davcio       :      0.02s CPU      0.14s WALL (     368 calls)
 
     Parallel routines
     fft_scatter  :      2.90s CPU      2.97s WALL (   39366 calls)
 
     PWSCF        :    52.23s CPU        54.29s WALL

 
   This run was terminated on:  16:38:51   2Feb2018            

=------------------------------------------------------------------------------=
   JOB DONE.
=------------------------------------------------------------------------------=
