
     Program PWSCF v.6.0 (svn rev. 13079) starts on  2Feb2018 at 17:22:11 

     This program is part of the open-source Quantum ESPRESSO suite
     for quantum simulation of materials; please cite
         "P. Giannozzi et al., J. Phys.:Condens. Matter 21 395502 (2009);
          URL http://www.quantum-espresso.org", 
     in publications or presentations arising from this work. More details at
     http://www.quantum-espresso.org/quote

     Parallel version (MPI), running on    28 processors
     R & G space division:  proc/nbgrp/npool/nimage =      28
     Reading input from input/scf-bigwater-1/758.in
Warning: card &IONS ignored
Warning: card     POT_EXTRAPOLATION='SECOND-ORDER' ignored
Warning: card     WFC_EXTRAPOLATION='SECOND-ORDER' ignored
Warning: card     ION_TEMPERATURE = 'ANDERSEN' ignored
Warning: card     TEMPW = 1000 ignored
Warning: card / ignored

     Current dimensions of program PWSCF are:
     Max number of different atomic species (ntypx) = 10
     Max number of k-points (npk) =  40000
     Max angular momentum in pseudopotentials (lmaxx) =  3

     Subspace diagonalization in iterative solution of the eigenvalue problem:
     a serial algorithm will be used

 
     Parallelization info
     --------------------
     sticks:   dense  smooth     PW     G-vecs:    dense   smooth      PW
     Min         136     136     33                 6338     6338     787
     Max         137     137     34                 6341     6341     792
     Sum        3809    3809    949               177509   177509   22119
 


     bravais-lattice index     =            1
     lattice parameter (alat)  =      20.0000  a.u.
     unit-cell volume          =    8000.0000 (a.u.)^3
     number of atoms/cell      =          192
     number of atomic types    =            2
     number of electrons       =       512.00
     number of Kohn-Sham states=          307
     kinetic-energy cutoff     =      30.0000  Ry
     charge density cutoff     =     120.0000  Ry
     convergence threshold     =      1.0E-08
     mixing beta               =       0.7000
     number of iterations used =            8  plain     mixing
     Exchange-correlation      = BLYP ( 1  3  1  3 0 0)

     celldm(1)=  20.000000  celldm(2)=   0.000000  celldm(3)=   0.000000
     celldm(4)=   0.000000  celldm(5)=   0.000000  celldm(6)=   0.000000

     crystal axes: (cart. coord. in units of alat)
               a(1) = (   1.000000   0.000000   0.000000 )  
               a(2) = (   0.000000   1.000000   0.000000 )  
               a(3) = (   0.000000   0.000000   1.000000 )  

     reciprocal axes: (cart. coord. in units 2 pi/alat)
               b(1) = (  1.000000  0.000000  0.000000 )  
               b(2) = (  0.000000  1.000000  0.000000 )  
               b(3) = (  0.000000  0.000000  1.000000 )  


     PseudoPot. # 1 for  H read from file:
     ./H.blyp-hgh.UPF
     MD5 check sum: c576e69559cde411e611be972c763230
     Pseudo is Norm-conserving, Zval =  1.0
     Generated in analytical, separable form
     Using radial grid of  929 points,  0 beta functions with: 

     PseudoPot. # 2 for  O read from file:
     ./O.blyp-hgh.UPF
     MD5 check sum: d0b7156309aa9befef28faac7bc56342
     Pseudo is Norm-conserving, Zval =  6.0
     Generated in analytical, separable form
     Using radial grid of 1095 points,  1 beta functions with: 
                l(1) =   0

     atomic species   valence    mass     pseudopotential
        H              1.00     1.01000      H( 1.00)
        O              6.00    16.00000      O( 1.00)

     No symmetry found



   Cartesian axes

     site n.     atom                  positions (alat units)
         1           O   tau(   1) = (  -0.2643117  -0.0704310  -0.0680473  )
         2           O   tau(   2) = (   0.1445623  -0.1318489   0.2994148  )
         3           O   tau(   3) = (  -0.2729487   0.3156703  -0.2720023  )
         4           O   tau(   4) = (   0.0531894   0.1734905  -0.0476497  )
         5           O   tau(   5) = (  -0.2531696   0.0643040   0.1732832  )
         6           O   tau(   6) = (  -0.0126941   0.3122873   0.3028228  )
         7           O   tau(   7) = (  -0.0443483  -0.2685471  -0.1268363  )
         8           O   tau(   8) = (   0.1370249   0.0485348   0.2228848  )
         9           O   tau(   9) = (  -0.1395676  -0.3082561   0.2943434  )
        10           O   tau(  10) = (   0.1252946  -0.1282706   0.1602453  )
        11           O   tau(  11) = (   0.1191793  -0.3201408   0.1366416  )
        12           O   tau(  12) = (  -0.1738231  -0.1827041   0.2150665  )
        13           O   tau(  13) = (  -0.2394262  -0.3401519   0.0382790  )
        14           O   tau(  14) = (  -0.1893264  -0.2531965  -0.1771134  )
        15           O   tau(  15) = (   0.1374300  -0.1715182  -0.1059371  )
        16           O   tau(  16) = (  -0.1015931   0.1323505  -0.0386842  )
        17           O   tau(  17) = (  -0.0721394  -0.1511047   0.1177718  )
        18           O   tau(  18) = (   0.0324448  -0.2282296   0.1748879  )
        19           O   tau(  19) = (   0.2365651  -0.2240082  -0.2387628  )
        20           O   tau(  20) = (   0.2649561   0.2390939   0.1076014  )
        21           O   tau(  21) = (   0.2553065  -0.1880238   0.1746882  )
        22           O   tau(  22) = (  -0.1318232  -0.1238562  -0.1723968  )
        23           O   tau(  23) = (  -0.0639856   0.1497676  -0.2245637  )
        24           O   tau(  24) = (   0.2069765   0.0927705   0.1209741  )
        25           O   tau(  25) = (   0.1442386   0.0597453  -0.1876506  )
        26           O   tau(  26) = (  -0.2191446   0.1396290  -0.2771513  )
        27           O   tau(  27) = (   0.2547092  -0.2866448  -0.0295515  )
        28           O   tau(  28) = (   0.0593620  -0.0139468  -0.2821903  )
        29           O   tau(  29) = (  -0.0940790   0.0266212  -0.2563731  )
        30           O   tau(  30) = (   0.0550666  -0.0457873   0.0737798  )
        31           O   tau(  31) = (   0.2855369  -0.0981694  -0.1985222  )
        32           O   tau(  32) = (   0.2258133  -0.0085738  -0.0431443  )
        33           O   tau(  33) = (   0.0213667   0.2108499   0.2030121  )
        34           O   tau(  34) = (  -0.2261344   0.0353941  -0.1845619  )
        35           O   tau(  35) = (   0.0214336  -0.1898218  -0.0280806  )
        36           O   tau(  36) = (   0.2472402   0.2064599  -0.3031584  )
        37           O   tau(  37) = (   0.1367562   0.3169997   0.2783898  )
        38           O   tau(  38) = (  -0.2734129   0.2564276  -0.1169204  )
        39           O   tau(  39) = (  -0.0067120   0.0581329  -0.1236701  )
        40           O   tau(  40) = (  -0.1900233  -0.1961980  -0.0545025  )
        41           O   tau(  41) = (  -0.1514398   0.2815446   0.1504724  )
        42           O   tau(  42) = (  -0.1079121   0.1634044   0.2175918  )
        43           O   tau(  43) = (  -0.0843225  -0.0888400  -0.0246478  )
        44           O   tau(  44) = (  -0.0686614  -0.0832220   0.2662484  )
        45           O   tau(  45) = (   0.0068179   0.1060512   0.2873145  )
        46           O   tau(  46) = (  -0.2429193   0.1504907   0.0735198  )
        47           O   tau(  47) = (   0.1694432   0.2234479  -0.0844229  )
        48           O   tau(  48) = (   0.0878668  -0.2884932  -0.1998445  )
        49           O   tau(  49) = (  -0.1547755   0.2174421  -0.1549866  )
        50           O   tau(  50) = (   0.2347712   0.0387339   0.3301865  )
        51           O   tau(  51) = (  -0.0909072   0.0365318   0.1092823  )
        52           O   tau(  52) = (   0.0008337  -0.0880636  -0.1874831  )
        53           O   tau(  53) = (   0.0051006  -0.1775858  -0.2938424  )
        54           O   tau(  54) = (   0.3256046  -0.2979179   0.2055011  )
        55           O   tau(  55) = (   0.1818405  -0.1510490   0.0453207  )
        56           O   tau(  56) = (   0.2936670  -0.0375937   0.1442537  )
        57           O   tau(  57) = (   0.0818321   0.1898962  -0.2190533  )
        58           O   tau(  58) = (  -0.0765464  -0.3340935  -0.0056980  )
        59           O   tau(  59) = (  -0.2626022  -0.0855411  -0.3055635  )
        60           O   tau(  60) = (  -0.2171586   0.0716530  -0.0523227  )
        61           O   tau(  61) = (   0.2599216   0.1777136  -0.1796704  )
        62           O   tau(  62) = (   0.0913281  -0.0321398  -0.0761566  )
        63           O   tau(  63) = (  -0.2403547  -0.1569482   0.0764073  )
        64           O   tau(  64) = (   0.0890235   0.1426519   0.0748177  )
        65           H   tau(  65) = (  -0.2209833  -0.0906354  -0.0579098  )
        66           H   tau(  66) = (  -0.2523965  -0.0226136  -0.0647217  )
        67           H   tau(  67) = (   0.1527988  -0.0888376   0.3213055  )
        68           H   tau(  68) = (   0.1236656  -0.1265605   0.2546269  )
        69           H   tau(  69) = (  -0.2830822   0.2734677  -0.2492418  )
        70           H   tau(  70) = (  -0.2423624   0.3415324  -0.2411754  )
        71           H   tau(  71) = (   0.0364798   0.1279133  -0.0466587  )
        72           H   tau(  72) = (   0.0965042   0.1736495  -0.0724350  )
        73           H   tau(  73) = (  -0.2921585   0.0401108   0.1533019  )
        74           H   tau(  74) = (  -0.2574837   0.0480901   0.2187004  )
        75           H   tau(  75) = (  -0.0044645   0.3444878   0.2662637  )
        76           H   tau(  76) = (   0.0290639   0.3150668   0.3280786  )
        77           H   tau(  77) = (  -0.0479946  -0.2887907  -0.0818495  )
        78           H   tau(  78) = (   0.0034732  -0.2620735  -0.1340970  )
        79           H   tau(  79) = (   0.1516337   0.0631793   0.1773518  )
        80           H   tau(  80) = (   0.1090626   0.0858939   0.2391319  )
        81           H   tau(  81) = (  -0.1844818  -0.3214338   0.3114437  )
        82           H   tau(  82) = (  -0.1019589  -0.3258180   0.3204022  )
        83           H   tau(  83) = (   0.0950650  -0.0912344   0.1474430  )
        84           H   tau(  84) = (   0.1487647  -0.1222489   0.1154862  )
        85           H   tau(  85) = (   0.1285721  -0.3679313   0.1367849  )
        86           H   tau(  86) = (   0.0712510  -0.3077372   0.1412199  )
        87           H   tau(  87) = (  -0.1452806  -0.2184863   0.2316469  )
        88           H   tau(  88) = (  -0.2015902  -0.2102878   0.1848526  )
        89           H   tau(  89) = (  -0.2529925  -0.3865902   0.0467527  )
        90           H   tau(  90) = (  -0.2361981  -0.3350434  -0.0102027  )
        91           H   tau(  91) = (  -0.1627592  -0.2124171  -0.1634963  )
        92           H   tau(  92) = (  -0.1532171  -0.2856211  -0.1797356  )
        93           H   tau(  93) = (   0.1275589  -0.1250380  -0.1176849  )
        94           H   tau(  94) = (   0.0977523  -0.1845165  -0.0780200  )
        95           H   tau(  95) = (  -0.1278599   0.1167811  -0.0751027  )
        96           H   tau(  96) = (  -0.0594567   0.1544708  -0.0443609  )
        97           H   tau(  97) = (  -0.1019881  -0.1566134   0.0777911  )
        98           H   tau(  98) = (  -0.0447427  -0.1135939   0.1046539  )
        99           H   tau(  99) = (   0.0693872  -0.1950984   0.1664799  )
       100           H   tau( 100) = (  -0.0030825  -0.2056208   0.1495737  )
       101           H   tau( 101) = (   0.2844828  -0.2257824  -0.2492225  )
       102           H   tau( 102) = (   0.2159272  -0.1991514  -0.2761591  )
       103           H   tau( 103) = (   0.2378530   0.2767606   0.1254250  )
       104           H   tau( 104) = (   0.3102427   0.2552852   0.1214411  )
       105           H   tau( 105) = (   0.2880364  -0.1520882   0.1687221  )
       106           H   tau( 106) = (   0.2301108  -0.1700659   0.2127385  )
       107           H   tau( 107) = (  -0.0852061  -0.1106847  -0.1844384  )
       108           H   tau( 108) = (  -0.1612393  -0.1048387  -0.2063185  )
       109           H   tau( 109) = (  -0.0225262   0.1734381  -0.2113457  )
       110           H   tau( 110) = (  -0.0491036   0.1037221  -0.2352646  )
       111           H   tau( 111) = (   0.2310732   0.1357727   0.1256048  )
       112           H   tau( 112) = (   0.1724344   0.1013589   0.0863374  )
       113           H   tau( 113) = (   0.1212818   0.0211638  -0.2075889  )
       114           H   tau( 114) = (   0.1184695   0.1012987  -0.1913579  )
       115           H   tau( 115) = (  -0.2525764   0.1170143  -0.3043644  )
       116           H   tau( 116) = (  -0.1897640   0.1020196  -0.2652098  )
       117           H   tau( 117) = (   0.2717944  -0.3070946   0.0117316  )
       118           H   tau( 118) = (   0.2868272  -0.3014201  -0.0641419  )
       119           H   tau( 119) = (   0.0746131  -0.0379001  -0.3214523  )
       120           H   tau( 120) = (   0.0530560   0.0330042  -0.2976137  )
       121           H   tau( 121) = (  -0.0790068  -0.0140541  -0.2812974  )
       122           H   tau( 122) = (  -0.1404672   0.0184440  -0.2421245  )
       123           H   tau( 123) = (   0.0622974  -0.0018489   0.0938191  )
       124           H   tau( 124) = (   0.0835686  -0.0438998   0.0332074  )
       125           H   tau( 125) = (   0.2776803  -0.1446685  -0.1865199  )
       126           H   tau( 126) = (   0.2827965  -0.0712426  -0.1582089  )
       127           H   tau( 127) = (   0.2531077   0.0308410  -0.0439977  )
       128           H   tau( 128) = (   0.2519594  -0.0440065  -0.0625878  )
       129           H   tau( 129) = (   0.0321210   0.2430992   0.2386672  )
       130           H   tau( 130) = (  -0.0313970   0.2043576   0.2026702  )
       131           H   tau( 131) = (  -0.2336967   0.0466477  -0.1370979  )
       132           H   tau( 132) = (  -0.2686424   0.0490479  -0.2050130  )
       133           H   tau( 133) = (  -0.0211799  -0.1892176  -0.0524442  )
       134           H   tau( 134) = (   0.0148776  -0.1549352   0.0055703  )
       135           H   tau( 135) = (   0.2162836   0.2451662  -0.3047691  )
       136           H   tau( 136) = (   0.2575933   0.1947683  -0.3495134  )
       137           H   tau( 137) = (   0.1304737   0.3166321   0.2283417  )
       138           H   tau( 138) = (   0.1520247   0.3633105   0.2836641  )
       139           H   tau( 139) = (  -0.2867935   0.2117659  -0.1309244  )
       140           H   tau( 140) = (  -0.2239753   0.2547635  -0.1216905  )
       141           H   tau( 141) = (  -0.0382499   0.0276526  -0.1020406  )
       142           H   tau( 142) = (  -0.0290747   0.0972048  -0.1440484  )
       143           H   tau( 143) = (  -0.2276076  -0.1978864  -0.0853110  )
       144           H   tau( 144) = (  -0.2008556  -0.2030162  -0.0067811  )
       145           H   tau( 145) = (  -0.1896270   0.3090221   0.1385940  )
       146           H   tau( 146) = (  -0.1326186   0.3018246   0.1907179  )
       147           H   tau( 147) = (  -0.1413934   0.1984211   0.2117133  )
       148           H   tau( 148) = (  -0.1212451   0.1341462   0.2546888  )
       149           H   tau( 149) = (  -0.1039893  -0.1197242  -0.0577795  )
       150           H   tau( 150) = (  -0.1269793  -0.0719166  -0.0075822  )
       151           H   tau( 151) = (  -0.0968619  -0.0943140   0.2281694  )
       152           H   tau( 152) = (  -0.0328616  -0.1161094   0.2709997  )
       153           H   tau( 153) = (   0.0111013   0.1425191   0.2522683  )
       154           H   tau( 154) = (  -0.0258292   0.1222358   0.3192881  )
       155           H   tau( 155) = (  -0.2630892   0.1136546   0.0980232  )
       156           H   tau( 156) = (  -0.2247507   0.1785176   0.1086361  )
       157           H   tau( 157) = (   0.1869607   0.2498156  -0.0471233  )
       158           H   tau( 158) = (   0.2100828   0.2115073  -0.1089989  )
       159           H   tau( 159) = (   0.1230727  -0.2983896  -0.2323790  )
       160           H   tau( 160) = (   0.1133698  -0.2635229  -0.1657329  )
       161           H   tau( 161) = (  -0.1725969   0.2170613  -0.2008599  )
       162           H   tau( 162) = (  -0.1353878   0.2616034  -0.1526072  )
       163           H   tau( 163) = (   0.2067849   0.0465782   0.3696496  )
       164           H   tau( 164) = (   0.2028652   0.0457777   0.2924295  )
       165           H   tau( 165) = (  -0.0928930   0.0201800   0.0637214  )
       166           H   tau( 166) = (  -0.1388619   0.0388238   0.1204603  )
       167           H   tau( 167) = (   0.0369965  -0.0800857  -0.1555375  )
       168           H   tau( 168) = (   0.0162235  -0.0806634  -0.2333158  )
       169           H   tau( 169) = (  -0.0121721  -0.2154434  -0.2679123  )
       170           H   tau( 170) = (   0.0500759  -0.1709646  -0.2748127  )
       171           H   tau( 171) = (   0.3400806  -0.3191875   0.2469066  )
       172           H   tau( 172) = (   0.2833877  -0.2737524   0.2112965  )
       173           H   tau( 173) = (   0.2005602  -0.1952360   0.0539931  )
       174           H   tau( 174) = (   0.1663202  -0.1529609  -0.0018336  )
       175           H   tau( 175) = (   0.2541935  -0.0516285   0.1191257  )
       176           H   tau( 176) = (   0.2690485  -0.0104043   0.1766841  )
       177           H   tau( 177) = (   0.0897575   0.1998051  -0.2661554  )
       178           H   tau( 178) = (   0.0675488   0.2308587  -0.1942935  )
       179           H   tau( 179) = (  -0.0473170  -0.3342023   0.0334885  )
       180           H   tau( 180) = (  -0.1226335  -0.3384073   0.0104155  )
       181           H   tau( 181) = (  -0.2833488  -0.0885625  -0.2610062  )
       182           H   tau( 182) = (  -0.2238933  -0.1149302  -0.3091468  )
       183           H   tau( 183) = (  -0.1820833   0.0535937  -0.0237256  )
       184           H   tau( 184) = (  -0.2269405   0.1159318  -0.0336291  )
       185           H   tau( 185) = (   0.2377347   0.1668383  -0.2226546  )
       186           H   tau( 186) = (   0.2487766   0.1371171  -0.1550089  )
       187           H   tau( 187) = (   0.1386033  -0.0207995  -0.0719422  )
       188           H   tau( 188) = (   0.0706175   0.0082410  -0.0957795  )
       189           H   tau( 189) = (  -0.2548204  -0.1431210   0.0315175  )
       190           H   tau( 190) = (  -0.2088258  -0.1231789   0.0926764  )
       191           H   tau( 191) = (   0.0628270   0.1630947   0.1110002  )
       192           H   tau( 192) = (   0.0827414   0.1704623   0.0331417  )

     number of k points=     1  Marzari-Vanderbilt smearing, width (Ry)=  0.0250
                       cart. coord. in units 2pi/alat
        k(    1) = (   0.0000000   0.0000000   0.0000000), wk =   2.0000000

     Dense  grid:   177509 G-vectors     FFT dimensions: (  72,  72,  72)

     Estimated max dynamical RAM per process >      67.80Mb

     Estimated total allocated dynamical RAM >    1898.40Mb

     Initial potential from superposition of free atoms
     Check: negative starting charge=   -0.755427

     starting charge  511.99856, renormalised to  512.00000

     negative rho (up, down):  7.554E-01 0.000E+00
     Starting wfc are  384 randomized atomic wfcs

     total cpu time spent up to now is        1.5 secs

     per-process dynamical memory:    45.9 Mb

     Self-consistent Calculation

     iteration #  1     ecut=    30.00 Ry     beta=0.70
     Davidson diagonalization with overlap
     ethr =  1.00E-02,  avg # of iterations =  8.0

     negative rho (up, down):  1.798E-01 0.000E+00

     total cpu time spent up to now is       10.9 secs

     total energy              =   -1794.44385344 Ry
     Harris-Foulkes estimate   =   -1821.95020813 Ry
     estimated scf accuracy    <      42.53943479 Ry

     iteration #  2     ecut=    30.00 Ry     beta=0.70
     Davidson diagonalization with overlap
     ethr =  8.31E-03,  avg # of iterations =  4.0

     negative rho (up, down):  1.593E-03 0.000E+00

     total cpu time spent up to now is       14.7 secs

     total energy              =   -1774.27868602 Ry
     Harris-Foulkes estimate   =   -1809.72302287 Ry
     estimated scf accuracy    <      81.45370885 Ry

     iteration #  3     ecut=    30.00 Ry     beta=0.70
     Davidson diagonalization with overlap
     ethr =  8.31E-03,  avg # of iterations =  4.0

     negative rho (up, down):  5.605E-06 0.000E+00

     total cpu time spent up to now is       18.2 secs

     total energy              =   -1797.58337580 Ry
     Harris-Foulkes estimate   =   -1809.64087514 Ry
     estimated scf accuracy    <      36.93295368 Ry

     iteration #  4     ecut=    30.00 Ry     beta=0.70
     Davidson diagonalization with overlap
     ethr =  7.21E-03,  avg # of iterations =  3.0

     total cpu time spent up to now is       20.5 secs

     total energy              =   -1802.43783278 Ry
     Harris-Foulkes estimate   =   -1804.47307878 Ry
     estimated scf accuracy    <       6.67323102 Ry

     iteration #  5     ecut=    30.00 Ry     beta=0.70
     Davidson diagonalization with overlap
     ethr =  1.30E-03,  avg # of iterations =  5.0

     total cpu time spent up to now is       22.9 secs

     total energy              =   -1802.18848892 Ry
     Harris-Foulkes estimate   =   -1802.81505740 Ry
     estimated scf accuracy    <       2.69243260 Ry

     iteration #  6     ecut=    30.00 Ry     beta=0.70
     Davidson diagonalization with overlap
     ethr =  5.26E-04,  avg # of iterations =  6.0

     total cpu time spent up to now is       25.7 secs

     total energy              =   -1802.08415116 Ry
     Harris-Foulkes estimate   =   -1802.28414363 Ry
     estimated scf accuracy    <       1.16688149 Ry

     iteration #  7     ecut=    30.00 Ry     beta=0.70
     Davidson diagonalization with overlap
     ethr =  2.28E-04,  avg # of iterations =  3.0

     total cpu time spent up to now is       27.4 secs

     total energy              =   -1802.02584788 Ry
     Harris-Foulkes estimate   =   -1802.17341331 Ry
     estimated scf accuracy    <       0.85548647 Ry

     iteration #  8     ecut=    30.00 Ry     beta=0.70
     Davidson diagonalization with overlap
     ethr =  1.67E-04,  avg # of iterations =  4.0

     total cpu time spent up to now is       29.4 secs

     total energy              =   -1801.99160713 Ry
     Harris-Foulkes estimate   =   -1802.09633408 Ry
     estimated scf accuracy    <       0.51466715 Ry

     iteration #  9     ecut=    30.00 Ry     beta=0.70
     Davidson diagonalization with overlap
     ethr =  1.01E-04,  avg # of iterations =  4.0

     total cpu time spent up to now is       31.4 secs

     total energy              =   -1801.97999380 Ry
     Harris-Foulkes estimate   =   -1802.04614277 Ry
     estimated scf accuracy    <       0.27881985 Ry

     iteration # 10     ecut=    30.00 Ry     beta=0.70
     Davidson diagonalization with overlap
     ethr =  5.45E-05,  avg # of iterations =  8.0

     total cpu time spent up to now is       34.9 secs

     total energy              =   -1801.98395584 Ry
     Harris-Foulkes estimate   =   -1802.02060374 Ry
     estimated scf accuracy    <       0.31674960 Ry

     iteration # 11     ecut=    30.00 Ry     beta=0.70
     Davidson diagonalization with overlap
     ethr =  5.45E-05,  avg # of iterations =  1.0

     total cpu time spent up to now is       36.0 secs

     total energy              =   -1801.99619138 Ry
     Harris-Foulkes estimate   =   -1802.00982203 Ry
     estimated scf accuracy    <       0.11808509 Ry

     iteration # 12     ecut=    30.00 Ry     beta=0.70
     Davidson diagonalization with overlap
     ethr =  2.31E-05,  avg # of iterations =  3.0

     total cpu time spent up to now is       37.7 secs

     total energy              =   -1802.00225522 Ry
     Harris-Foulkes estimate   =   -1802.00529178 Ry
     estimated scf accuracy    <       0.02309699 Ry

     iteration # 13     ecut=    30.00 Ry     beta=0.70
     Davidson diagonalization with overlap
     ethr =  4.51E-06,  avg # of iterations =  5.0

     total cpu time spent up to now is       40.1 secs

     total energy              =   -1802.00278706 Ry
     Harris-Foulkes estimate   =   -1802.00404501 Ry
     estimated scf accuracy    <       0.01265119 Ry

     iteration # 14     ecut=    30.00 Ry     beta=0.70
     Davidson diagonalization with overlap
     ethr =  2.47E-06,  avg # of iterations =  1.0

     total cpu time spent up to now is       41.2 secs

     total energy              =   -1802.00345738 Ry
     Harris-Foulkes estimate   =   -1802.00360959 Ry
     estimated scf accuracy    <       0.00110796 Ry

     iteration # 15     ecut=    30.00 Ry     beta=0.70
     Davidson diagonalization with overlap
     ethr =  2.16E-07,  avg # of iterations =  2.0

     total cpu time spent up to now is       42.6 secs

     total energy              =   -1802.00347788 Ry
     Harris-Foulkes estimate   =   -1802.00354434 Ry
     estimated scf accuracy    <       0.00063052 Ry

     iteration # 16     ecut=    30.00 Ry     beta=0.70
     Davidson diagonalization with overlap
     ethr =  1.23E-07,  avg # of iterations =  2.0

     total cpu time spent up to now is       44.0 secs

     total energy              =   -1802.00350762 Ry
     Harris-Foulkes estimate   =   -1802.00353793 Ry
     estimated scf accuracy    <       0.00036185 Ry

     iteration # 17     ecut=    30.00 Ry     beta=0.70
     Davidson diagonalization with overlap
     ethr =  7.07E-08,  avg # of iterations =  1.0

     total cpu time spent up to now is       45.1 secs

     total energy              =   -1802.00351882 Ry
     Harris-Foulkes estimate   =   -1802.00352213 Ry
     estimated scf accuracy    <       0.00003296 Ry

     iteration # 18     ecut=    30.00 Ry     beta=0.70
     Davidson diagonalization with overlap
     ethr =  6.44E-09,  avg # of iterations =  2.0

     total cpu time spent up to now is       46.5 secs

     total energy              =   -1802.00352136 Ry
     Harris-Foulkes estimate   =   -1802.00352143 Ry
     estimated scf accuracy    <       0.00000411 Ry

     iteration # 19     ecut=    30.00 Ry     beta=0.70
     Davidson diagonalization with overlap
     ethr =  8.02E-10,  avg # of iterations =  2.0

     total cpu time spent up to now is       48.0 secs

     total energy              =   -1802.00352170 Ry
     Harris-Foulkes estimate   =   -1802.00352168 Ry
     estimated scf accuracy    <       0.00000024 Ry

     iteration # 20     ecut=    30.00 Ry     beta=0.70
     Davidson diagonalization with overlap
     ethr =  4.72E-11,  avg # of iterations =  3.0

     total cpu time spent up to now is       49.9 secs

     total energy              =   -1802.00352176 Ry
     Harris-Foulkes estimate   =   -1802.00352178 Ry
     estimated scf accuracy    <       0.00000017 Ry

     iteration # 21     ecut=    30.00 Ry     beta=0.70
     Davidson diagonalization with overlap
     ethr =  3.30E-11,  avg # of iterations =  2.0

     total cpu time spent up to now is       51.4 secs

     total energy              =   -1802.00352179 Ry
     Harris-Foulkes estimate   =   -1802.00352178 Ry
     estimated scf accuracy    <       0.00000001 Ry

     iteration # 22     ecut=    30.00 Ry     beta=0.70
     Davidson diagonalization with overlap
     ethr =  2.65E-12,  avg # of iterations =  3.0

     total cpu time spent up to now is       53.5 secs

     total energy              =   -1802.00352181 Ry
     Harris-Foulkes estimate   =   -1802.00352180 Ry
     estimated scf accuracy    <       0.00000001 Ry

     iteration # 23     ecut=    30.00 Ry     beta=0.70
     Davidson diagonalization with overlap
     ethr =  2.41E-12,  avg # of iterations =  2.0

     total cpu time spent up to now is       55.0 secs

     End of self-consistent calculation

          k = 0.0000 0.0000 0.0000 ( 22119 PWs)   bands (ev):

   -40.7265 -39.8800 -39.1661 -38.7888 -38.4126 -37.7757 -37.2348 -36.9319
   -36.4321 -35.9671 -35.4749 -35.3052 -35.0918 -34.7819 -33.9245 -33.8233
   -33.5901 -33.1860 -32.9312 -32.4803 -32.3508 -32.3106 -31.9793 -31.4501
   -31.3679 -31.1049 -30.8432 -30.7847 -30.5679 -30.3596 -30.1661 -30.0052
   -29.9575 -29.6912 -29.5961 -29.2835 -29.2706 -29.0097 -28.9031 -28.5499
   -28.3932 -28.1543 -28.0015 -27.8999 -27.8328 -27.7129 -27.5474 -27.4008
   -27.2859 -27.1923 -27.1252 -26.9398 -26.7787 -26.7154 -26.4440 -26.3904
   -26.2564 -26.0814 -25.9527 -25.8246 -25.7640 -25.6166 -25.3231 -25.0278
   -22.0312 -21.9219 -20.8626 -20.5601 -20.3499 -20.0976 -19.9766 -19.8933
   -19.6609 -19.4317 -19.3502 -19.1004 -19.0904 -18.8017 -18.7555 -18.5786
   -18.4040 -18.1617 -17.9080 -17.8442 -17.6445 -17.4874 -17.2365 -17.1480
   -16.8392 -16.7857 -16.5019 -16.3263 -16.2185 -16.0442 -15.8768 -15.6682
   -15.5915 -15.3287 -15.2355 -15.1609 -15.1452 -14.8186 -14.6827 -14.6101
   -14.5910 -14.3003 -14.2363 -14.1781 -14.1265 -13.9383 -13.8045 -13.6369
   -13.3158 -13.2029 -13.1884 -13.0455 -13.0348 -12.9965 -12.7641 -12.5703
   -12.5053 -12.2757 -12.1710 -12.0373 -11.9712 -11.8421 -11.7337 -11.5039
   -10.9417 -10.5905 -10.2842  -9.5455  -9.5194  -9.2285  -9.0492  -8.9095
    -8.7187  -8.5898  -8.5302  -8.3341  -8.2343  -8.1133  -7.7474  -7.4988
    -7.3836  -7.1577  -7.0351  -6.8836  -6.7457  -6.5473  -6.4251  -6.3113
    -6.2315  -6.1606  -5.9940  -5.9113  -5.7344  -5.6232  -5.4768  -5.4457
    -5.1956  -5.1369  -4.9949  -4.9566  -4.8589  -4.8251  -4.6983  -4.5777
    -4.5445  -4.4723  -4.3682  -4.3346  -4.2881  -4.1815  -4.0943  -3.9076
    -3.8845  -3.7970  -3.7401  -3.6449  -3.4001  -3.2219  -3.0773  -3.0550
    -2.8728  -2.8189  -2.7814  -2.5595  -2.5259  -2.4317  -2.3897  -2.3224
    -2.2007  -2.0804  -1.9763  -1.8821  -1.7819  -1.7773  -1.7111  -1.6063
    -1.5161  -1.4402  -1.4134  -1.2854  -1.2598  -1.1253  -1.0287  -0.9140
    -0.8659  -0.7422  -0.5637  -0.4857  -0.3247  -0.2895  -0.2447  -0.1766
     0.0277   0.1017   0.1749   0.2671   0.3600   0.4676   0.6403   0.7054
     0.7441   0.7958   0.9886   1.0307   1.2224   1.3023   1.4394   1.4757
     1.6303   1.6711   1.8715   2.0430   2.1265   2.2179   2.2818   2.4419
     2.5228   2.6512   2.9246   2.9900   3.1250   3.6434   3.7336   4.0568
     4.3069   4.3119   4.4975   4.7217   5.1282   5.3060   5.4133   5.4888
     5.7057   6.2669   6.3702   6.5732   6.7170   6.9507   7.2562   7.3544
     7.5691   7.6326   7.7879   8.0435   8.0786   8.2869   8.4561   8.6158
     8.9022   9.0186   9.1454   9.4687   9.6177   9.7669   9.8614   9.9213
     9.9578  10.1631  10.3517  10.5136  10.5961  10.6459  10.7275  10.8326
    10.9184  11.0362  11.0591  11.2187  11.2865  11.4096  11.4519  11.5082
    11.6400  11.6834  11.7347  11.8901  11.9083  11.9903  12.0943  12.1235
    12.2172  12.2562  12.4004

     the Fermi energy is     5.6415 ev

!    total energy              =   -1802.00352180 Ry
     Harris-Foulkes estimate   =   -1802.00352181 Ry
     estimated scf accuracy    <          1.9E-09 Ry

     The total energy is the sum of the following terms:

     one-electron contribution =  -14095.75967483 Ry
     hartree contribution      =    7217.53171885 Ry
     xc contribution           =    -635.38253725 Ry
     ewald contribution        =    5711.60627032 Ry
     smearing contrib. (-TS)   =       0.00070111 Ry

     convergence has been achieved in  23 iterations

     Writing output data file pwscf.save
 
     init_run     :      0.97s CPU      1.09s WALL (       1 calls)
     electrons    :     51.74s CPU     53.56s WALL (       1 calls)

     Called by init_run:
     wfcinit      :      0.73s CPU      0.84s WALL (       1 calls)
     potinit      :      0.05s CPU      0.06s WALL (       1 calls)

     Called by electrons:
     c_bands      :     49.20s CPU     50.75s WALL (      23 calls)
     sum_band     :      2.09s CPU      2.14s WALL (      23 calls)
     v_of_rho     :      0.21s CPU      0.22s WALL (      24 calls)
     mix_rho      :      0.15s CPU      0.27s WALL (      23 calls)

     Called by c_bands:
     init_us_2    :      0.06s CPU      0.06s WALL (      47 calls)
     cegterg      :     49.05s CPU     50.52s WALL (      23 calls)

     Called by sum_band:

     Called by *egterg:
     h_psi        :     10.10s CPU     10.46s WALL (     102 calls)
     g_psi        :      0.07s CPU      0.07s WALL (      78 calls)
     cdiaghg      :     28.87s CPU     28.92s WALL (     101 calls)

     Called by h_psi:
     h_psi:pot    :      9.88s CPU     10.24s WALL (     102 calls)
     h_psi:calbec :      0.39s CPU      0.40s WALL (     102 calls)
     vloc_psi     :      9.21s CPU      9.56s WALL (     102 calls)
     add_vuspsi   :      0.28s CPU      0.28s WALL (     102 calls)

     General routines
     calbec       :      0.39s CPU      0.40s WALL (     102 calls)
     fft          :      0.14s CPU      0.14s WALL (     263 calls)
     fftw         :     10.28s CPU     10.65s WALL (   39267 calls)
     davcio       :      0.02s CPU      0.14s WALL (     368 calls)
 
     Parallel routines
     fft_scatter  :      4.38s CPU      4.60s WALL (   39530 calls)
 
     PWSCF        :    53.01s CPU        55.26s WALL

 
   This run was terminated on:  17:23: 6   2Feb2018            

=------------------------------------------------------------------------------=
   JOB DONE.
=------------------------------------------------------------------------------=
