
     Program PWSCF v.6.0 (svn rev. 13079) starts on  2Feb2018 at 17:28:42 

     This program is part of the open-source Quantum ESPRESSO suite
     for quantum simulation of materials; please cite
         "P. Giannozzi et al., J. Phys.:Condens. Matter 21 395502 (2009);
          URL http://www.quantum-espresso.org", 
     in publications or presentations arising from this work. More details at
     http://www.quantum-espresso.org/quote

     Parallel version (MPI), running on    28 processors
     R & G space division:  proc/nbgrp/npool/nimage =      28
     Reading input from input/scf-bigwater-1/765.in
Warning: card &IONS ignored
Warning: card     POT_EXTRAPOLATION='SECOND-ORDER' ignored
Warning: card     WFC_EXTRAPOLATION='SECOND-ORDER' ignored
Warning: card     ION_TEMPERATURE = 'ANDERSEN' ignored
Warning: card     TEMPW = 1000 ignored
Warning: card / ignored

     Current dimensions of program PWSCF are:
     Max number of different atomic species (ntypx) = 10
     Max number of k-points (npk) =  40000
     Max angular momentum in pseudopotentials (lmaxx) =  3

     Subspace diagonalization in iterative solution of the eigenvalue problem:
     a serial algorithm will be used

 
     Parallelization info
     --------------------
     sticks:   dense  smooth     PW     G-vecs:    dense   smooth      PW
     Min         136     136     33                 6338     6338     787
     Max         137     137     34                 6341     6341     792
     Sum        3809    3809    949               177509   177509   22119
 


     bravais-lattice index     =            1
     lattice parameter (alat)  =      20.0000  a.u.
     unit-cell volume          =    8000.0000 (a.u.)^3
     number of atoms/cell      =          192
     number of atomic types    =            2
     number of electrons       =       512.00
     number of Kohn-Sham states=          307
     kinetic-energy cutoff     =      30.0000  Ry
     charge density cutoff     =     120.0000  Ry
     convergence threshold     =      1.0E-08
     mixing beta               =       0.7000
     number of iterations used =            8  plain     mixing
     Exchange-correlation      = BLYP ( 1  3  1  3 0 0)

     celldm(1)=  20.000000  celldm(2)=   0.000000  celldm(3)=   0.000000
     celldm(4)=   0.000000  celldm(5)=   0.000000  celldm(6)=   0.000000

     crystal axes: (cart. coord. in units of alat)
               a(1) = (   1.000000   0.000000   0.000000 )  
               a(2) = (   0.000000   1.000000   0.000000 )  
               a(3) = (   0.000000   0.000000   1.000000 )  

     reciprocal axes: (cart. coord. in units 2 pi/alat)
               b(1) = (  1.000000  0.000000  0.000000 )  
               b(2) = (  0.000000  1.000000  0.000000 )  
               b(3) = (  0.000000  0.000000  1.000000 )  


     PseudoPot. # 1 for  H read from file:
     ./H.blyp-hgh.UPF
     MD5 check sum: c576e69559cde411e611be972c763230
     Pseudo is Norm-conserving, Zval =  1.0
     Generated in analytical, separable form
     Using radial grid of  929 points,  0 beta functions with: 

     PseudoPot. # 2 for  O read from file:
     ./O.blyp-hgh.UPF
     MD5 check sum: d0b7156309aa9befef28faac7bc56342
     Pseudo is Norm-conserving, Zval =  6.0
     Generated in analytical, separable form
     Using radial grid of 1095 points,  1 beta functions with: 
                l(1) =   0

     atomic species   valence    mass     pseudopotential
        H              1.00     1.01000      H( 1.00)
        O              6.00    16.00000      O( 1.00)

     No symmetry found



   Cartesian axes

     site n.     atom                  positions (alat units)
         1           O   tau(   1) = (  -0.2642262  -0.0708876  -0.0675075  )
         2           O   tau(   2) = (   0.1441070  -0.1317983   0.2999267  )
         3           O   tau(   3) = (  -0.2725964   0.3160304  -0.2717513  )
         4           O   tau(   4) = (   0.0531693   0.1728817  -0.0477623  )
         5           O   tau(   5) = (  -0.2530065   0.0653596   0.1726956  )
         6           O   tau(   6) = (  -0.0130869   0.3120807   0.3023598  )
         7           O   tau(   7) = (  -0.0446626  -0.2683584  -0.1267213  )
         8           O   tau(   8) = (   0.1377587   0.0491990   0.2227250  )
         9           O   tau(   9) = (  -0.1389024  -0.3090656   0.2939933  )
        10           O   tau(  10) = (   0.1246328  -0.1280612   0.1598720  )
        11           O   tau(  11) = (   0.1191023  -0.3202680   0.1359545  )
        12           O   tau(  12) = (  -0.1736888  -0.1825162   0.2145584  )
        13           O   tau(  13) = (  -0.2397006  -0.3409108   0.0379353  )
        14           O   tau(  14) = (  -0.1894930  -0.2530253  -0.1771502  )
        15           O   tau(  15) = (   0.1371785  -0.1721597  -0.1059433  )
        16           O   tau(  16) = (  -0.1018504   0.1332031  -0.0388841  )
        17           O   tau(  17) = (  -0.0725632  -0.1512365   0.1169407  )
        18           O   tau(  18) = (   0.0327539  -0.2289557   0.1747143  )
        19           O   tau(  19) = (   0.2360498  -0.2239465  -0.2384324  )
        20           O   tau(  20) = (   0.2651763   0.2387064   0.1077403  )
        21           O   tau(  21) = (   0.2555899  -0.1887185   0.1749284  )
        22           O   tau(  22) = (  -0.1314241  -0.1233111  -0.1718365  )
        23           O   tau(  23) = (  -0.0638222   0.1498133  -0.2245446  )
        24           O   tau(  24) = (   0.2073530   0.0924739   0.1205385  )
        25           O   tau(  25) = (   0.1443212   0.0596736  -0.1873245  )
        26           O   tau(  26) = (  -0.2196454   0.1401749  -0.2768380  )
        27           O   tau(  27) = (   0.2546201  -0.2867091  -0.0291168  )
        28           O   tau(  28) = (   0.0585005  -0.0138256  -0.2825414  )
        29           O   tau(  29) = (  -0.0948218   0.0271228  -0.2561694  )
        30           O   tau(  30) = (   0.0547808  -0.0460284   0.0743439  )
        31           O   tau(  31) = (   0.2856367  -0.0985984  -0.1987494  )
        32           O   tau(  32) = (   0.2251604  -0.0085080  -0.0440521  )
        33           O   tau(  33) = (   0.0213926   0.2109257   0.2029414  )
        34           O   tau(  34) = (  -0.2257102   0.0352126  -0.1835970  )
        35           O   tau(  35) = (   0.0200786  -0.1897715  -0.0288132  )
        36           O   tau(  36) = (   0.2479518   0.2064280  -0.3041869  )
        37           O   tau(  37) = (   0.1381745   0.3179571   0.2789006  )
        38           O   tau(  38) = (  -0.2733378   0.2569991  -0.1179479  )
        39           O   tau(  39) = (  -0.0065059   0.0578651  -0.1240781  )
        40           O   tau(  40) = (  -0.1903827  -0.1960608  -0.0546562  )
        41           O   tau(  41) = (  -0.1513408   0.2814418   0.1508249  )
        42           O   tau(  42) = (  -0.1087143   0.1638828   0.2171415  )
        43           O   tau(  43) = (  -0.0837716  -0.0893315  -0.0244590  )
        44           O   tau(  44) = (  -0.0688127  -0.0830067   0.2662096  )
        45           O   tau(  45) = (   0.0073135   0.1049141   0.2879574  )
        46           O   tau(  46) = (  -0.2431322   0.1497191   0.0741182  )
        47           O   tau(  47) = (   0.1702829   0.2238977  -0.0850082  )
        48           O   tau(  48) = (   0.0870775  -0.2882550  -0.1997711  )
        49           O   tau(  49) = (  -0.1550509   0.2177395  -0.1552641  )
        50           O   tau(  50) = (   0.2357062   0.0389808   0.3300998  )
        51           O   tau(  51) = (  -0.0904306   0.0372022   0.1089235  )
        52           O   tau(  52) = (   0.0010537  -0.0877726  -0.1877361  )
        53           O   tau(  53) = (   0.0054878  -0.1779926  -0.2941085  )
        54           O   tau(  54) = (   0.3264720  -0.2979941   0.2050189  )
        55           O   tau(  55) = (   0.1817997  -0.1507771   0.0461850  )
        56           O   tau(  56) = (   0.2939479  -0.0381690   0.1445303  )
        57           O   tau(  57) = (   0.0815119   0.1894695  -0.2187726  )
        58           O   tau(  58) = (  -0.0765098  -0.3353286  -0.0048950  )
        59           O   tau(  59) = (  -0.2622117  -0.0852822  -0.3064405  )
        60           O   tau(  60) = (  -0.2167959   0.0720843  -0.0517384  )
        61           O   tau(  61) = (   0.2606959   0.1786208  -0.1806601  )
        62           O   tau(  62) = (   0.0904387  -0.0322776  -0.0761363  )
        63           O   tau(  63) = (  -0.2399030  -0.1581512   0.0776918  )
        64           O   tau(  64) = (   0.0888291   0.1431437   0.0757027  )
        65           H   tau(  65) = (  -0.2213705  -0.0904154  -0.0551632  )
        66           H   tau(  66) = (  -0.2513129  -0.0234413  -0.0656694  )
        67           H   tau(  67) = (   0.1504576  -0.0878389   0.3209713  )
        68           H   tau(  68) = (   0.1224783  -0.1294010   0.2556992  )
        69           H   tau(  69) = (  -0.2838829   0.2747448  -0.2479002  )
        70           H   tau(  70) = (  -0.2447433   0.3433467  -0.2400613  )
        71           H   tau(  71) = (   0.0384795   0.1261652  -0.0462495  )
        72           H   tau(  72) = (   0.0968016   0.1745012  -0.0716895  )
        73           H   tau(  73) = (  -0.2913137   0.0394986   0.1543192  )
        74           H   tau(  74) = (  -0.2566935   0.0480028   0.2179291  )
        75           H   tau(  75) = (  -0.0049279   0.3453269   0.2663676  )
        76           H   tau(  76) = (   0.0274398   0.3156992   0.3296583  )
        77           H   tau(  77) = (  -0.0481487  -0.2909270  -0.0827646  )
        78           H   tau(  78) = (   0.0027644  -0.2611951  -0.1351682  )
        79           H   tau(  79) = (   0.1506956   0.0634886   0.1768362  )
        80           H   tau(  80) = (   0.1088186   0.0851310   0.2393946  )
        81           H   tau(  81) = (  -0.1838717  -0.3247762   0.3087289  )
        82           H   tau(  82) = (  -0.1018600  -0.3262413   0.3206671  )
        83           H   tau(  83) = (   0.0938997  -0.0904227   0.1500670  )
        84           H   tau(  84) = (   0.1499427  -0.1209798   0.1175533  )
        85           H   tau(  85) = (   0.1260987  -0.3685005   0.1371852  )
        86           H   tau(  86) = (   0.0716329  -0.3062792   0.1400294  )
        87           H   tau(  87) = (  -0.1466533  -0.2186335   0.2320345  )
        88           H   tau(  88) = (  -0.1998274  -0.2108738   0.1842731  )
        89           H   tau(  89) = (  -0.2538645  -0.3866835   0.0470437  )
        90           H   tau(  90) = (  -0.2345151  -0.3347796  -0.0103488  )
        91           H   tau(  91) = (  -0.1645320  -0.2111432  -0.1641692  )
        92           H   tau(  92) = (  -0.1543902  -0.2864462  -0.1789672  )
        93           H   tau(  93) = (   0.1293423  -0.1255257  -0.1171803  )
        94           H   tau(  94) = (   0.0976044  -0.1825139  -0.0772586  )
        95           H   tau(  95) = (  -0.1272985   0.1185604  -0.0768225  )
        96           H   tau(  96) = (  -0.0590480   0.1544040  -0.0435442  )
        97           H   tau(  97) = (  -0.1022060  -0.1547856   0.0770150  )
        98           H   tau(  98) = (  -0.0434607  -0.1143656   0.1033857  )
        99           H   tau(  99) = (   0.0692898  -0.1946320   0.1693021  )
       100           H   tau( 100) = (  -0.0038157  -0.2065282   0.1504053  )
       101           H   tau( 101) = (   0.2835792  -0.2264479  -0.2511723  )
       102           H   tau( 102) = (   0.2178342  -0.1997926  -0.2777529  )
       103           H   tau( 103) = (   0.2357230   0.2746318   0.1246547  )
       104           H   tau( 104) = (   0.3091548   0.2571576   0.1219944  )
       105           H   tau( 105) = (   0.2886767  -0.1530926   0.1687391  )
       106           H   tau( 106) = (   0.2313239  -0.1697230   0.2130835  )
       107           H   tau( 107) = (  -0.0845754  -0.1098523  -0.1827641  )
       108           H   tau( 108) = (  -0.1608201  -0.1044891  -0.2057152  )
       109           H   tau( 109) = (  -0.0226939   0.1745471  -0.2137105  )
       110           H   tau( 110) = (  -0.0501224   0.1030736  -0.2337560  )
       111           H   tau( 111) = (   0.2293833   0.1367054   0.1233485  )
       112           H   tau( 112) = (   0.1716280   0.0986363   0.0867083  )
       113           H   tau( 113) = (   0.1193802   0.0222385  -0.2064389  )
       114           H   tau( 114) = (   0.1192363   0.1016471  -0.1898504  )
       115           H   tau( 115) = (  -0.2528430   0.1190148  -0.3057668  )
       116           H   tau( 116) = (  -0.1916178   0.1020317  -0.2621481  )
       117           H   tau( 117) = (   0.2704214  -0.3074288   0.0126835  )
       118           H   tau( 118) = (   0.2892347  -0.2996726  -0.0620923  )
       119           H   tau( 119) = (   0.0721719  -0.0375110  -0.3224806  )
       120           H   tau( 120) = (   0.0522018   0.0331543  -0.2974439  )
       121           H   tau( 121) = (  -0.0792251  -0.0117483  -0.2831324  )
       122           H   tau( 122) = (  -0.1403992   0.0181344  -0.2401791  )
       123           H   tau( 123) = (   0.0617029  -0.0018621   0.0938720  )
       124           H   tau( 124) = (   0.0840237  -0.0460969   0.0343564  )
       125           H   tau( 125) = (   0.2772157  -0.1451855  -0.1859076  )
       126           H   tau( 126) = (   0.2815723  -0.0724003  -0.1581957  )
       127           H   tau( 127) = (   0.2528214   0.0306351  -0.0437593  )
       128           H   tau( 128) = (   0.2523373  -0.0438351  -0.0618172  )
       129           H   tau( 129) = (   0.0331875   0.2428009   0.2383694  )
       130           H   tau( 130) = (  -0.0301851   0.2089373   0.2005212  )
       131           H   tau( 131) = (  -0.2364596   0.0489414  -0.1373500  )
       132           H   tau( 132) = (  -0.2670033   0.0482110  -0.2073533  )
       133           H   tau( 133) = (  -0.0232917  -0.1887785  -0.0512907  )
       134           H   tau( 134) = (   0.0152684  -0.1561559   0.0061379  )
       135           H   tau( 135) = (   0.2183066   0.2457574  -0.3081047  )
       136           H   tau( 136) = (   0.2593857   0.1947111  -0.3501566  )
       137           H   tau( 137) = (   0.1311509   0.3151291   0.2295584  )
       138           H   tau( 138) = (   0.1531538   0.3641655   0.2849725  )
       139           H   tau( 139) = (  -0.2874407   0.2124385  -0.1313930  )
       140           H   tau( 140) = (  -0.2237848   0.2508583  -0.1205600  )
       141           H   tau( 141) = (  -0.0385953   0.0270423  -0.1032547  )
       142           H   tau( 142) = (  -0.0269632   0.0986770  -0.1421424  )
       143           H   tau( 143) = (  -0.2272587  -0.1960203  -0.0862864  )
       144           H   tau( 144) = (  -0.2005493  -0.2071493  -0.0084215  )
       145           H   tau( 145) = (  -0.1894511   0.3079644   0.1365412  )
       146           H   tau( 146) = (  -0.1334031   0.3034402   0.1908177  )
       147           H   tau( 147) = (  -0.1421987   0.1987047   0.2110864  )
       148           H   tau( 148) = (  -0.1235141   0.1327861   0.2520145  )
       149           H   tau( 149) = (  -0.1035635  -0.1195785  -0.0579824  )
       150           H   tau( 150) = (  -0.1268043  -0.0713064  -0.0095784  )
       151           H   tau( 151) = (  -0.0957916  -0.0959603   0.2277280  )
       152           H   tau( 152) = (  -0.0335010  -0.1161941   0.2728907  )
       153           H   tau( 153) = (   0.0134226   0.1438875   0.2551596  )
       154           H   tau( 154) = (  -0.0268896   0.1225735   0.3186547  )
       155           H   tau( 155) = (  -0.2621828   0.1125012   0.0986219  )
       156           H   tau( 156) = (  -0.2237249   0.1770049   0.1093838  )
       157           H   tau( 157) = (   0.1861006   0.2516732  -0.0477861  )
       158           H   tau( 158) = (   0.2112144   0.2119435  -0.1088531  )
       159           H   tau( 159) = (   0.1226012  -0.2990469  -0.2321004  )
       160           H   tau( 160) = (   0.1116345  -0.2642841  -0.1640287  )
       161           H   tau( 161) = (  -0.1724292   0.2160181  -0.2012106  )
       162           H   tau( 162) = (  -0.1350540   0.2622080  -0.1521610  )
       163           H   tau( 163) = (   0.2081663   0.0455229   0.3704732  )
       164           H   tau( 164) = (   0.2033263   0.0472333   0.2939223  )
       165           H   tau( 165) = (  -0.0923051   0.0177684   0.0650518  )
       166           H   tau( 166) = (  -0.1372190   0.0391003   0.1213213  )
       167           H   tau( 167) = (   0.0367949  -0.0817006  -0.1551982  )
       168           H   tau( 168) = (   0.0161720  -0.0782407  -0.2332318  )
       169           H   tau( 169) = (  -0.0120112  -0.2137317  -0.2653043  )
       170           H   tau( 170) = (   0.0505120  -0.1688242  -0.2758058  )
       171           H   tau( 171) = (   0.3398391  -0.3191619   0.2471065  )
       172           H   tau( 172) = (   0.2841579  -0.2733093   0.2087800  )
       173           H   tau( 173) = (   0.2008923  -0.1949022   0.0545803  )
       174           H   tau( 174) = (   0.1641272  -0.1509759  -0.0000180  )
       175           H   tau( 175) = (   0.2555395  -0.0526358   0.1183005  )
       176           H   tau( 176) = (   0.2691767  -0.0117114   0.1773669  )
       177           H   tau( 177) = (   0.0888198   0.2007576  -0.2659814  )
       178           H   tau( 178) = (   0.0668218   0.2313547  -0.1950379  )
       179           H   tau( 179) = (  -0.0501127  -0.3358181   0.0364476  )
       180           H   tau( 180) = (  -0.1233627  -0.3394548   0.0091284  )
       181           H   tau( 181) = (  -0.2821647  -0.0877506  -0.2617887  )
       182           H   tau( 182) = (  -0.2240723  -0.1155485  -0.3107155  )
       183           H   tau( 183) = (  -0.1819239   0.0537712  -0.0229815  )
       184           H   tau( 184) = (  -0.2249825   0.1169995  -0.0340929  )
       185           H   tau( 185) = (   0.2369683   0.1679037  -0.2228427  )
       186           H   tau( 186) = (   0.2484076   0.1390143  -0.1554253  )
       187           H   tau( 187) = (   0.1379104  -0.0206186  -0.0720322  )
       188           H   tau( 188) = (   0.0700967   0.0072321  -0.0987377  )
       189           H   tau( 189) = (  -0.2573593  -0.1444900   0.0338576  )
       190           H   tau( 190) = (  -0.2095171  -0.1226057   0.0925719  )
       191           H   tau( 191) = (   0.0631109   0.1645925   0.1118655  )
       192           H   tau( 192) = (   0.0838307   0.1705090   0.0337514  )

     number of k points=     1  Marzari-Vanderbilt smearing, width (Ry)=  0.0250
                       cart. coord. in units 2pi/alat
        k(    1) = (   0.0000000   0.0000000   0.0000000), wk =   2.0000000

     Dense  grid:   177509 G-vectors     FFT dimensions: (  72,  72,  72)

     Estimated max dynamical RAM per process >      67.80Mb

     Estimated total allocated dynamical RAM >    1898.40Mb

     Initial potential from superposition of free atoms
     Check: negative starting charge=   -0.753194

     starting charge  511.99856, renormalised to  512.00000

     negative rho (up, down):  7.532E-01 0.000E+00
     Starting wfc are  384 randomized atomic wfcs

     total cpu time spent up to now is        0.8 secs

     per-process dynamical memory:    45.9 Mb

     Self-consistent Calculation

     iteration #  1     ecut=    30.00 Ry     beta=0.70
     Davidson diagonalization with overlap
     ethr =  1.00E-02,  avg # of iterations =  8.0

     negative rho (up, down):  1.805E-01 0.000E+00

     total cpu time spent up to now is        9.1 secs

     total energy              =   -1794.01617899 Ry
     Harris-Foulkes estimate   =   -1821.48613626 Ry
     estimated scf accuracy    <      42.56321159 Ry

     iteration #  2     ecut=    30.00 Ry     beta=0.70
     Davidson diagonalization with overlap
     ethr =  8.31E-03,  avg # of iterations =  4.0

     negative rho (up, down):  1.531E-03 0.000E+00

     total cpu time spent up to now is       12.2 secs

     total energy              =   -1773.77564527 Ry
     Harris-Foulkes estimate   =   -1809.33048683 Ry
     estimated scf accuracy    <      81.81171729 Ry

     iteration #  3     ecut=    30.00 Ry     beta=0.70
     Davidson diagonalization with overlap
     ethr =  8.31E-03,  avg # of iterations =  4.0

     negative rho (up, down):  5.658E-06 0.000E+00

     total cpu time spent up to now is       15.4 secs

     total energy              =   -1796.90034888 Ry
     Harris-Foulkes estimate   =   -1809.36373340 Ry
     estimated scf accuracy    <      38.36409898 Ry

     iteration #  4     ecut=    30.00 Ry     beta=0.70
     Davidson diagonalization with overlap
     ethr =  7.49E-03,  avg # of iterations =  3.0

     total cpu time spent up to now is       17.3 secs

     total energy              =   -1802.02548297 Ry
     Harris-Foulkes estimate   =   -1804.14188511 Ry
     estimated scf accuracy    <       6.86296484 Ry

     iteration #  5     ecut=    30.00 Ry     beta=0.70
     Davidson diagonalization with overlap
     ethr =  1.34E-03,  avg # of iterations =  4.0

     total cpu time spent up to now is       19.5 secs

     total energy              =   -1801.78869133 Ry
     Harris-Foulkes estimate   =   -1802.41566525 Ry
     estimated scf accuracy    <       2.68324802 Ry

     iteration #  6     ecut=    30.00 Ry     beta=0.70
     Davidson diagonalization with overlap
     ethr =  5.24E-04,  avg # of iterations =  6.0

     total cpu time spent up to now is       22.2 secs

     total energy              =   -1801.58455345 Ry
     Harris-Foulkes estimate   =   -1801.87987906 Ry
     estimated scf accuracy    <       1.18434118 Ry

     iteration #  7     ecut=    30.00 Ry     beta=0.70
     Davidson diagonalization with overlap
     ethr =  2.31E-04,  avg # of iterations =  6.0

     total cpu time spent up to now is       25.0 secs

     total energy              =   -1801.60381549 Ry
     Harris-Foulkes estimate   =   -1801.72712631 Ry
     estimated scf accuracy    <       0.91447414 Ry

     iteration #  8     ecut=    30.00 Ry     beta=0.70
     Davidson diagonalization with overlap
     ethr =  1.79E-04,  avg # of iterations =  1.0

     total cpu time spent up to now is       26.2 secs

     total energy              =   -1801.58480797 Ry
     Harris-Foulkes estimate   =   -1801.65778436 Ry
     estimated scf accuracy    <       0.38965654 Ry

     iteration #  9     ecut=    30.00 Ry     beta=0.70
     Davidson diagonalization with overlap
     ethr =  7.61E-05,  avg # of iterations =  3.0

     total cpu time spent up to now is       27.9 secs

     total energy              =   -1801.60149850 Ry
     Harris-Foulkes estimate   =   -1801.65072534 Ry
     estimated scf accuracy    <       0.32967640 Ry

     iteration # 10     ecut=    30.00 Ry     beta=0.70
     Davidson diagonalization with overlap
     ethr =  6.44E-05,  avg # of iterations =  4.0

     total cpu time spent up to now is       30.0 secs

     total energy              =   -1801.58921726 Ry
     Harris-Foulkes estimate   =   -1801.62696782 Ry
     estimated scf accuracy    <       0.32818163 Ry

     iteration # 11     ecut=    30.00 Ry     beta=0.70
     Davidson diagonalization with overlap
     ethr =  6.41E-05,  avg # of iterations =  3.0

     total cpu time spent up to now is       31.7 secs

     total energy              =   -1801.59985716 Ry
     Harris-Foulkes estimate   =   -1801.61463336 Ry
     estimated scf accuracy    <       0.15052344 Ry

     iteration # 12     ecut=    30.00 Ry     beta=0.70
     Davidson diagonalization with overlap
     ethr =  2.94E-05,  avg # of iterations = 10.0

     total cpu time spent up to now is       35.5 secs

     total energy              =   -1801.59999417 Ry
     Harris-Foulkes estimate   =   -1801.60634743 Ry
     estimated scf accuracy    <       0.03380127 Ry

     iteration # 13     ecut=    30.00 Ry     beta=0.70
     Davidson diagonalization with overlap
     ethr =  6.60E-06,  avg # of iterations =  5.0

     total cpu time spent up to now is       37.9 secs

     total energy              =   -1801.60193474 Ry
     Harris-Foulkes estimate   =   -1801.60310773 Ry
     estimated scf accuracy    <       0.00695578 Ry

     iteration # 14     ecut=    30.00 Ry     beta=0.70
     Davidson diagonalization with overlap
     ethr =  1.36E-06,  avg # of iterations =  2.0

     total cpu time spent up to now is       39.4 secs

     total energy              =   -1801.60217961 Ry
     Harris-Foulkes estimate   =   -1801.60266913 Ry
     estimated scf accuracy    <       0.00279959 Ry

     iteration # 15     ecut=    30.00 Ry     beta=0.70
     Davidson diagonalization with overlap
     ethr =  5.47E-07,  avg # of iterations =  2.0

     total cpu time spent up to now is       40.8 secs

     total energy              =   -1801.60227382 Ry
     Harris-Foulkes estimate   =   -1801.60251221 Ry
     estimated scf accuracy    <       0.00146090 Ry

     iteration # 16     ecut=    30.00 Ry     beta=0.70
     Davidson diagonalization with overlap
     ethr =  2.85E-07,  avg # of iterations =  2.0

     total cpu time spent up to now is       42.2 secs

     total energy              =   -1801.60236919 Ry
     Harris-Foulkes estimate   =   -1801.60246189 Ry
     estimated scf accuracy    <       0.00053371 Ry

     iteration # 17     ecut=    30.00 Ry     beta=0.70
     Davidson diagonalization with overlap
     ethr =  1.04E-07,  avg # of iterations =  2.0

     total cpu time spent up to now is       43.6 secs

     total energy              =   -1801.60241736 Ry
     Harris-Foulkes estimate   =   -1801.60242905 Ry
     estimated scf accuracy    <       0.00005060 Ry

     iteration # 18     ecut=    30.00 Ry     beta=0.70
     Davidson diagonalization with overlap
     ethr =  9.88E-09,  avg # of iterations =  2.0

     total cpu time spent up to now is       45.1 secs

     total energy              =   -1801.60242372 Ry
     Harris-Foulkes estimate   =   -1801.60242764 Ry
     estimated scf accuracy    <       0.00002089 Ry

     iteration # 19     ecut=    30.00 Ry     beta=0.70
     Davidson diagonalization with overlap
     ethr =  4.08E-09,  avg # of iterations =  2.0

     total cpu time spent up to now is       46.6 secs

     total energy              =   -1801.60242527 Ry
     Harris-Foulkes estimate   =   -1801.60242632 Ry
     estimated scf accuracy    <       0.00000573 Ry

     iteration # 20     ecut=    30.00 Ry     beta=0.70
     Davidson diagonalization with overlap
     ethr =  1.12E-09,  avg # of iterations =  2.0

     total cpu time spent up to now is       48.0 secs

     total energy              =   -1801.60242574 Ry
     Harris-Foulkes estimate   =   -1801.60242631 Ry
     estimated scf accuracy    <       0.00000251 Ry

     iteration # 21     ecut=    30.00 Ry     beta=0.70
     Davidson diagonalization with overlap
     ethr =  4.90E-10,  avg # of iterations =  2.0

     total cpu time spent up to now is       49.5 secs

     total energy              =   -1801.60242599 Ry
     Harris-Foulkes estimate   =   -1801.60242609 Ry
     estimated scf accuracy    <       0.00000079 Ry

     iteration # 22     ecut=    30.00 Ry     beta=0.70
     Davidson diagonalization with overlap
     ethr =  1.53E-10,  avg # of iterations =  2.0

     total cpu time spent up to now is       50.9 secs

     total energy              =   -1801.60242605 Ry
     Harris-Foulkes estimate   =   -1801.60242609 Ry
     estimated scf accuracy    <       0.00000014 Ry

     iteration # 23     ecut=    30.00 Ry     beta=0.70
     Davidson diagonalization with overlap
     ethr =  2.78E-11,  avg # of iterations =  2.0

     total cpu time spent up to now is       52.4 secs

     total energy              =   -1801.60242606 Ry
     Harris-Foulkes estimate   =   -1801.60242609 Ry
     estimated scf accuracy    <       0.00000024 Ry

     iteration # 24     ecut=    30.00 Ry     beta=0.70
     Davidson diagonalization with overlap
     ethr =  2.78E-11,  avg # of iterations =  2.0

     total cpu time spent up to now is       53.8 secs

     total energy              =   -1801.60242609 Ry
     Harris-Foulkes estimate   =   -1801.60242608 Ry
     estimated scf accuracy    <       0.00000001 Ry

     iteration # 25     ecut=    30.00 Ry     beta=0.70
     Davidson diagonalization with overlap
     ethr =  2.49E-12,  avg # of iterations =  2.0

     total cpu time spent up to now is       55.3 secs

     End of self-consistent calculation

          k = 0.0000 0.0000 0.0000 ( 22119 PWs)   bands (ev):

   -40.7340 -39.9361 -39.0591 -38.8778 -38.0707 -37.6897 -37.1724 -36.8505
   -36.4073 -35.9191 -35.3707 -35.2764 -35.0502 -34.7445 -34.2172 -33.7028
   -33.5528 -33.2408 -32.8852 -32.4584 -32.3664 -32.0453 -31.9182 -31.3904
   -31.3480 -31.0652 -30.7985 -30.7533 -30.5837 -30.3418 -30.1535 -30.0166
   -29.9109 -29.6464 -29.5907 -29.3729 -29.2544 -29.0544 -28.9590 -28.5684
   -28.3583 -28.1064 -27.9810 -27.8881 -27.8026 -27.6629 -27.5745 -27.4108
   -27.3114 -27.2038 -27.1688 -26.9417 -26.8059 -26.7248 -26.4619 -26.3907
   -26.2428 -26.0732 -25.9894 -25.8284 -25.8043 -25.6329 -25.3781 -24.9599
   -22.0739 -21.7858 -20.9116 -20.6712 -20.3732 -20.1163 -20.1049 -19.9592
   -19.7731 -19.5069 -19.3516 -19.1679 -19.1083 -18.8127 -18.7381 -18.5945
   -18.3848 -18.1755 -17.8948 -17.7826 -17.5675 -17.4648 -17.2323 -17.1628
   -16.8690 -16.7960 -16.5038 -16.2975 -16.1880 -15.9631 -15.7276 -15.6527
   -15.5654 -15.4094 -15.2942 -15.1720 -15.0916 -14.8695 -14.6586 -14.5687
   -14.5390 -14.2946 -14.2115 -14.1658 -14.0874 -13.8912 -13.7256 -13.5032
   -13.2680 -13.2555 -13.2211 -13.1499 -13.0358 -12.8982 -12.6910 -12.6507
   -12.5441 -12.3789 -12.1735 -12.0698 -11.9936 -11.8103 -11.7237 -11.6903
   -10.8663 -10.6050 -10.3423  -9.5822  -9.4170  -9.1894  -9.0350  -8.8893
    -8.7451  -8.5998  -8.5264  -8.2933  -8.1468  -8.0441  -7.6476  -7.4756
    -7.3912  -7.2080  -6.9849  -6.8490  -6.7272  -6.5341  -6.4451  -6.2715
    -6.2156  -6.1338  -6.0087  -5.8816  -5.7570  -5.6209  -5.4829  -5.3818
    -5.1908  -5.1517  -4.9939  -4.9154  -4.8640  -4.8126  -4.7056  -4.6490
    -4.5158  -4.4567  -4.3600  -4.3025  -4.2356  -4.1517  -4.0967  -3.8766
    -3.8623  -3.8408  -3.7744  -3.6022  -3.4449  -3.2219  -3.1150  -2.9708
    -2.8922  -2.8347  -2.7888  -2.5875  -2.5180  -2.4147  -2.3762  -2.3282
    -2.1596  -2.0759  -1.9811  -1.8846  -1.8466  -1.7390  -1.7120  -1.5551
    -1.5078  -1.4749  -1.3925  -1.2745  -1.2282  -1.1199  -1.0245  -0.8744
    -0.8269  -0.7743  -0.6292  -0.5407  -0.3517  -0.2778  -0.2163  -0.1662
     0.0357   0.1147   0.2340   0.2681   0.3508   0.4303   0.5994   0.6834
     0.7440   0.7870   0.9965   1.1137   1.1689   1.2991   1.4609   1.5455
     1.6187   1.6717   1.8962   2.0222   2.1584   2.1912   2.3255   2.3811
     2.4744   2.9041   2.9502   3.0066   3.1487   3.5677   3.6854   4.0928
     4.3453   4.3958   4.5672   5.0829   5.1437   5.2730   5.3962   5.4577
     5.6926   6.2653   6.3831   6.5679   6.7261   6.9549   7.2442   7.3565
     7.5647   7.6219   7.8042   8.0457   8.0845   8.2875   8.4613   8.6165
     8.9020   8.9915   9.1387   9.4884   9.6230   9.7719   9.8760   9.9285
     9.9453  10.1668  10.3609  10.5078  10.6056  10.6620  10.7243  10.8323
    10.9354  11.0344  11.0595  11.2328  11.2777  11.4067  11.4566  11.5251
    11.6330  11.6935  11.7414  11.8838  11.9186  11.9891  12.0944  12.1000
    12.2092  12.2467  12.3554

     the Fermi energy is     5.6066 ev

!    total energy              =   -1801.60242609 Ry
     Harris-Foulkes estimate   =   -1801.60242609 Ry
     estimated scf accuracy    <          2.7E-09 Ry

     The total energy is the sum of the following terms:

     one-electron contribution =  -14078.42019646 Ry
     hartree contribution      =    7209.03553757 Ry
     xc contribution           =    -635.39097856 Ry
     ewald contribution        =    5703.16554717 Ry
     smearing contrib. (-TS)   =       0.00766419 Ry

     convergence has been achieved in  25 iterations

     Writing output data file pwscf.save
 
     init_run     :      0.56s CPU      0.62s WALL (       1 calls)
     electrons    :     52.68s CPU     54.53s WALL (       1 calls)

     Called by init_run:
     wfcinit      :      0.46s CPU      0.52s WALL (       1 calls)
     potinit      :      0.02s CPU      0.03s WALL (       1 calls)

     Called by electrons:
     c_bands      :     50.16s CPU     51.71s WALL (      25 calls)
     sum_band     :      2.11s CPU      2.17s WALL (      25 calls)
     v_of_rho     :      0.20s CPU      0.21s WALL (      26 calls)
     mix_rho      :      0.15s CPU      0.28s WALL (      25 calls)

     Called by c_bands:
     init_us_2    :      0.07s CPU      0.07s WALL (      51 calls)
     cegterg      :     50.04s CPU     51.51s WALL (      25 calls)

     Called by sum_band:

     Called by *egterg:
     h_psi        :      9.32s CPU      9.49s WALL (     111 calls)
     g_psi        :      0.08s CPU      0.08s WALL (      85 calls)
     cdiaghg      :     30.62s CPU     30.79s WALL (     110 calls)

     Called by h_psi:
     h_psi:pot    :      9.08s CPU      9.25s WALL (     111 calls)
     h_psi:calbec :      0.34s CPU      0.34s WALL (     111 calls)
     vloc_psi     :      8.45s CPU      8.61s WALL (     111 calls)
     add_vuspsi   :      0.29s CPU      0.30s WALL (     111 calls)

     General routines
     calbec       :      0.34s CPU      0.34s WALL (     111 calls)
     fft          :      0.11s CPU      0.11s WALL (     285 calls)
     fftw         :      9.44s CPU      9.62s WALL (   42097 calls)
     davcio       :      0.03s CPU      0.14s WALL (     408 calls)
 
     Parallel routines
     fft_scatter  :      3.31s CPU      3.40s WALL (   42382 calls)
 
     PWSCF        :    53.42s CPU        55.61s WALL

 
   This run was terminated on:  17:29:38   2Feb2018            

=------------------------------------------------------------------------------=
   JOB DONE.
=------------------------------------------------------------------------------=
