
     Program PWSCF v.6.0 (svn rev. 13079) starts on  2Feb2018 at 17:42:25 

     This program is part of the open-source Quantum ESPRESSO suite
     for quantum simulation of materials; please cite
         "P. Giannozzi et al., J. Phys.:Condens. Matter 21 395502 (2009);
          URL http://www.quantum-espresso.org", 
     in publications or presentations arising from this work. More details at
     http://www.quantum-espresso.org/quote

     Parallel version (MPI), running on    28 processors
     R & G space division:  proc/nbgrp/npool/nimage =      28
     Reading input from input/scf-bigwater-1/779.in
Warning: card &IONS ignored
Warning: card     POT_EXTRAPOLATION='SECOND-ORDER' ignored
Warning: card     WFC_EXTRAPOLATION='SECOND-ORDER' ignored
Warning: card     ION_TEMPERATURE = 'ANDERSEN' ignored
Warning: card     TEMPW = 1000 ignored
Warning: card / ignored

     Current dimensions of program PWSCF are:
     Max number of different atomic species (ntypx) = 10
     Max number of k-points (npk) =  40000
     Max angular momentum in pseudopotentials (lmaxx) =  3

     Subspace diagonalization in iterative solution of the eigenvalue problem:
     a serial algorithm will be used

 
     Parallelization info
     --------------------
     sticks:   dense  smooth     PW     G-vecs:    dense   smooth      PW
     Min         136     136     33                 6338     6338     787
     Max         137     137     34                 6341     6341     792
     Sum        3809    3809    949               177509   177509   22119
 


     bravais-lattice index     =            1
     lattice parameter (alat)  =      20.0000  a.u.
     unit-cell volume          =    8000.0000 (a.u.)^3
     number of atoms/cell      =          192
     number of atomic types    =            2
     number of electrons       =       512.00
     number of Kohn-Sham states=          307
     kinetic-energy cutoff     =      30.0000  Ry
     charge density cutoff     =     120.0000  Ry
     convergence threshold     =      1.0E-08
     mixing beta               =       0.7000
     number of iterations used =            8  plain     mixing
     Exchange-correlation      = BLYP ( 1  3  1  3 0 0)

     celldm(1)=  20.000000  celldm(2)=   0.000000  celldm(3)=   0.000000
     celldm(4)=   0.000000  celldm(5)=   0.000000  celldm(6)=   0.000000

     crystal axes: (cart. coord. in units of alat)
               a(1) = (   1.000000   0.000000   0.000000 )  
               a(2) = (   0.000000   1.000000   0.000000 )  
               a(3) = (   0.000000   0.000000   1.000000 )  

     reciprocal axes: (cart. coord. in units 2 pi/alat)
               b(1) = (  1.000000  0.000000  0.000000 )  
               b(2) = (  0.000000  1.000000  0.000000 )  
               b(3) = (  0.000000  0.000000  1.000000 )  


     PseudoPot. # 1 for  H read from file:
     ./H.blyp-hgh.UPF
     MD5 check sum: c576e69559cde411e611be972c763230
     Pseudo is Norm-conserving, Zval =  1.0
     Generated in analytical, separable form
     Using radial grid of  929 points,  0 beta functions with: 

     PseudoPot. # 2 for  O read from file:
     ./O.blyp-hgh.UPF
     MD5 check sum: d0b7156309aa9befef28faac7bc56342
     Pseudo is Norm-conserving, Zval =  6.0
     Generated in analytical, separable form
     Using radial grid of 1095 points,  1 beta functions with: 
                l(1) =   0

     atomic species   valence    mass     pseudopotential
        H              1.00     1.01000      H( 1.00)
        O              6.00    16.00000      O( 1.00)

     No symmetry found



   Cartesian axes

     site n.     atom                  positions (alat units)
         1           O   tau(   1) = (  -0.2639842  -0.0716247  -0.0662983  )
         2           O   tau(   2) = (   0.1432081  -0.1318502   0.3010985  )
         3           O   tau(   3) = (  -0.2717770   0.3167451  -0.2712558  )
         4           O   tau(   4) = (   0.0530935   0.1716033  -0.0479841  )
         5           O   tau(   5) = (  -0.2528135   0.0673775   0.1716787  )
         6           O   tau(   6) = (  -0.0136597   0.3115959   0.3013849  )
         7           O   tau(   7) = (  -0.0454067  -0.2680103  -0.1264586  )
         8           O   tau(   8) = (   0.1391224   0.0504911   0.2224680  )
         9           O   tau(   9) = (  -0.1378498  -0.3106508   0.2931613  )
        10           O   tau(  10) = (   0.1231139  -0.1273328   0.1592827  )
        11           O   tau(  11) = (   0.1191860  -0.3205138   0.1346466  )
        12           O   tau(  12) = (  -0.1734926  -0.1822637   0.2134609  )
        13           O   tau(  13) = (  -0.2400971  -0.3421504   0.0372330  )
        14           O   tau(  14) = (  -0.1898511  -0.2524891  -0.1772219  )
        15           O   tau(  15) = (   0.1366238  -0.1735384  -0.1058054  )
        16           O   tau(  16) = (  -0.1025473   0.1347544  -0.0388466  )
        17           O   tau(  17) = (  -0.0733860  -0.1513969   0.1150696  )
        18           O   tau(  18) = (   0.0333529  -0.2302987   0.1743218  )
        19           O   tau(  19) = (   0.2350669  -0.2236903  -0.2380051  )
        20           O   tau(  20) = (   0.2655483   0.2380533   0.1080957  )
        21           O   tau(  21) = (   0.2560960  -0.1899699   0.1755341  )
        22           O   tau(  22) = (  -0.1306344  -0.1222736  -0.1706430  )
        23           O   tau(  23) = (  -0.0633888   0.1499169  -0.2244669  )
        24           O   tau(  24) = (   0.2082011   0.0918991   0.1195039  )
        25           O   tau(  25) = (   0.1446826   0.0595209  -0.1865476  )
        26           O   tau(  26) = (  -0.2205506   0.1411716  -0.2762858  )
        27           O   tau(  27) = (   0.2544990  -0.2868698  -0.0282004  )
        28           O   tau(  28) = (   0.0569142  -0.0135696  -0.2832009  )
        29           O   tau(  29) = (  -0.0963231   0.0280541  -0.2558348  )
        30           O   tau(  30) = (   0.0542853  -0.0464915   0.0754575  )
        31           O   tau(  31) = (   0.2857690  -0.0995030  -0.1991179  )
        32           O   tau(  32) = (   0.2236550  -0.0083844  -0.0458508  )
        33           O   tau(  33) = (   0.0212875   0.2109910   0.2027195  )
        34           O   tau(  34) = (  -0.2251402   0.0348886  -0.1816809  )
        35           O   tau(  35) = (   0.0174234  -0.1896593  -0.0302136  )
        36           O   tau(  36) = (   0.2492700   0.2064700  -0.3063655  )
        37           O   tau(  37) = (   0.1410810   0.3198457   0.2798982  )
        38           O   tau(  38) = (  -0.2730338   0.2581744  -0.1198181  )
        39           O   tau(  39) = (  -0.0058770   0.0572334  -0.1247827  )
        40           O   tau(  40) = (  -0.1908200  -0.1956036  -0.0549490  )
        41           O   tau(  41) = (  -0.1510578   0.2812209   0.1515329  )
        42           O   tau(  42) = (  -0.1102688   0.1647979   0.2162073  )
        43           O   tau(  43) = (  -0.0829369  -0.0903130  -0.0241117  )
        44           O   tau(  44) = (  -0.0691251  -0.0824155   0.2661249  )
        45           O   tau(  45) = (   0.0084292   0.1028933   0.2890596  )
        46           O   tau(  46) = (  -0.2435208   0.1483293   0.0751388  )
        47           O   tau(  47) = (   0.1719222   0.2247630  -0.0860421  )
        48           O   tau(  48) = (   0.0856019  -0.2877776  -0.1996053  )
        49           O   tau(  49) = (  -0.1556162   0.2184757  -0.1558229  )
        50           O   tau(  50) = (   0.2376044   0.0394828   0.3299633  )
        51           O   tau(  51) = (  -0.0894187   0.0384975   0.1082458  )
        52           O   tau(  52) = (   0.0013034  -0.0873766  -0.1880973  )
        53           O   tau(  53) = (   0.0064481  -0.1788341  -0.2945589  )
        54           O   tau(  54) = (   0.3283378  -0.2983447   0.2039145  )
        55           O   tau(  55) = (   0.1817614  -0.1501319   0.0477756  )
        56           O   tau(  56) = (   0.2943140  -0.0393475   0.1451270  )
        57           O   tau(  57) = (   0.0807314   0.1887495  -0.2181392  )
        58           O   tau(  58) = (  -0.0764200  -0.3377607  -0.0032445  )
        59           O   tau(  59) = (  -0.2612878  -0.0846888  -0.3084140  )
        60           O   tau(  60) = (  -0.2162086   0.0728458  -0.0505861  )
        61           O   tau(  61) = (   0.2620999   0.1801708  -0.1825487  )
        62           O   tau(  62) = (   0.0886383  -0.0325040  -0.0761652  )
        63           O   tau(  63) = (  -0.2389305  -0.1605479   0.0801990  )
        64           O   tau(  64) = (   0.0884808   0.1441926   0.0775427  )
        65           H   tau(  65) = (  -0.2221569  -0.0917815  -0.0503989  )
        66           H   tau(  66) = (  -0.2500480  -0.0248409  -0.0678296  )
        67           H   tau(  67) = (   0.1460043  -0.0863338   0.3191483  )
        68           H   tau(  68) = (   0.1210581  -0.1339061   0.2576327  )
        69           H   tau(  69) = (  -0.2858851   0.2778088  -0.2450319  )
        70           H   tau(  70) = (  -0.2494069   0.3461258  -0.2379244  )
        71           H   tau(  71) = (   0.0430146   0.1229197  -0.0460597  )
        72           H   tau(  72) = (   0.0972598   0.1767545  -0.0700125  )
        73           H   tau(  73) = (  -0.2886086   0.0382431   0.1550114  )
        74           H   tau(  74) = (  -0.2539279   0.0481081   0.2171350  )
        75           H   tau(  75) = (  -0.0058886   0.3468020   0.2672068  )
        76           H   tau(  76) = (   0.0239041   0.3172022   0.3326218  )
        77           H   tau(  77) = (  -0.0482003  -0.2951337  -0.0847404  )
        78           H   tau(  78) = (   0.0012133  -0.2600093  -0.1374158  )
        79           H   tau(  79) = (   0.1498264   0.0646552   0.1767051  )
        80           H   tau(  80) = (   0.1080955   0.0831781   0.2397314  )
        81           H   tau(  81) = (  -0.1812599  -0.3309198   0.3036689  )
        82           H   tau(  82) = (  -0.1016262  -0.3272941   0.3210232  )
        83           H   tau(  83) = (   0.0911624  -0.0894830   0.1557202  )
        84           H   tau(  84) = (   0.1531644  -0.1208138   0.1212162  )
        85           H   tau(  85) = (   0.1196620  -0.3694736   0.1375856  )
        86           H   tau(  86) = (   0.0728743  -0.3036069   0.1377948  )
        87           H   tau(  87) = (  -0.1482617  -0.2188194   0.2347148  )
        88           H   tau(  88) = (  -0.1976340  -0.2108863   0.1828134  )
        89           H   tau(  89) = (  -0.2557417  -0.3878267   0.0461053  )
        90           H   tau(  90) = (  -0.2319554  -0.3352387  -0.0103395  )
        91           H   tau(  91) = (  -0.1679082  -0.2094060  -0.1666860  )
        92           H   tau(  92) = (  -0.1562567  -0.2871490  -0.1776924  )
        93           H   tau(  93) = (   0.1327275  -0.1260218  -0.1164689  )
        94           H   tau(  94) = (   0.0972910  -0.1783736  -0.0761272  )
        95           H   tau(  95) = (  -0.1246766   0.1233248  -0.0818883  )
        96           H   tau(  96) = (  -0.0581119   0.1549331  -0.0436891  )
        97           H   tau(  97) = (  -0.1017974  -0.1516474   0.0764832  )
        98           H   tau(  98) = (  -0.0409511  -0.1157425   0.1011774  )
        99           H   tau(  99) = (   0.0687376  -0.1946960   0.1748271  )
       100           H   tau( 100) = (  -0.0057500  -0.2088338   0.1522523  )
       101           H   tau( 101) = (   0.2813027  -0.2293010  -0.2547928  )
       102           H   tau( 102) = (   0.2212786  -0.2006738  -0.2793803  )
       103           H   tau( 103) = (   0.2315257   0.2696796   0.1227464  )
       104           H   tau( 104) = (   0.3058695   0.2606477   0.1234689  )
       105           H   tau( 105) = (   0.2906584  -0.1557140   0.1682766  )
       106           H   tau( 106) = (   0.2332156  -0.1692444   0.2134096  )
       107           H   tau( 107) = (  -0.0834815  -0.1082601  -0.1795251  )
       108           H   tau( 108) = (  -0.1596936  -0.1033518  -0.2046152  )
       109           H   tau( 109) = (  -0.0228537   0.1763076  -0.2188325  )
       110           H   tau( 110) = (  -0.0532767   0.1015082  -0.2298743  )
       111           H   tau( 111) = (   0.2255629   0.1381989   0.1186703  )
       112           H   tau( 112) = (   0.1702510   0.0941107   0.0879670  )
       113           H   tau( 113) = (   0.1145834   0.0251179  -0.2045444  )
       114           H   tau( 114) = (   0.1200563   0.1020765  -0.1875330  )
       115           H   tau( 115) = (  -0.2534118   0.1233883  -0.3080806  )
       116           H   tau( 116) = (  -0.1959480   0.1032667  -0.2562063  )
       117           H   tau( 117) = (   0.2678976  -0.3079956   0.0140420  )
       118           H   tau( 118) = (   0.2932046  -0.2964403  -0.0576324  )
       119           H   tau( 119) = (   0.0671583  -0.0362773  -0.3252223  )
       120           H   tau( 120) = (   0.0494395   0.0333082  -0.2975275  )
       121           H   tau( 121) = (  -0.0805927  -0.0066161  -0.2867959  )
       122           H   tau( 122) = (  -0.1396386   0.0169590  -0.2361735  )
       123           H   tau( 123) = (   0.0599192  -0.0015316   0.0936905  )
       124           H   tau( 124) = (   0.0839445  -0.0501859   0.0367876  )
       125           H   tau( 125) = (   0.2755746  -0.1459893  -0.1851611  )
       126           H   tau( 126) = (   0.2797321  -0.0746284  -0.1580094  )
       127           H   tau( 127) = (   0.2527527   0.0310490  -0.0431571  )
       128           H   tau( 128) = (   0.2542062  -0.0444390  -0.0599927  )
       129           H   tau( 129) = (   0.0341533   0.2427192   0.2375552  )
       130           H   tau( 130) = (  -0.0258395   0.2176985   0.1969702  )
       131           H   tau( 131) = (  -0.2404876   0.0536147  -0.1383976  )
       132           H   tau( 132) = (  -0.2627295   0.0458952  -0.2120910  )
       133           H   tau( 133) = (  -0.0272033  -0.1883701  -0.0493741  )
       134           H   tau( 134) = (   0.0161364  -0.1585378   0.0072467  )
       135           H   tau( 135) = (   0.2226803   0.2467772  -0.3150015  )
       136           H   tau( 136) = (   0.2627700   0.1944698  -0.3513636  )
       137           H   tau( 137) = (   0.1325834   0.3121484   0.2318460  )
       138           H   tau( 138) = (   0.1551648   0.3656212   0.2876635  )
       139           H   tau( 139) = (  -0.2899983   0.2139961  -0.1328861  )
       140           H   tau( 140) = (  -0.2243463   0.2433977  -0.1185999  )
       141           H   tau( 141) = (  -0.0395209   0.0271346  -0.1066212  )
       142           H   tau( 142) = (  -0.0237787   0.1006721  -0.1379090  )
       143           H   tau( 143) = (  -0.2272576  -0.1933456  -0.0870732  )
       144           H   tau( 144) = (  -0.2014718  -0.2158108  -0.0117767  )
       145           H   tau( 145) = (  -0.1892948   0.3058367   0.1323166  )
       146           H   tau( 146) = (  -0.1355708   0.3063998   0.1913164  )
       147           H   tau( 147) = (  -0.1443040   0.1992755   0.2099601  )
       148           H   tau( 148) = (  -0.1280249   0.1308834   0.2463987  )
       149           H   tau( 149) = (  -0.1019662  -0.1195718  -0.0592114  )
       150           H   tau( 150) = (  -0.1257143  -0.0694530  -0.0127661  )
       151           H   tau( 151) = (  -0.0934505  -0.0996583   0.2270257  )
       152           H   tau( 152) = (  -0.0355844  -0.1170378   0.2769326  )
       153           H   tau( 153) = (   0.0178709   0.1445121   0.2617681  )
       154           H   tau( 154) = (  -0.0284913   0.1231740   0.3165896  )
       155           H   tau( 155) = (  -0.2604701   0.1102265   0.1004008  )
       156           H   tau( 156) = (  -0.2207326   0.1733317   0.1110470  )
       157           H   tau( 157) = (   0.1844492   0.2557343  -0.0496066  )
       158           H   tau( 158) = (   0.2133720   0.2133746  -0.1094726  )
       159           H   tau( 159) = (   0.1214371  -0.2998933  -0.2309531  )
       160           H   tau( 160) = (   0.1081219  -0.2658480  -0.1613875  )
       161           H   tau( 161) = (  -0.1717063   0.2132620  -0.2018099  )
       162           H   tau( 162) = (  -0.1333233   0.2623018  -0.1510050  )
       163           H   tau( 163) = (   0.2110789   0.0436061   0.3719400  )
       164           H   tau( 164) = (   0.2042284   0.0500767   0.2963399  )
       165           H   tau( 165) = (  -0.0904762   0.0127565   0.0666308  )
       166           H   tau( 166) = (  -0.1348937   0.0402155   0.1239513  )
       167           H   tau( 167) = (   0.0365578  -0.0844487  -0.1548275  )
       168           H   tau( 168) = (   0.0165437  -0.0723510  -0.2322883  )
       169           H   tau( 169) = (  -0.0117753  -0.2093569  -0.2605512  )
       170           H   tau( 170) = (   0.0506634  -0.1649547  -0.2782893  )
       171           H   tau( 171) = (   0.3382672  -0.3179636   0.2478318  )
       172           H   tau( 172) = (   0.2867902  -0.2718746   0.2042859  )
       173           H   tau( 173) = (   0.2013972  -0.1941290   0.0553496  )
       174           H   tau( 174) = (   0.1605147  -0.1477453   0.0039914  )
       175           H   tau( 175) = (   0.2584735  -0.0549991   0.1154828  )
       176           H   tau( 176) = (   0.2692560  -0.0149575   0.1796145  )
       177           H   tau( 177) = (   0.0866995   0.2025320  -0.2647497  )
       178           H   tau( 178) = (   0.0670005   0.2314365  -0.1974545  )
       179           H   tau( 179) = (  -0.0563890  -0.3389918   0.0416717  )
       180           H   tau( 180) = (  -0.1242590  -0.3417441   0.0069758  )
       181           H   tau( 181) = (  -0.2798500  -0.0865783  -0.2628835  )
       182           H   tau( 182) = (  -0.2249608  -0.1167822  -0.3137882  )
       183           H   tau( 183) = (  -0.1814496   0.0550034  -0.0213023  )
       184           H   tau( 184) = (  -0.2209701   0.1189310  -0.0342179  )
       185           H   tau( 185) = (   0.2365985   0.1712603  -0.2238594  )
       186           H   tau( 186) = (   0.2477889   0.1420428  -0.1556838  )
       187           H   tau( 187) = (   0.1368110  -0.0198467  -0.0721994  )
       188           H   tau( 188) = (   0.0692102   0.0044773  -0.1039192  )
       189           H   tau( 189) = (  -0.2626074  -0.1467507   0.0394292  )
       190           H   tau( 190) = (  -0.2116442  -0.1217482   0.0924371  )
       191           H   tau( 191) = (   0.0637576   0.1673164   0.1129440  )
       192           H   tau( 192) = (   0.0850575   0.1698732   0.0355532  )

     number of k points=     1  Marzari-Vanderbilt smearing, width (Ry)=  0.0250
                       cart. coord. in units 2pi/alat
        k(    1) = (   0.0000000   0.0000000   0.0000000), wk =   2.0000000

     Dense  grid:   177509 G-vectors     FFT dimensions: (  72,  72,  72)

     Estimated max dynamical RAM per process >      67.80Mb

     Estimated total allocated dynamical RAM >    1898.40Mb

     Initial potential from superposition of free atoms
     Check: negative starting charge=   -0.750291

     starting charge  511.99856, renormalised to  512.00000

     negative rho (up, down):  7.503E-01 0.000E+00
     Starting wfc are  384 randomized atomic wfcs

     total cpu time spent up to now is        0.8 secs

     per-process dynamical memory:    45.9 Mb

     Self-consistent Calculation

     iteration #  1     ecut=    30.00 Ry     beta=0.70
     Davidson diagonalization with overlap
     ethr =  1.00E-02,  avg # of iterations =  8.0

     negative rho (up, down):  1.795E-01 0.000E+00

     total cpu time spent up to now is        8.8 secs

     total energy              =   -1793.78086204 Ry
     Harris-Foulkes estimate   =   -1821.26129666 Ry
     estimated scf accuracy    <      42.58937258 Ry

     iteration #  2     ecut=    30.00 Ry     beta=0.70
     Davidson diagonalization with overlap
     ethr =  8.32E-03,  avg # of iterations =  4.0

     negative rho (up, down):  1.381E-03 0.000E+00

     total cpu time spent up to now is       12.0 secs

     total energy              =   -1772.76332018 Ry
     Harris-Foulkes estimate   =   -1809.26746879 Ry
     estimated scf accuracy    <      85.25205396 Ry

     iteration #  3     ecut=    30.00 Ry     beta=0.70
     Davidson diagonalization with overlap
     ethr =  8.32E-03,  avg # of iterations =  4.0

     negative rho (up, down):  2.166E-06 0.000E+00

     total cpu time spent up to now is       15.2 secs

     total energy              =   -1796.60448671 Ry
     Harris-Foulkes estimate   =   -1809.34053998 Ry
     estimated scf accuracy    <      39.44024025 Ry

     iteration #  4     ecut=    30.00 Ry     beta=0.70
     Davidson diagonalization with overlap
     ethr =  7.70E-03,  avg # of iterations =  3.0

     total cpu time spent up to now is       17.0 secs

     total energy              =   -1801.85031608 Ry
     Harris-Foulkes estimate   =   -1804.01350407 Ry
     estimated scf accuracy    <       7.01330444 Ry

     iteration #  5     ecut=    30.00 Ry     beta=0.70
     Davidson diagonalization with overlap
     ethr =  1.37E-03,  avg # of iterations =  5.0

     total cpu time spent up to now is       19.4 secs

     total energy              =   -1801.65449269 Ry
     Harris-Foulkes estimate   =   -1802.25291107 Ry
     estimated scf accuracy    <       2.72354427 Ry

     iteration #  6     ecut=    30.00 Ry     beta=0.70
     Davidson diagonalization with overlap
     ethr =  5.32E-04,  avg # of iterations =  6.0

     total cpu time spent up to now is       22.1 secs

     total energy              =   -1801.42024566 Ry
     Harris-Foulkes estimate   =   -1801.73862685 Ry
     estimated scf accuracy    <       1.35163892 Ry

     iteration #  7     ecut=    30.00 Ry     beta=0.70
     Davidson diagonalization with overlap
     ethr =  2.64E-04,  avg # of iterations =  5.0

     total cpu time spent up to now is       24.5 secs

     total energy              =   -1801.42380863 Ry
     Harris-Foulkes estimate   =   -1801.57054601 Ry
     estimated scf accuracy    <       1.25881003 Ry

     iteration #  8     ecut=    30.00 Ry     beta=0.70
     Davidson diagonalization with overlap
     ethr =  2.46E-04,  avg # of iterations =  1.0

     total cpu time spent up to now is       25.6 secs

     total energy              =   -1801.43731468 Ry
     Harris-Foulkes estimate   =   -1801.46883980 Ry
     estimated scf accuracy    <       0.26827560 Ry

     iteration #  9     ecut=    30.00 Ry     beta=0.70
     Davidson diagonalization with overlap
     ethr =  5.24E-05,  avg # of iterations =  6.0

     total cpu time spent up to now is       28.3 secs

     total energy              =   -1801.37125105 Ry
     Harris-Foulkes estimate   =   -1801.46464110 Ry
     estimated scf accuracy    <       0.34475100 Ry

     iteration # 10     ecut=    30.00 Ry     beta=0.70
     Davidson diagonalization with overlap
     ethr =  5.24E-05,  avg # of iterations =  6.0

     total cpu time spent up to now is       31.2 secs

     total energy              =   -1801.41774427 Ry
     Harris-Foulkes estimate   =   -1801.45029013 Ry
     estimated scf accuracy    <       0.37772479 Ry

     iteration # 11     ecut=    30.00 Ry     beta=0.70
     Davidson diagonalization with overlap
     ethr =  5.24E-05,  avg # of iterations =  1.0

     total cpu time spent up to now is       32.4 secs

     total energy              =   -1801.42031580 Ry
     Harris-Foulkes estimate   =   -1801.43088388 Ry
     estimated scf accuracy    <       0.16146910 Ry

     iteration # 12     ecut=    30.00 Ry     beta=0.70
     Davidson diagonalization with overlap
     ethr =  3.15E-05,  avg # of iterations =  1.0

     total cpu time spent up to now is       33.5 secs

     total energy              =   -1801.41711997 Ry
     Harris-Foulkes estimate   =   -1801.42960386 Ry
     estimated scf accuracy    <       0.08383393 Ry

     iteration # 13     ecut=    30.00 Ry     beta=0.70
     Davidson diagonalization with overlap
     ethr =  1.64E-05,  avg # of iterations =  2.0

     total cpu time spent up to now is       34.9 secs

     total energy              =   -1801.42312804 Ry
     Harris-Foulkes estimate   =   -1801.42559701 Ry
     estimated scf accuracy    <       0.01430262 Ry

     iteration # 14     ecut=    30.00 Ry     beta=0.70
     Davidson diagonalization with overlap
     ethr =  2.79E-06,  avg # of iterations =  7.0

     total cpu time spent up to now is       37.9 secs

     total energy              =   -1801.42234283 Ry
     Harris-Foulkes estimate   =   -1801.42586213 Ry
     estimated scf accuracy    <       0.02995588 Ry

     iteration # 15     ecut=    30.00 Ry     beta=0.70
     Davidson diagonalization with overlap
     ethr =  2.79E-06,  avg # of iterations =  2.0

     total cpu time spent up to now is       39.3 secs

     total energy              =   -1801.42387120 Ry
     Harris-Foulkes estimate   =   -1801.42455468 Ry
     estimated scf accuracy    <       0.00292408 Ry

     iteration # 16     ecut=    30.00 Ry     beta=0.70
     Davidson diagonalization with overlap
     ethr =  5.71E-07,  avg # of iterations =  2.0

     total cpu time spent up to now is       40.8 secs

     total energy              =   -1801.42419617 Ry
     Harris-Foulkes estimate   =   -1801.42435352 Ry
     estimated scf accuracy    <       0.00109956 Ry

     iteration # 17     ecut=    30.00 Ry     beta=0.70
     Davidson diagonalization with overlap
     ethr =  2.15E-07,  avg # of iterations =  2.0

     total cpu time spent up to now is       42.2 secs

     total energy              =   -1801.42416483 Ry
     Harris-Foulkes estimate   =   -1801.42429067 Ry
     estimated scf accuracy    <       0.00066778 Ry

     iteration # 18     ecut=    30.00 Ry     beta=0.70
     Davidson diagonalization with overlap
     ethr =  1.30E-07,  avg # of iterations =  2.0

     total cpu time spent up to now is       43.6 secs

     total energy              =   -1801.42419604 Ry
     Harris-Foulkes estimate   =   -1801.42428415 Ry
     estimated scf accuracy    <       0.00038702 Ry

     iteration # 19     ecut=    30.00 Ry     beta=0.70
     Davidson diagonalization with overlap
     ethr =  7.56E-08,  avg # of iterations =  2.0

     total cpu time spent up to now is       45.1 secs

     total energy              =   -1801.42423503 Ry
     Harris-Foulkes estimate   =   -1801.42424335 Ry
     estimated scf accuracy    <       0.00003343 Ry

     iteration # 20     ecut=    30.00 Ry     beta=0.70
     Davidson diagonalization with overlap
     ethr =  6.53E-09,  avg # of iterations =  2.0

     total cpu time spent up to now is       46.5 secs

     total energy              =   -1801.42423913 Ry
     Harris-Foulkes estimate   =   -1801.42424122 Ry
     estimated scf accuracy    <       0.00000882 Ry

     iteration # 21     ecut=    30.00 Ry     beta=0.70
     Davidson diagonalization with overlap
     ethr =  1.72E-09,  avg # of iterations =  2.0

     total cpu time spent up to now is       48.0 secs

     total energy              =   -1801.42424019 Ry
     Harris-Foulkes estimate   =   -1801.42424076 Ry
     estimated scf accuracy    <       0.00000355 Ry

     iteration # 22     ecut=    30.00 Ry     beta=0.70
     Davidson diagonalization with overlap
     ethr =  6.92E-10,  avg # of iterations =  2.0

     total cpu time spent up to now is       49.4 secs

     total energy              =   -1801.42424045 Ry
     Harris-Foulkes estimate   =   -1801.42424059 Ry
     estimated scf accuracy    <       0.00000056 Ry

     iteration # 23     ecut=    30.00 Ry     beta=0.70
     Davidson diagonalization with overlap
     ethr =  1.09E-10,  avg # of iterations =  2.0

     total cpu time spent up to now is       50.8 secs

     total energy              =   -1801.42424048 Ry
     Harris-Foulkes estimate   =   -1801.42424063 Ry
     estimated scf accuracy    <       0.00000115 Ry

     iteration # 24     ecut=    30.00 Ry     beta=0.70
     Davidson diagonalization with overlap
     ethr =  1.09E-10,  avg # of iterations =  2.0

     total cpu time spent up to now is       52.3 secs

     total energy              =   -1801.42424057 Ry
     Harris-Foulkes estimate   =   -1801.42424057 Ry
     estimated scf accuracy    <       0.00000004 Ry

     iteration # 25     ecut=    30.00 Ry     beta=0.70
     Davidson diagonalization with overlap
     ethr =  7.42E-12,  avg # of iterations =  2.0

     total cpu time spent up to now is       53.8 secs

     total energy              =   -1801.42424058 Ry
     Harris-Foulkes estimate   =   -1801.42424057 Ry
     estimated scf accuracy    <       0.00000001 Ry

     iteration # 26     ecut=    30.00 Ry     beta=0.70
     Davidson diagonalization with overlap
     ethr =  2.13E-12,  avg # of iterations =  2.0

     total cpu time spent up to now is       55.2 secs

     End of self-consistent calculation

          k = 0.0000 0.0000 0.0000 ( 22119 PWs)   bands (ev):

   -40.8450 -40.0877 -39.2072 -38.9653 -37.8021 -37.4047 -36.8602 -36.8065
   -36.2904 -35.8986 -35.4677 -35.1152 -35.0470 -35.0238 -34.4206 -33.8085
   -33.5636 -33.3330 -32.8814 -32.5074 -32.4765 -32.0105 -31.5353 -31.4362
   -31.3191 -30.9950 -30.8441 -30.7979 -30.6539 -30.3485 -30.1830 -30.0497
   -29.7978 -29.6509 -29.6262 -29.3757 -29.3332 -29.2045 -28.9998 -28.5372
   -28.3345 -28.1855 -28.0436 -27.9608 -27.8944 -27.8006 -27.6029 -27.5095
   -27.3820 -27.3124 -27.2696 -27.0178 -26.7719 -26.7423 -26.6461 -26.3616
   -26.3246 -26.1479 -26.0793 -25.9366 -25.9276 -25.5566 -25.4874 -25.1405
   -22.1515 -21.5767 -21.1369 -21.0695 -20.8881 -20.5135 -20.2228 -20.0524
   -20.0185 -19.6269 -19.3915 -19.2982 -19.0609 -18.9458 -18.7055 -18.6040
   -18.4946 -18.1016 -17.8155 -17.7466 -17.4115 -17.3407 -17.2357 -17.0148
   -16.8841 -16.7091 -16.5650 -16.2740 -16.1230 -15.8640 -15.8188 -15.7670
   -15.6330 -15.5681 -15.4349 -15.0536 -14.9909 -14.8126 -14.7706 -14.5969
   -14.5497 -14.3799 -14.3140 -13.9729 -13.8980 -13.7634 -13.7475 -13.6205
   -13.4717 -13.2602 -13.1842 -13.1461 -13.0834 -12.9126 -12.8724 -12.6195
   -12.5507 -12.3696 -12.2726 -12.1496 -11.8825 -11.8495 -11.7864 -11.6085
   -10.8479 -10.6702 -10.4664  -9.7414  -9.3341  -9.1477  -8.9943  -8.8939
    -8.7670  -8.6390  -8.5667  -8.4352  -8.0047  -7.8862  -7.6040  -7.5209
    -7.4181  -7.2976  -7.0120  -6.8015  -6.6859  -6.6005  -6.4736  -6.3865
    -6.3063  -6.2486  -6.1345  -5.7976  -5.7310  -5.6782  -5.5600  -5.3670
    -5.2961  -5.1104  -5.0274  -4.9832  -4.8588  -4.7871  -4.6987  -4.6292
    -4.5181  -4.4724  -4.4036  -4.2710  -4.2227  -4.1594  -4.1148  -4.0151
    -3.9249  -3.8471  -3.7800  -3.6416  -3.5426  -3.3218  -3.2063  -3.0769
    -2.9951  -2.9189  -2.8600  -2.7811  -2.6265  -2.5411  -2.4673  -2.3092
    -2.1819  -2.0895  -2.0167  -1.9863  -1.8946  -1.7741  -1.7357  -1.6320
    -1.6071  -1.5154  -1.3854  -1.3003  -1.2112  -1.1556  -0.9852  -0.9282
    -0.8794  -0.8381  -0.7782  -0.6085  -0.5257  -0.3766  -0.2848  -0.1792
     0.0271   0.1067   0.1964   0.2787   0.3187   0.3709   0.4332   0.6075
     0.6935   0.7809   0.9725   1.0592   1.2360   1.3440   1.4344   1.5027
     1.7304   1.7526   1.8496   2.0223   2.2015   2.2195   2.3340   2.3596
     2.5322   2.8040   2.9454   3.2017   3.3387   3.6130   3.7841   4.0210
     4.3678   4.5075   4.7010   5.1058   5.2230   5.2848   5.4416   5.4781
     5.7156   6.2816   6.4195   6.5687   6.7456   6.9644   7.2520   7.3625
     7.5669   7.6063   7.8396   8.0386   8.1096   8.2950   8.4335   8.6261
     8.8896   8.9533   9.1216   9.5132   9.6372   9.8167   9.8427   9.9180
     9.9280  10.1685  10.3819  10.5068  10.6097  10.6951  10.7161  10.8423
    10.9550  11.0312  11.0692  11.2557  11.2628  11.3804  11.4628  11.5592
    11.6251  11.6695  11.7375  11.8647  11.9344  11.9703  12.0560  12.0789
    12.1929  12.2313  12.3382

     the Fermi energy is     5.6351 ev

!    total energy              =   -1801.42424057 Ry
     Harris-Foulkes estimate   =   -1801.42424058 Ry
     estimated scf accuracy    <          8.3E-09 Ry

     The total energy is the sum of the following terms:

     one-electron contribution =  -14040.90784713 Ry
     hartree contribution      =    7189.67115438 Ry
     xc contribution           =    -635.25949682 Ry
     ewald contribution        =    5685.06451205 Ry
     smearing contrib. (-TS)   =       0.00743695 Ry

     convergence has been achieved in  26 iterations

     Writing output data file pwscf.save
 
     init_run     :      0.57s CPU      0.63s WALL (       1 calls)
     electrons    :     52.76s CPU     54.49s WALL (       1 calls)

     Called by init_run:
     wfcinit      :      0.47s CPU      0.52s WALL (       1 calls)
     potinit      :      0.03s CPU      0.03s WALL (       1 calls)

     Called by electrons:
     c_bands      :     50.16s CPU     51.58s WALL (      26 calls)
     sum_band     :      2.17s CPU      2.22s WALL (      26 calls)
     v_of_rho     :      0.21s CPU      0.22s WALL (      27 calls)
     mix_rho      :      0.17s CPU      0.30s WALL (      26 calls)

     Called by c_bands:
     init_us_2    :      0.07s CPU      0.07s WALL (      53 calls)
     cegterg      :     50.06s CPU     51.40s WALL (      26 calls)

     Called by sum_band:

     Called by *egterg:
     h_psi        :      9.66s CPU      9.83s WALL (     110 calls)
     g_psi        :      0.08s CPU      0.08s WALL (      83 calls)
     cdiaghg      :     30.21s CPU     30.25s WALL (     109 calls)

     Called by h_psi:
     h_psi:pot    :      9.42s CPU      9.58s WALL (     110 calls)
     h_psi:calbec :      0.34s CPU      0.35s WALL (     110 calls)
     vloc_psi     :      8.76s CPU      8.91s WALL (     110 calls)
     add_vuspsi   :      0.31s CPU      0.32s WALL (     110 calls)

     General routines
     calbec       :      0.34s CPU      0.35s WALL (     110 calls)
     fft          :      0.12s CPU      0.12s WALL (     296 calls)
     fftw         :      9.74s CPU      9.92s WALL (   43792 calls)
     davcio       :      0.03s CPU      0.15s WALL (     428 calls)
 
     Parallel routines
     fft_scatter  :      3.38s CPU      3.46s WALL (   44088 calls)
 
     PWSCF        :    53.52s CPU        55.56s WALL

 
   This run was terminated on:  17:43:20   2Feb2018            

=------------------------------------------------------------------------------=
   JOB DONE.
=------------------------------------------------------------------------------=
