
     Program PWSCF v.6.0 (svn rev. 13079) starts on  2Feb2018 at 18:20:16 

     This program is part of the open-source Quantum ESPRESSO suite
     for quantum simulation of materials; please cite
         "P. Giannozzi et al., J. Phys.:Condens. Matter 21 395502 (2009);
          URL http://www.quantum-espresso.org", 
     in publications or presentations arising from this work. More details at
     http://www.quantum-espresso.org/quote

     Parallel version (MPI), running on    28 processors
     R & G space division:  proc/nbgrp/npool/nimage =      28
     Reading input from input/scf-bigwater-1/819.in
Warning: card &IONS ignored
Warning: card     POT_EXTRAPOLATION='SECOND-ORDER' ignored
Warning: card     WFC_EXTRAPOLATION='SECOND-ORDER' ignored
Warning: card     ION_TEMPERATURE = 'ANDERSEN' ignored
Warning: card     TEMPW = 1000 ignored
Warning: card / ignored

     Current dimensions of program PWSCF are:
     Max number of different atomic species (ntypx) = 10
     Max number of k-points (npk) =  40000
     Max angular momentum in pseudopotentials (lmaxx) =  3

     Subspace diagonalization in iterative solution of the eigenvalue problem:
     a serial algorithm will be used

 
     Parallelization info
     --------------------
     sticks:   dense  smooth     PW     G-vecs:    dense   smooth      PW
     Min         136     136     33                 6338     6338     787
     Max         137     137     34                 6341     6341     792
     Sum        3809    3809    949               177509   177509   22119
 


     bravais-lattice index     =            1
     lattice parameter (alat)  =      20.0000  a.u.
     unit-cell volume          =    8000.0000 (a.u.)^3
     number of atoms/cell      =          192
     number of atomic types    =            2
     number of electrons       =       512.00
     number of Kohn-Sham states=          307
     kinetic-energy cutoff     =      30.0000  Ry
     charge density cutoff     =     120.0000  Ry
     convergence threshold     =      1.0E-08
     mixing beta               =       0.7000
     number of iterations used =            8  plain     mixing
     Exchange-correlation      = BLYP ( 1  3  1  3 0 0)

     celldm(1)=  20.000000  celldm(2)=   0.000000  celldm(3)=   0.000000
     celldm(4)=   0.000000  celldm(5)=   0.000000  celldm(6)=   0.000000

     crystal axes: (cart. coord. in units of alat)
               a(1) = (   1.000000   0.000000   0.000000 )  
               a(2) = (   0.000000   1.000000   0.000000 )  
               a(3) = (   0.000000   0.000000   1.000000 )  

     reciprocal axes: (cart. coord. in units 2 pi/alat)
               b(1) = (  1.000000  0.000000  0.000000 )  
               b(2) = (  0.000000  1.000000  0.000000 )  
               b(3) = (  0.000000  0.000000  1.000000 )  


     PseudoPot. # 1 for  H read from file:
     ./H.blyp-hgh.UPF
     MD5 check sum: c576e69559cde411e611be972c763230
     Pseudo is Norm-conserving, Zval =  1.0
     Generated in analytical, separable form
     Using radial grid of  929 points,  0 beta functions with: 

     PseudoPot. # 2 for  O read from file:
     ./O.blyp-hgh.UPF
     MD5 check sum: d0b7156309aa9befef28faac7bc56342
     Pseudo is Norm-conserving, Zval =  6.0
     Generated in analytical, separable form
     Using radial grid of 1095 points,  1 beta functions with: 
                l(1) =   0

     atomic species   valence    mass     pseudopotential
        H              1.00     1.01000      H( 1.00)
        O              6.00    16.00000      O( 1.00)

     No symmetry found



   Cartesian axes

     site n.     atom                  positions (alat units)
         1           O   tau(   1) = (  -0.2629240  -0.0730553  -0.0619577  )
         2           O   tau(   2) = (   0.1405340  -0.1330661   0.3052231  )
         3           O   tau(   3) = (  -0.2700027   0.3186188  -0.2694383  )
         4           O   tau(   4) = (   0.0530603   0.1672878  -0.0486248  )
         5           O   tau(   5) = (  -0.2528904   0.0711685   0.1712327  )
         6           O   tau(   6) = (  -0.0135150   0.3094098   0.2988193  )
         7           O   tau(   7) = (  -0.0487989  -0.2676099  -0.1256431  )
         8           O   tau(   8) = (   0.1423020   0.0533180   0.2228070  )
         9           O   tau(   9) = (  -0.1360883  -0.3146381   0.2897884  )
        10           O   tau(  10) = (   0.1181646  -0.1253111   0.1608642  )
        11           O   tau(  11) = (   0.1204579  -0.3225333   0.1313611  )
        12           O   tau(  12) = (  -0.1723672  -0.1829260   0.2111279  )
        13           O   tau(  13) = (  -0.2405661  -0.3448747   0.0355675  )
        14           O   tau(  14) = (  -0.1926150  -0.2500226  -0.1779547  )
        15           O   tau(  15) = (   0.1344977  -0.1766630  -0.1044064  )
        16           O   tau(  16) = (  -0.1045133   0.1386187  -0.0397817  )
        17           O   tau(  17) = (  -0.0740337  -0.1506499   0.1097022  )
        18           O   tau(  18) = (   0.0339366  -0.2342433   0.1734875  )
        19           O   tau(  19) = (   0.2336934  -0.2226723  -0.2388773  )
        20           O   tau(  20) = (   0.2652730   0.2365922   0.1091114  )
        21           O   tau(  21) = (   0.2574741  -0.1925877   0.1776209  )
        22           O   tau(  22) = (  -0.1285580  -0.1196621  -0.1667324  )
        23           O   tau(  23) = (  -0.0626219   0.1505873  -0.2242853  )
        24           O   tau(  24) = (   0.2108394   0.0906903   0.1152456  )
        25           O   tau(  25) = (   0.1450138   0.0589904  -0.1841292  )
        26           O   tau(  26) = (  -0.2224728   0.1449621  -0.2749058  )
        27           O   tau(  27) = (   0.2543704  -0.2871555  -0.0251571  )
        28           O   tau(  28) = (   0.0533472  -0.0129367  -0.2858709  )
        29           O   tau(  29) = (  -0.1004514   0.0309854  -0.2550206  )
        30           O   tau(  30) = (   0.0522615  -0.0477776   0.0793431  )
        31           O   tau(  31) = (   0.2856873  -0.1025013  -0.1989887  )
        32           O   tau(  32) = (   0.2207168  -0.0084593  -0.0513054  )
        33           O   tau(  33) = (   0.0223430   0.2114480   0.2020148  )
        34           O   tau(  34) = (  -0.2248709   0.0342083  -0.1770019  )
        35           O   tau(  35) = (   0.0110425  -0.1893032  -0.0336214  )
        36           O   tau(  36) = (   0.2523319   0.2076899  -0.3141780  )
        37           O   tau(  37) = (   0.1495837   0.3233752   0.2834469  )
        38           O   tau(  38) = (  -0.2711914   0.2600263  -0.1236505  )
        39           O   tau(  39) = (  -0.0028873   0.0553906  -0.1266287  )
        40           O   tau(  40) = (  -0.1914707  -0.1940104  -0.0540620  )
        41           O   tau(  41) = (  -0.1500649   0.2810574   0.1532725  )
        42           O   tau(  42) = (  -0.1149790   0.1670824   0.2134590  )
        43           O   tau(  43) = (  -0.0822652  -0.0931106  -0.0236471  )
        44           O   tau(  44) = (  -0.0696021  -0.0811276   0.2653214  )
        45           O   tau(  45) = (   0.0114559   0.0989511   0.2921482  )
        46           O   tau(  46) = (  -0.2437587   0.1457780   0.0775447  )
        47           O   tau(  47) = (   0.1758685   0.2270715  -0.0880092  )
        48           O   tau(  48) = (   0.0810889  -0.2868891  -0.1989797  )
        49           O   tau(  49) = (  -0.1573449   0.2203345  -0.1564764  )
        50           O   tau(  50) = (   0.2430004   0.0411279   0.3299840  )
        51           O   tau(  51) = (  -0.0863009   0.0416445   0.1058066  )
        52           O   tau(  52) = (   0.0012314  -0.0871164  -0.1886979  )
        53           O   tau(  53) = (   0.0093481  -0.1814746  -0.2957998  )
        54           O   tau(  54) = (   0.3341049  -0.3006035   0.2003362  )
        55           O   tau(  55) = (   0.1826213  -0.1472038   0.0524667  )
        56           O   tau(  56) = (   0.2946881  -0.0430403   0.1468979  )
        57           O   tau(  57) = (   0.0777354   0.1875360  -0.2167475  )
        58           O   tau(  58) = (  -0.0765511  -0.3444729   0.0022955  )
        59           O   tau(  59) = (  -0.2581930  -0.0823688  -0.3145349  )
        60           O   tau(  60) = (  -0.2153758   0.0749299  -0.0469958  )
        61           O   tau(  61) = (   0.2650072   0.1827265  -0.1865350  )
        62           O   tau(  62) = (   0.0845758  -0.0331190  -0.0766949  )
        63           O   tau(  63) = (  -0.2364451  -0.1667618   0.0867093  )
        64           O   tau(  64) = (   0.0882517   0.1468361   0.0835604  )
        65           H   tau(  65) = (  -0.2288376  -0.1020873  -0.0423233  )
        66           H   tau(  66) = (  -0.2480158  -0.0284035  -0.0752058  )
        67           H   tau(  67) = (   0.1364611  -0.0837668   0.3095206  )
        68           H   tau(  68) = (   0.1229461  -0.1385014   0.2591727  )
        69           H   tau(  69) = (  -0.2930212   0.2875079  -0.2391887  )
        70           H   tau(  70) = (  -0.2531751   0.3499514  -0.2341469  )
        71           H   tau(  71) = (   0.0587937   0.1184570  -0.0491400  )
        72           H   tau(  72) = (   0.0965957   0.1852999  -0.0653572  )
        73           H   tau(  73) = (  -0.2786688   0.0335095   0.1492360  )
        74           H   tau(  74) = (  -0.2389575   0.0530429   0.2141921  )
        75           H   tau(  75) = (  -0.0078476   0.3508757   0.2722393  )
        76           H   tau(  76) = (   0.0120264   0.3235096   0.3385229  )
        77           H   tau(  77) = (  -0.0432623  -0.3024223  -0.0915018  )
        78           H   tau(  78) = (  -0.0034011  -0.2618166  -0.1423448  )
        79           H   tau(  79) = (   0.1555779   0.0735029   0.1789609  )
        80           H   tau(  80) = (   0.1031983   0.0772802   0.2391027  )
        81           H   tau(  81) = (  -0.1733116  -0.3464952   0.2953055  )
        82           H   tau(  82) = (  -0.0996782  -0.3309003   0.3177093  )
        83           H   tau(  83) = (   0.0883126  -0.0869011   0.1621940  )
        84           H   tau(  84) = (   0.1544942  -0.1254365   0.1276893  )
        85           H   tau(  85) = (   0.0977781  -0.3661326   0.1357317  )
        86           H   tau(  86) = (   0.0799099  -0.2922714   0.1336788  )
        87           H   tau(  87) = (  -0.1553673  -0.2119835   0.2458502  )
        88           H   tau(  88) = (  -0.1978267  -0.2065310   0.1770525  )
        89           H   tau(  89) = (  -0.2587836  -0.3908035   0.0369656  )
        90           H   tau(  90) = (  -0.2299773  -0.3427710  -0.0125397  )
        91           H   tau(  91) = (  -0.1676757  -0.2065043  -0.1770039  )
        92           H   tau(  92) = (  -0.1562324  -0.2823592  -0.1752546  )
        93           H   tau(  93) = (   0.1434761  -0.1306908  -0.1173587  )
        94           H   tau(  94) = (   0.0940131  -0.1716346  -0.0763380  )
        95           H   tau(  95) = (  -0.1101729   0.1442862  -0.0883086  )
        96           H   tau(  96) = (  -0.0601634   0.1586288  -0.0433205  )
        97           H   tau(  97) = (  -0.1038943  -0.1476029   0.0703664  )
        98           H   tau(  98) = (  -0.0363694  -0.1213991   0.0986248  )
        99           H   tau(  99) = (   0.0645001  -0.1966770   0.1831733  )
       100           H   tau( 100) = (  -0.0084254  -0.2152188   0.1581466  )
       101           H   tau( 101) = (   0.2734591  -0.2498381  -0.2548973  )
       102           H   tau( 102) = (   0.2191344  -0.1938252  -0.2763633  )
       103           H   tau( 103) = (   0.2195693   0.2546072   0.1161515  )
       104           H   tau( 104) = (   0.2955517   0.2690473   0.1332011  )
       105           H   tau( 105) = (   0.2983704  -0.1681323   0.1654940  )
       106           H   tau( 106) = (   0.2351405  -0.1680311   0.2134483  )
       107           H   tau( 107) = (  -0.0814658  -0.1041464  -0.1740782  )
       108           H   tau( 108) = (  -0.1536533  -0.0968987  -0.2017495  )
       109           H   tau( 109) = (  -0.0188164   0.1714226  -0.2314655  )
       110           H   tau( 110) = (  -0.0626729   0.1016106  -0.2187870  )
       111           H   tau( 111) = (   0.2168013   0.1388916   0.1073737  )
       112           H   tau( 112) = (   0.1676832   0.0855715   0.0918411  )
       113           H   tau( 113) = (   0.1053054   0.0362210  -0.2003048  )
       114           H   tau( 114) = (   0.1240227   0.1035371  -0.1833034  )
       115           H   tau( 115) = (  -0.2545069   0.1324392  -0.3090743  )
       116           H   tau( 116) = (  -0.2118263   0.1076367  -0.2444883  )
       117           H   tau( 117) = (   0.2622964  -0.3107177   0.0175845  )
       118           H   tau( 118) = (   0.2983906  -0.2903409  -0.0463027  )
       119           H   tau( 119) = (   0.0505020  -0.0303928  -0.3313530  )
       120           H   tau( 120) = (   0.0355791   0.0337960  -0.2968626  )
       121           H   tau( 121) = (  -0.0914753   0.0041979  -0.2957925  )
       122           H   tau( 122) = (  -0.1347311   0.0092625  -0.2273434  )
       123           H   tau( 123) = (   0.0527776   0.0004501   0.0876903  )
       124           H   tau( 124) = (   0.0814245  -0.0554393   0.0407649  )
       125           H   tau( 125) = (   0.2677537  -0.1480237  -0.1911777  )
       126           H   tau( 126) = (   0.2790914  -0.0775114  -0.1580274  )
       127           H   tau( 127) = (   0.2473308   0.0302952  -0.0402649  )
       128           H   tau( 128) = (   0.2555423  -0.0423455  -0.0488789  )
       129           H   tau( 129) = (   0.0339680   0.2468329   0.2351267  )
       130           H   tau( 130) = (  -0.0206012   0.2339339   0.1882108  )
       131           H   tau( 131) = (  -0.2432434   0.0665164  -0.1449148  )
       132           H   tau( 132) = (  -0.2483815   0.0344806  -0.2200741  )
       133           H   tau( 133) = (  -0.0361788  -0.1901155  -0.0447686  )
       134           H   tau( 134) = (   0.0151583  -0.1658991   0.0085667  )
       135           H   tau( 135) = (   0.2336366   0.2502528  -0.3301238  )
       136           H   tau( 136) = (   0.2730073   0.1885447  -0.3543014  )
       137           H   tau( 137) = (   0.1390600   0.3139918   0.2363925  )
       138           H   tau( 138) = (   0.1590719   0.3709074   0.2892469  )
       139           H   tau( 139) = (  -0.3058656   0.2281243  -0.1402376  )
       140           H   tau( 140) = (  -0.2310565   0.2337137  -0.1184047  )
       141           H   tau( 141) = (  -0.0449536   0.0307640  -0.1180527  )
       142           H   tau( 142) = (  -0.0184675   0.1017619  -0.1254731  )
       143           H   tau( 143) = (  -0.2289877  -0.1932057  -0.0856517  )
       144           H   tau( 144) = (  -0.2072982  -0.2332641  -0.0300349  )
       145           H   tau( 145) = (  -0.1847695   0.2968913   0.1231639  )
       146           H   tau( 146) = (  -0.1468454   0.3111504   0.1918295  )
       147           H   tau( 147) = (  -0.1496559   0.2007023   0.2057826  )
       148           H   tau( 148) = (  -0.1398514   0.1289228   0.2309865  )
       149           H   tau( 149) = (  -0.0942290  -0.1180362  -0.0639495  )
       150           H   tau( 150) = (  -0.1188778  -0.0611699  -0.0186359  )
       151           H   tau( 151) = (  -0.0877259  -0.1073853   0.2281519  )
       152           H   tau( 152) = (  -0.0474016  -0.1174631   0.2918846  )
       153           H   tau( 153) = (   0.0320736   0.1396314   0.2718367  )
       154           H   tau( 154) = (  -0.0311454   0.1161016   0.3105246  )
       155           H   tau( 155) = (  -0.2575045   0.1074280   0.1035044  )
       156           H   tau( 156) = (  -0.2094412   0.1602424   0.1093025  )
       157           H   tau( 157) = (   0.1840863   0.2672434  -0.0607023  )
       158           H   tau( 158) = (   0.2171702   0.2239273  -0.1140953  )
       159           H   tau( 159) = (   0.1210473  -0.2976315  -0.2261403  )
       160           H   tau( 160) = (   0.1017543  -0.2685813  -0.1580134  )
       161           H   tau( 161) = (  -0.1643302   0.2080516  -0.2033150  )
       162           H   tau( 162) = (  -0.1230620   0.2554707  -0.1526461  )
       163           H   tau( 163) = (   0.2204919   0.0389319   0.3733841  )
       164           H   tau( 164) = (   0.2081746   0.0567144   0.2992877  )
       165           H   tau( 165) = (  -0.0858854   0.0027606   0.0774771  )
       166           H   tau( 166) = (  -0.1279410   0.0433321   0.1294510  )
       167           H   tau( 167) = (   0.0362241  -0.0897795  -0.1547025  )
       168           H   tau( 168) = (   0.0181708  -0.0516185  -0.2217105  )
       169           H   tau( 169) = (  -0.0093569  -0.1892623  -0.2504835  )
       170           H   tau( 170) = (   0.0511199  -0.1567430  -0.2845798  )
       171           H   tau( 171) = (   0.3301107  -0.3074941   0.2495979  )
       172           H   tau( 172) = (   0.3005139  -0.2635748   0.1944282  )
       173           H   tau( 173) = (   0.2006648  -0.1929459   0.0519679  )
       174           H   tau( 174) = (   0.1547739  -0.1461941   0.0119279  )
       175           H   tau( 175) = (   0.2684832  -0.0575102   0.1089007  )
       176           H   tau( 176) = (   0.2660602  -0.0309772   0.1846421  )
       177           H   tau( 177) = (   0.0836145   0.2009809  -0.2637911  )
       178           H   tau( 178) = (   0.0732059   0.2334530  -0.1954590  )
       179           H   tau( 179) = (  -0.0729201  -0.3468968   0.0512534  )
       180           H   tau( 180) = (  -0.1253516  -0.3504544  -0.0002968  )
       181           H   tau( 181) = (  -0.2739829  -0.0871369  -0.2684817  )
       182           H   tau( 182) = (  -0.2288558  -0.1208694  -0.3229570  )
       183           H   tau( 183) = (  -0.1785271   0.0609599  -0.0177643  )
       184           H   tau( 184) = (  -0.2120358   0.1213235  -0.0318438  )
       185           H   tau( 185) = (   0.2428246   0.1851172  -0.2313114  )
       186           H   tau( 186) = (   0.2468100   0.1476426  -0.1590870  )
       187           H   tau( 187) = (   0.1305804  -0.0172463  -0.0730647  )
       188           H   tau( 188) = (   0.0651627  -0.0046054  -0.1114788  )
       189           H   tau( 189) = (  -0.2762458  -0.1553134   0.0600338  )
       190           H   tau( 190) = (  -0.2196010  -0.1215482   0.0957986  )
       191           H   tau( 191) = (   0.0618205   0.1737768   0.1154476  )
       192           H   tau( 192) = (   0.0807456   0.1679461   0.0386463  )

     number of k points=     1  Marzari-Vanderbilt smearing, width (Ry)=  0.0250
                       cart. coord. in units 2pi/alat
        k(    1) = (   0.0000000   0.0000000   0.0000000), wk =   2.0000000

     Dense  grid:   177509 G-vectors     FFT dimensions: (  72,  72,  72)

     Estimated max dynamical RAM per process >      67.80Mb

     Estimated total allocated dynamical RAM >    1898.40Mb

     Initial potential from superposition of free atoms
     Check: negative starting charge=   -0.754897

     starting charge  511.99856, renormalised to  512.00000

     negative rho (up, down):  7.549E-01 0.000E+00
     Starting wfc are  384 randomized atomic wfcs

     total cpu time spent up to now is        0.8 secs

     per-process dynamical memory:    45.9 Mb

     Self-consistent Calculation

     iteration #  1     ecut=    30.00 Ry     beta=0.70
     Davidson diagonalization with overlap
     ethr =  1.00E-02,  avg # of iterations =  8.0

     negative rho (up, down):  1.780E-01 0.000E+00

     total cpu time spent up to now is        9.0 secs

     total energy              =   -1794.72275761 Ry
     Harris-Foulkes estimate   =   -1822.24333627 Ry
     estimated scf accuracy    <      42.43759174 Ry

     iteration #  2     ecut=    30.00 Ry     beta=0.70
     Davidson diagonalization with overlap
     ethr =  8.29E-03,  avg # of iterations =  3.0

     negative rho (up, down):  1.145E-03 0.000E+00

     total cpu time spent up to now is       11.6 secs

     total energy              =   -1772.93470183 Ry
     Harris-Foulkes estimate   =   -1809.99050237 Ry
     estimated scf accuracy    <      87.55096340 Ry

     iteration #  3     ecut=    30.00 Ry     beta=0.70
     Davidson diagonalization with overlap
     ethr =  8.29E-03,  avg # of iterations =  5.0

     negative rho (up, down):  3.405E-06 0.000E+00

     total cpu time spent up to now is       15.4 secs

     total energy              =   -1797.04416518 Ry
     Harris-Foulkes estimate   =   -1810.58173979 Ry
     estimated scf accuracy    <      42.52746140 Ry

     iteration #  4     ecut=    30.00 Ry     beta=0.70
     Davidson diagonalization with overlap
     ethr =  8.29E-03,  avg # of iterations =  3.0

     total cpu time spent up to now is       17.2 secs

     total energy              =   -1802.70481793 Ry
     Harris-Foulkes estimate   =   -1805.03785167 Ry
     estimated scf accuracy    <       7.46776511 Ry

     iteration #  5     ecut=    30.00 Ry     beta=0.70
     Davidson diagonalization with overlap
     ethr =  1.46E-03,  avg # of iterations =  5.0

     total cpu time spent up to now is       19.7 secs

     total energy              =   -1802.49793613 Ry
     Harris-Foulkes estimate   =   -1803.14195405 Ry
     estimated scf accuracy    <       2.81078421 Ry

     iteration #  6     ecut=    30.00 Ry     beta=0.70
     Davidson diagonalization with overlap
     ethr =  5.49E-04,  avg # of iterations =  5.0

     total cpu time spent up to now is       22.2 secs

     total energy              =   -1802.48152023 Ry
     Harris-Foulkes estimate   =   -1802.60629683 Ry
     estimated scf accuracy    <       1.17379017 Ry

     iteration #  7     ecut=    30.00 Ry     beta=0.70
     Davidson diagonalization with overlap
     ethr =  2.29E-04,  avg # of iterations =  2.0

     total cpu time spent up to now is       23.7 secs

     total energy              =   -1802.28275221 Ry
     Harris-Foulkes estimate   =   -1802.52621883 Ry
     estimated scf accuracy    <       1.10163050 Ry

     iteration #  8     ecut=    30.00 Ry     beta=0.70
     Davidson diagonalization with overlap
     ethr =  2.15E-04,  avg # of iterations =  6.0

     total cpu time spent up to now is       26.4 secs

     total energy              =   -1802.30186926 Ry
     Harris-Foulkes estimate   =   -1802.37572421 Ry
     estimated scf accuracy    <       0.47833940 Ry

     iteration #  9     ecut=    30.00 Ry     beta=0.70
     Davidson diagonalization with overlap
     ethr =  9.34E-05,  avg # of iterations =  2.0

     total cpu time spent up to now is       27.8 secs

     total energy              =   -1802.31033615 Ry
     Harris-Foulkes estimate   =   -1802.35975063 Ry
     estimated scf accuracy    <       0.21562210 Ry

     iteration # 10     ecut=    30.00 Ry     beta=0.70
     Davidson diagonalization with overlap
     ethr =  4.21E-05,  avg # of iterations =  5.0

     total cpu time spent up to now is       30.2 secs

     total energy              =   -1802.31591274 Ry
     Harris-Foulkes estimate   =   -1802.32839186 Ry
     estimated scf accuracy    <       0.07829952 Ry

     iteration # 11     ecut=    30.00 Ry     beta=0.70
     Davidson diagonalization with overlap
     ethr =  1.53E-05,  avg # of iterations =  7.0

     total cpu time spent up to now is       33.3 secs

     total energy              =   -1802.31809717 Ry
     Harris-Foulkes estimate   =   -1802.32393989 Ry
     estimated scf accuracy    <       0.02442271 Ry

     iteration # 12     ecut=    30.00 Ry     beta=0.70
     Davidson diagonalization with overlap
     ethr =  4.77E-06,  avg # of iterations =  6.0

     total cpu time spent up to now is       36.1 secs

     total energy              =   -1802.31642761 Ry
     Harris-Foulkes estimate   =   -1802.32474929 Ry
     estimated scf accuracy    <       0.05494517 Ry

     iteration # 13     ecut=    30.00 Ry     beta=0.70
     Davidson diagonalization with overlap
     ethr =  4.77E-06,  avg # of iterations =  3.0

     total cpu time spent up to now is       37.8 secs

     total energy              =   -1802.32093340 Ry
     Harris-Foulkes estimate   =   -1802.32385981 Ry
     estimated scf accuracy    <       0.03945518 Ry

     iteration # 14     ecut=    30.00 Ry     beta=0.70
     Davidson diagonalization with overlap
     ethr =  4.77E-06,  avg # of iterations =  1.0

     total cpu time spent up to now is       39.0 secs

     total energy              =   -1802.32216048 Ry
     Harris-Foulkes estimate   =   -1802.32228750 Ry
     estimated scf accuracy    <       0.00074096 Ry

     iteration # 15     ecut=    30.00 Ry     beta=0.70
     Davidson diagonalization with overlap
     ethr =  1.45E-07,  avg # of iterations =  2.0

     total cpu time spent up to now is       40.4 secs

     total energy              =   -1802.32223284 Ry
     Harris-Foulkes estimate   =   -1802.32224865 Ry
     estimated scf accuracy    <       0.00016213 Ry

     iteration # 16     ecut=    30.00 Ry     beta=0.70
     Davidson diagonalization with overlap
     ethr =  3.17E-08,  avg # of iterations =  2.0

     total cpu time spent up to now is       41.8 secs

     total energy              =   -1802.32224451 Ry
     Harris-Foulkes estimate   =   -1802.32224514 Ry
     estimated scf accuracy    <       0.00001006 Ry

     iteration # 17     ecut=    30.00 Ry     beta=0.70
     Davidson diagonalization with overlap
     ethr =  1.96E-09,  avg # of iterations =  2.0

     total cpu time spent up to now is       43.3 secs

     total energy              =   -1802.32224585 Ry
     Harris-Foulkes estimate   =   -1802.32224607 Ry
     estimated scf accuracy    <       0.00000218 Ry

     iteration # 18     ecut=    30.00 Ry     beta=0.70
     Davidson diagonalization with overlap
     ethr =  4.25E-10,  avg # of iterations =  3.0

     total cpu time spent up to now is       45.1 secs

     total energy              =   -1802.32224639 Ry
     Harris-Foulkes estimate   =   -1802.32224628 Ry
     estimated scf accuracy    <       0.00000039 Ry

     iteration # 19     ecut=    30.00 Ry     beta=0.70
     Davidson diagonalization with overlap
     ethr =  7.69E-11,  avg # of iterations =  3.0

     total cpu time spent up to now is       46.9 secs

     total energy              =   -1802.32224648 Ry
     Harris-Foulkes estimate   =   -1802.32224647 Ry
     estimated scf accuracy    <       0.00000005 Ry

     iteration # 20     ecut=    30.00 Ry     beta=0.70
     Davidson diagonalization with overlap
     ethr =  9.70E-12,  avg # of iterations =  3.0

     total cpu time spent up to now is       49.1 secs

     total energy              =   -1802.32224649 Ry
     Harris-Foulkes estimate   =   -1802.32224651 Ry
     estimated scf accuracy    <       0.00000015 Ry

     iteration # 21     ecut=    30.00 Ry     beta=0.70
     Davidson diagonalization with overlap
     ethr =  9.70E-12,  avg # of iterations =  3.0

     total cpu time spent up to now is       51.0 secs

     total energy              =   -1802.32224651 Ry
     Harris-Foulkes estimate   =   -1802.32224651 Ry
     estimated scf accuracy    <       0.00000003 Ry

     iteration # 22     ecut=    30.00 Ry     beta=0.70
     Davidson diagonalization with overlap
     ethr =  5.04E-12,  avg # of iterations =  3.0

     total cpu time spent up to now is       52.7 secs

     End of self-consistent calculation

          k = 0.0000 0.0000 0.0000 ( 22119 PWs)   bands (ev):

   -41.5575 -40.2704 -39.5983 -39.2219 -38.3283 -37.5313 -37.2524 -36.5157
   -36.2959 -36.1178 -35.5653 -35.2659 -34.8136 -34.6649 -34.2699 -34.1064
   -33.7615 -33.4735 -33.0061 -32.5420 -32.2295 -32.1040 -31.9160 -31.8141
   -31.7062 -31.6324 -31.2991 -31.1041 -30.7996 -30.6234 -30.5293 -30.2702
   -30.1611 -29.7677 -29.6201 -29.4874 -29.2741 -29.0855 -28.9385 -28.7218
   -28.6892 -28.6622 -28.4351 -28.2578 -28.0094 -27.9359 -27.7518 -27.5902
   -27.4886 -27.4338 -27.3953 -27.3086 -27.2009 -26.9141 -26.7569 -26.6569
   -26.6140 -26.3372 -26.1973 -25.6122 -25.5258 -25.3592 -25.3231 -25.1726
   -22.1991 -22.1492 -21.9324 -21.5382 -21.2199 -20.9719 -20.4562 -20.0837
   -19.9393 -19.6722 -19.5911 -19.2782 -19.0671 -18.8380 -18.7707 -18.6325
   -18.5640 -18.3554 -17.8989 -17.6054 -17.4130 -17.2711 -17.1065 -16.9428
   -16.7091 -16.6284 -16.2521 -16.1496 -15.9357 -15.8914 -15.7480 -15.7404
   -15.5446 -15.3543 -15.1785 -15.0132 -14.8928 -14.7132 -14.5645 -14.4113
   -14.1995 -14.0708 -14.0086 -13.9329 -13.8280 -13.7318 -13.7003 -13.4594
   -13.3275 -13.2894 -13.1598 -12.9247 -12.7352 -12.6523 -12.6151 -12.5777
   -12.4482 -12.3113 -12.0923 -11.9863 -11.9183 -11.7215 -11.6227 -11.3685
   -11.3454 -10.9279 -10.7282 -10.0711  -9.7004  -9.4009  -9.2252  -9.0918
    -8.7237  -8.5712  -8.4831  -8.3191  -8.0488  -7.9472  -7.9044  -7.7560
    -7.4829  -7.3034  -7.0736  -6.8475  -6.7912  -6.7113  -6.6251  -6.5655
    -6.3582  -6.3553  -6.1973  -6.1066  -5.9956  -5.8559  -5.6163  -5.5758
    -5.4429  -5.3471  -5.1855  -5.0482  -4.9986  -4.9058  -4.8403  -4.7389
    -4.6876  -4.5850  -4.4921  -4.4048  -4.3819  -4.2027  -4.1720  -4.0788
    -4.0535  -3.9478  -3.7879  -3.5924  -3.5717  -3.4721  -3.3209  -3.2908
    -3.2120  -3.0948  -2.9452  -2.8336  -2.7006  -2.6326  -2.5160  -2.4166
    -2.3282  -2.2501  -2.0489  -2.0146  -1.9621  -1.8986  -1.8001  -1.7529
    -1.6682  -1.5813  -1.5440  -1.3762  -1.3096  -1.2162  -1.1120  -1.0515
    -0.9489  -0.8971  -0.7912  -0.7264  -0.5943  -0.4374  -0.3793  -0.3360
    -0.2699  -0.1404  -0.0825  -0.0549   0.0677   0.3178   0.4919   0.6094
     0.7573   0.9461   1.0120   1.0316   1.2446   1.3285   1.4615   1.5202
     1.7324   1.9061   2.0128   2.1751   2.2906   2.3172   2.5476   2.6475
     2.7642   2.9752   3.0942   3.4167   3.5152   3.8232   3.8708   3.9591
     4.2373   4.5200   4.7700   4.8183   5.0359   5.3379   5.4884   5.5904
     5.7130   6.3144   6.4329   6.5823   6.7751   7.0486   7.2899   7.4238
     7.5504   7.5923   7.8663   8.0201   8.1456   8.2973   8.5065   8.6697
     8.8667   8.8952   9.0737   9.5050   9.5867   9.7573   9.8091   9.9655
    10.0377  10.1621  10.3446  10.4459  10.5607  10.6874  10.7225  10.8333
    10.9243  11.0780  11.0942  11.1986  11.2685  11.3564  11.4234  11.5298
    11.5890  11.6186  11.7808  11.8478  11.9159  11.9901  12.0346  12.1077
    12.1690  12.2425  12.2721

     the Fermi energy is     5.7058 ev

!    total energy              =   -1802.32224652 Ry
     Harris-Foulkes estimate   =   -1802.32224651 Ry
     estimated scf accuracy    <          1.7E-09 Ry

     The total energy is the sum of the following terms:

     one-electron contribution =  -13930.92151257 Ry
     hartree contribution      =    7133.10742892 Ry
     xc contribution           =    -634.73425297 Ry
     ewald contribution        =    5630.22924073 Ry
     smearing contrib. (-TS)   =      -0.00315064 Ry

     convergence has been achieved in  22 iterations

     Writing output data file pwscf.save
 
     init_run     :      0.58s CPU      0.64s WALL (       1 calls)
     electrons    :     50.49s CPU     52.01s WALL (       1 calls)

     Called by init_run:
     wfcinit      :      0.49s CPU      0.53s WALL (       1 calls)
     potinit      :      0.02s CPU      0.03s WALL (       1 calls)

     Called by electrons:
     c_bands      :     48.25s CPU     49.50s WALL (      22 calls)
     sum_band     :      1.86s CPU      1.90s WALL (      22 calls)
     v_of_rho     :      0.19s CPU      0.20s WALL (      23 calls)
     mix_rho      :      0.15s CPU      0.26s WALL (      22 calls)

     Called by c_bands:
     init_us_2    :      0.06s CPU      0.06s WALL (      45 calls)
     cegterg      :     48.15s CPU     49.33s WALL (      22 calls)

     Called by sum_band:

     Called by *egterg:
     h_psi        :      8.55s CPU      8.69s WALL (     105 calls)
     g_psi        :      0.07s CPU      0.07s WALL (      82 calls)
     cdiaghg      :     30.25s CPU     30.28s WALL (     104 calls)

     Called by h_psi:
     h_psi:pot    :      8.33s CPU      8.47s WALL (     105 calls)
     h_psi:calbec :      0.31s CPU      0.32s WALL (     105 calls)
     vloc_psi     :      7.75s CPU      7.88s WALL (     105 calls)
     add_vuspsi   :      0.26s CPU      0.27s WALL (     105 calls)

     General routines
     calbec       :      0.31s CPU      0.32s WALL (     105 calls)
     fft          :      0.11s CPU      0.11s WALL (     252 calls)
     fftw         :      8.62s CPU      8.77s WALL (   37956 calls)
     davcio       :      0.02s CPU      0.14s WALL (     348 calls)
 
     Parallel routines
     fft_scatter  :      2.82s CPU      2.88s WALL (   38208 calls)
 
     PWSCF        :    51.25s CPU        53.08s WALL

 
   This run was terminated on:  18:21: 9   2Feb2018            

=------------------------------------------------------------------------------=
   JOB DONE.
=------------------------------------------------------------------------------=
