
     Program PWSCF v.6.0 (svn rev. 13079) starts on  2Feb2018 at 18:42: 9 

     This program is part of the open-source Quantum ESPRESSO suite
     for quantum simulation of materials; please cite
         "P. Giannozzi et al., J. Phys.:Condens. Matter 21 395502 (2009);
          URL http://www.quantum-espresso.org", 
     in publications or presentations arising from this work. More details at
     http://www.quantum-espresso.org/quote

     Parallel version (MPI), running on    28 processors
     R & G space division:  proc/nbgrp/npool/nimage =      28
     Reading input from input/scf-bigwater-1/843.in
Warning: card &IONS ignored
Warning: card     POT_EXTRAPOLATION='SECOND-ORDER' ignored
Warning: card     WFC_EXTRAPOLATION='SECOND-ORDER' ignored
Warning: card     ION_TEMPERATURE = 'ANDERSEN' ignored
Warning: card     TEMPW = 1000 ignored
Warning: card / ignored

     Current dimensions of program PWSCF are:
     Max number of different atomic species (ntypx) = 10
     Max number of k-points (npk) =  40000
     Max angular momentum in pseudopotentials (lmaxx) =  3

     Subspace diagonalization in iterative solution of the eigenvalue problem:
     a serial algorithm will be used

 
     Parallelization info
     --------------------
     sticks:   dense  smooth     PW     G-vecs:    dense   smooth      PW
     Min         136     136     33                 6338     6338     787
     Max         137     137     34                 6341     6341     792
     Sum        3809    3809    949               177509   177509   22119
 


     bravais-lattice index     =            1
     lattice parameter (alat)  =      20.0000  a.u.
     unit-cell volume          =    8000.0000 (a.u.)^3
     number of atoms/cell      =          192
     number of atomic types    =            2
     number of electrons       =       512.00
     number of Kohn-Sham states=          307
     kinetic-energy cutoff     =      30.0000  Ry
     charge density cutoff     =     120.0000  Ry
     convergence threshold     =      1.0E-08
     mixing beta               =       0.7000
     number of iterations used =            8  plain     mixing
     Exchange-correlation      = BLYP ( 1  3  1  3 0 0)

     celldm(1)=  20.000000  celldm(2)=   0.000000  celldm(3)=   0.000000
     celldm(4)=   0.000000  celldm(5)=   0.000000  celldm(6)=   0.000000

     crystal axes: (cart. coord. in units of alat)
               a(1) = (   1.000000   0.000000   0.000000 )  
               a(2) = (   0.000000   1.000000   0.000000 )  
               a(3) = (   0.000000   0.000000   1.000000 )  

     reciprocal axes: (cart. coord. in units 2 pi/alat)
               b(1) = (  1.000000  0.000000  0.000000 )  
               b(2) = (  0.000000  1.000000  0.000000 )  
               b(3) = (  0.000000  0.000000  1.000000 )  


     PseudoPot. # 1 for  H read from file:
     ./H.blyp-hgh.UPF
     MD5 check sum: c576e69559cde411e611be972c763230
     Pseudo is Norm-conserving, Zval =  1.0
     Generated in analytical, separable form
     Using radial grid of  929 points,  0 beta functions with: 

     PseudoPot. # 2 for  O read from file:
     ./O.blyp-hgh.UPF
     MD5 check sum: d0b7156309aa9befef28faac7bc56342
     Pseudo is Norm-conserving, Zval =  6.0
     Generated in analytical, separable form
     Using radial grid of 1095 points,  1 beta functions with: 
                l(1) =   0

     atomic species   valence    mass     pseudopotential
        H              1.00     1.01000      H( 1.00)
        O              6.00    16.00000      O( 1.00)

     No symmetry found



   Cartesian axes

     site n.     atom                  positions (alat units)
         1           O   tau(   1) = (  -0.2632791  -0.0736347  -0.0589703  )
         2           O   tau(   2) = (   0.1384387  -0.1335541   0.3072483  )
         3           O   tau(   3) = (  -0.2702895   0.3199206  -0.2677454  )
         4           O   tau(   4) = (   0.0537209   0.1645703  -0.0490654  )
         5           O   tau(   5) = (  -0.2532665   0.0716235   0.1721416  )
         6           O   tau(   6) = (  -0.0119302   0.3080628   0.2978315  )
         7           O   tau(   7) = (  -0.0512326  -0.2680852  -0.1253616  )
         8           O   tau(   8) = (   0.1438826   0.0547993   0.2233891  )
         9           O   tau(   9) = (  -0.1363843  -0.3170089   0.2875670  )
        10           O   tau(  10) = (   0.1150644  -0.1252164   0.1648606  )
        11           O   tau(  11) = (   0.1207599  -0.3243776   0.1295854  )
        12           O   tau(  12) = (  -0.1714027  -0.1827587   0.2103626  )
        13           O   tau(  13) = (  -0.2404002  -0.3465959   0.0337491  )
        14           O   tau(  14) = (  -0.1942994  -0.2473975  -0.1787267  )
        15           O   tau(  15) = (   0.1329167  -0.1781781  -0.1028976  )
        16           O   tau(  16) = (  -0.1044566   0.1412216  -0.0421412  )
        17           O   tau(  17) = (  -0.0740308  -0.1500136   0.1065042  )
        18           O   tau(  18) = (   0.0335667  -0.2369575   0.1735139  )
        19           O   tau(  19) = (   0.2335861  -0.2224398  -0.2400406  )
        20           O   tau(  20) = (   0.2641992   0.2365143   0.1098413  )
        21           O   tau(  21) = (   0.2582950  -0.1940794   0.1786859  )
        22           O   tau(  22) = (  -0.1272327  -0.1179879  -0.1645160  )
        23           O   tau(  23) = (  -0.0626318   0.1520304  -0.2242539  )
        24           O   tau(  24) = (   0.2119774   0.0902200   0.1118211  )
        25           O   tau(  25) = (   0.1443029   0.0591827  -0.1825281  )
        26           O   tau(  26) = (  -0.2228961   0.1480981  -0.2739802  )
        27           O   tau(  27) = (   0.2541750  -0.2871300  -0.0226314  )
        28           O   tau(  28) = (   0.0513714  -0.0121289  -0.2881070  )
        29           O   tau(  29) = (  -0.1029712   0.0323637  -0.2547828  )
        30           O   tau(  30) = (   0.0506714  -0.0482006   0.0819141  )
        31           O   tau(  31) = (   0.2855305  -0.1043538  -0.1986169  )
        32           O   tau(  32) = (   0.2198468  -0.0087963  -0.0545165  )
        33           O   tau(  33) = (   0.0228863   0.2131188   0.2016474  )
        34           O   tau(  34) = (  -0.2246281   0.0335821  -0.1748289  )
        35           O   tau(  35) = (   0.0083530  -0.1892285  -0.0354497  )
        36           O   tau(  36) = (   0.2538658   0.2089736  -0.3198610  )
        37           O   tau(  37) = (   0.1549005   0.3245169   0.2858115  )
        38           O   tau(  38) = (  -0.2714262   0.2611309  -0.1247648  )
        39           O   tau(  39) = (  -0.0017506   0.0543851  -0.1278085  )
        40           O   tau(  40) = (  -0.1929560  -0.1934817  -0.0526520  )
        41           O   tau(  41) = (  -0.1490302   0.2809874   0.1539008  )
        42           O   tau(  42) = (  -0.1182845   0.1678257   0.2119508  )
        43           O   tau(  43) = (  -0.0824776  -0.0943720  -0.0233213  )
        44           O   tau(  44) = (  -0.0694519  -0.0810978   0.2649598  )
        45           O   tau(  45) = (   0.0132812   0.0975290   0.2937436  )
        46           O   tau(  46) = (  -0.2428756   0.1454513   0.0780975  )
        47           O   tau(  47) = (   0.1778264   0.2287808  -0.0886782  )
        48           O   tau(  48) = (   0.0787543  -0.2869331  -0.1983142  )
        49           O   tau(  49) = (  -0.1578756   0.2211460  -0.1562854  )
        50           O   tau(  50) = (   0.2464936   0.0422277   0.3299125  )
        51           O   tau(  51) = (  -0.0839982   0.0436376   0.1040711  )
        52           O   tau(  52) = (   0.0015166  -0.0865884  -0.1892288  )
        53           O   tau(  53) = (   0.0109152  -0.1828025  -0.2956800  )
        54           O   tau(  54) = (   0.3368968  -0.3018823   0.1987840  )
        55           O   tau(  55) = (   0.1837830  -0.1455172   0.0547393  )
        56           O   tau(  56) = (   0.2954930  -0.0453648   0.1480894  )
        57           O   tau(  57) = (   0.0755408   0.1880944  -0.2161283  )
        58           O   tau(  58) = (  -0.0773024  -0.3483497   0.0061635  )
        59           O   tau(  59) = (  -0.2558301  -0.0808766  -0.3182504  )
        60           O   tau(  60) = (  -0.2150734   0.0762058  -0.0443561  )
        61           O   tau(  61) = (   0.2663702   0.1839810  -0.1883450  )
        62           O   tau(  62) = (   0.0827214  -0.0340813  -0.0770051  )
        63           O   tau(  63) = (  -0.2356980  -0.1696149   0.0903161  )
        64           O   tau(  64) = (   0.0882335   0.1487505   0.0870798  )
        65           H   tau(  65) = (  -0.2317010  -0.1069457  -0.0409909  )
        66           H   tau(  66) = (  -0.2422047  -0.0338153  -0.0783515  )
        67           H   tau(  67) = (   0.1351584  -0.0847340   0.3065181  )
        68           H   tau(  68) = (   0.1286279  -0.1400173   0.2586331  )
        69           H   tau(  69) = (  -0.2955388   0.2900316  -0.2389365  )
        70           H   tau(  70) = (  -0.2459542   0.3501570  -0.2355589  )
        71           H   tau(  71) = (   0.0677217   0.1175596  -0.0524704  )
        72           H   tau(  72) = (   0.0937098   0.1901919  -0.0631710  )
        73           H   tau(  73) = (  -0.2710186   0.0312443   0.1509854  )
        74           H   tau(  74) = (  -0.2300094   0.0550713   0.2120651  )
        75           H   tau(  75) = (  -0.0097027   0.3514281   0.2746917  )
        76           H   tau(  76) = (   0.0049733   0.3255306   0.3407360  )
        77           H   tau(  77) = (  -0.0401900  -0.3036726  -0.0928884  )
        78           H   tau(  78) = (  -0.0069880  -0.2642253  -0.1463860  )
        79           H   tau(  79) = (   0.1627045   0.0803063   0.1853765  )
        80           H   tau(  80) = (   0.1003186   0.0721873   0.2360515  )
        81           H   tau(  81) = (  -0.1684527  -0.3525954   0.2931818  )
        82           H   tau(  82) = (  -0.0957555  -0.3321849   0.3111235  )
        83           H   tau(  83) = (   0.0910225  -0.0823388   0.1559220  )
        84           H   tau(  84) = (   0.1479825  -0.1269271   0.1275087  )
        85           H   tau(  85) = (   0.0879272  -0.3606610   0.1341781  )
        86           H   tau(  86) = (   0.0906875  -0.2838961   0.1326207  )
        87           H   tau(  87) = (  -0.1637145  -0.2110571   0.2503722  )
        88           H   tau(  88) = (  -0.1978995  -0.2058150   0.1765498  )
        89           H   tau(  89) = (  -0.2599738  -0.3922009   0.0365043  )
        90           H   tau(  90) = (  -0.2309599  -0.3466469  -0.0140585  )
        91           H   tau(  91) = (  -0.1666198  -0.2071125  -0.1829639  )
        92           H   tau(  92) = (  -0.1566250  -0.2780741  -0.1742106  )
        93           H   tau(  93) = (   0.1501616  -0.1351803  -0.1194638  )
        94           H   tau(  94) = (   0.0902015  -0.1704935  -0.0797161  )
        95           H   tau(  95) = (  -0.1105158   0.1561350  -0.0894816  )
        96           H   tau(  96) = (  -0.0598739   0.1629585  -0.0313992  )
        97           H   tau(  97) = (  -0.1020347  -0.1469180   0.0673568  )
        98           H   tau(  98) = (  -0.0345679  -0.1224613   0.0962961  )
        99           H   tau(  99) = (   0.0611429  -0.1965378   0.1820046  )
       100           H   tau( 100) = (  -0.0097525  -0.2170915   0.1597841  )
       101           H   tau( 101) = (   0.2635562  -0.2597531  -0.2529398  )
       102           H   tau( 102) = (   0.2170954  -0.1880785  -0.2705919  )
       103           H   tau( 103) = (   0.2163421   0.2457948   0.1119307  )
       104           H   tau( 104) = (   0.2851334   0.2685249   0.1407175  )
       105           H   tau( 105) = (   0.3015662  -0.1745836   0.1660894  )
       106           H   tau( 106) = (   0.2379884  -0.1657576   0.2126346  )
       107           H   tau( 107) = (  -0.0799921  -0.1032101  -0.1725996  )
       108           H   tau( 108) = (  -0.1505732  -0.0925116  -0.1990195  )
       109           H   tau( 109) = (  -0.0144986   0.1600960  -0.2339758  )
       110           H   tau( 110) = (  -0.0648657   0.1040051  -0.2160938  )
       111           H   tau( 111) = (   0.2166081   0.1383167   0.1035005  )
       112           H   tau( 112) = (   0.1676422   0.0814106   0.0931394  )
       113           H   tau( 113) = (   0.1034579   0.0384007  -0.2002925  )
       114           H   tau( 114) = (   0.1310060   0.1070276  -0.1810277  )
       115           H   tau( 115) = (  -0.2568788   0.1337120  -0.3059159  )
       116           H   tau( 116) = (  -0.2226832   0.1105540  -0.2426783  )
       117           H   tau( 117) = (   0.2595090  -0.3130762   0.0187052  )
       118           H   tau( 118) = (   0.2988281  -0.2892558  -0.0424582  )
       119           H   tau( 119) = (   0.0387830  -0.0295977  -0.3326279  )
       120           H   tau( 120) = (   0.0289848   0.0322875  -0.2930913  )
       121           H   tau( 121) = (  -0.1014473   0.0076674  -0.2969520  )
       122           H   tau( 122) = (  -0.1303101   0.0046374  -0.2256739  )
       123           H   tau( 123) = (   0.0468505   0.0010169   0.0811490  )
       124           H   tau( 124) = (   0.0777338  -0.0545197   0.0417208  )
       125           H   tau( 125) = (   0.2628875  -0.1488225  -0.1982300  )
       126           H   tau( 126) = (   0.2808879  -0.0788551  -0.1573470  )
       127           H   tau( 127) = (   0.2412097   0.0328961  -0.0377593  )
       128           H   tau( 128) = (   0.2546943  -0.0427412  -0.0411687  )
       129           H   tau( 129) = (   0.0346754   0.2484418   0.2337105  )
       130           H   tau( 130) = (  -0.0165879   0.2326720   0.1832620  )
       131           H   tau( 131) = (  -0.2427166   0.0728865  -0.1513082  )
       132           H   tau( 132) = (  -0.2443687   0.0263004  -0.2189750  )
       133           H   tau( 133) = (  -0.0399144  -0.1938014  -0.0416524  )
       134           H   tau( 134) = (   0.0110724  -0.1699602   0.0093629  )
       135           H   tau( 135) = (   0.2384953   0.2519809  -0.3369756  )
       136           H   tau( 136) = (   0.2775791   0.1835208  -0.3537475  )
       137           H   tau( 137) = (   0.1437273   0.3204099   0.2375392  )
       138           H   tau( 138) = (   0.1600364   0.3728768   0.2872946  )
       139           H   tau( 139) = (  -0.3123469   0.2417144  -0.1450258  )
       140           H   tau( 140) = (  -0.2318329   0.2306620  -0.1240292  )
       141           H   tau( 141) = (  -0.0447337   0.0327846  -0.1250706  )
       142           H   tau( 142) = (  -0.0127403   0.1014833  -0.1191480  )
       143           H   tau( 143) = (  -0.2262198  -0.1920926  -0.0889935  )
       144           H   tau( 144) = (  -0.2057525  -0.2397849  -0.0394560  )
       145           H   tau( 145) = (  -0.1825564   0.2915713   0.1188357  )
       146           H   tau( 146) = (  -0.1552077   0.3122717   0.1917910  )
       147           H   tau( 147) = (  -0.1505771   0.2037227   0.2006800  )
       148           H   tau( 148) = (  -0.1449529   0.1289288   0.2230553  )
       149           H   tau( 149) = (  -0.0920744  -0.1145545  -0.0673528  )
       150           H   tau( 150) = (  -0.1135950  -0.0567340  -0.0232923  )
       151           H   tau( 151) = (  -0.0872993  -0.1090059   0.2285098  )
       152           H   tau( 152) = (  -0.0556782  -0.1130785   0.2999864  )
       153           H   tau( 153) = (   0.0365180   0.1342156   0.2728855  )
       154           H   tau( 154) = (  -0.0328732   0.1100905   0.3072322  )
       155           H   tau( 155) = (  -0.2597230   0.1071076   0.1031545  )
       156           H   tau( 156) = (  -0.2016770   0.1551606   0.1033752  )
       157           H   tau( 157) = (   0.1862397   0.2733967  -0.0679964  )
       158           H   tau( 158) = (   0.2165675   0.2311128  -0.1192785  )
       159           H   tau( 159) = (   0.1198467  -0.2926570  -0.2243234  )
       160           H   tau( 160) = (   0.0991422  -0.2676109  -0.1578195  )
       161           H   tau( 161) = (  -0.1564685   0.2067966  -0.2037088  )
       162           H   tau( 162) = (  -0.1160008   0.2471868  -0.1573666  )
       163           H   tau( 163) = (   0.2243640   0.0368766   0.3733691  )
       164           H   tau( 164) = (   0.2112433   0.0591284   0.3001146  )
       165           H   tau( 165) = (  -0.0844861  -0.0033298   0.0867610  )
       166           H   tau( 166) = (  -0.1249654   0.0439821   0.1319201  )
       167           H   tau( 167) = (   0.0345215  -0.0931295  -0.1533492  )
       168           H   tau( 168) = (   0.0155464  -0.0449643  -0.2119439  )
       169           H   tau( 169) = (  -0.0064146  -0.1743014  -0.2499405  )
       170           H   tau( 170) = (   0.0510521  -0.1546463  -0.2900918  )
       171           H   tau( 171) = (   0.3286209  -0.3006662   0.2472048  )
       172           H   tau( 172) = (   0.3123736  -0.2597590   0.1883515  )
       173           H   tau( 173) = (   0.1999630  -0.1915260   0.0492071  )
       174           H   tau( 174) = (   0.1542191  -0.1466428   0.0158607  )
       175           H   tau( 175) = (   0.2706532  -0.0559677   0.1070039  )
       176           H   tau( 176) = (   0.2619711  -0.0430359   0.1841859  )
       177           H   tau( 177) = (   0.0842916   0.1963262  -0.2629615  )
       178           H   tau( 178) = (   0.0794165   0.2301746  -0.1920993  )
       179           H   tau( 179) = (  -0.0794534  -0.3503541   0.0550210  )
       180           H   tau( 180) = (  -0.1237701  -0.3570451  -0.0066077  )
       181           H   tau( 181) = (  -0.2739409  -0.0894907  -0.2726427  )
       182           H   tau( 182) = (  -0.2321425  -0.1218363  -0.3299807  )
       183           H   tau( 183) = (  -0.1762560   0.0616182  -0.0184653  )
       184           H   tau( 184) = (  -0.2119542   0.1233106  -0.0306743  )
       185           H   tau( 185) = (   0.2509430   0.1914052  -0.2351638  )
       186           H   tau( 186) = (   0.2435592   0.1468482  -0.1655579  )
       187           H   tau( 187) = (   0.1290272  -0.0155642  -0.0739886  )
       188           H   tau( 188) = (   0.0602603  -0.0068368  -0.1111339  )
       189           H   tau( 189) = (  -0.2816168  -0.1647738   0.0733831  )
       190           H   tau( 190) = (  -0.2234206  -0.1237585   0.1012280  )
       191           H   tau( 191) = (   0.0590920   0.1735896   0.1171359  )
       192           H   tau( 192) = (   0.0747975   0.1643001   0.0425162  )

     number of k points=     1  Marzari-Vanderbilt smearing, width (Ry)=  0.0250
                       cart. coord. in units 2pi/alat
        k(    1) = (   0.0000000   0.0000000   0.0000000), wk =   2.0000000

     Dense  grid:   177509 G-vectors     FFT dimensions: (  72,  72,  72)

     Estimated max dynamical RAM per process >      67.80Mb

     Estimated total allocated dynamical RAM >    1898.40Mb

     Initial potential from superposition of free atoms
     Check: negative starting charge=   -0.760027

     starting charge  511.99856, renormalised to  512.00000

     negative rho (up, down):  7.600E-01 0.000E+00
     Starting wfc are  384 randomized atomic wfcs

     total cpu time spent up to now is        0.8 secs

     per-process dynamical memory:    45.9 Mb

     Self-consistent Calculation

     iteration #  1     ecut=    30.00 Ry     beta=0.70
     Davidson diagonalization with overlap
     ethr =  1.00E-02,  avg # of iterations =  8.0

     negative rho (up, down):  1.809E-01 0.000E+00

     total cpu time spent up to now is        9.0 secs

     total energy              =   -1795.03602720 Ry
     Harris-Foulkes estimate   =   -1822.55033171 Ry
     estimated scf accuracy    <      42.34114265 Ry

     iteration #  2     ecut=    30.00 Ry     beta=0.70
     Davidson diagonalization with overlap
     ethr =  8.27E-03,  avg # of iterations =  4.0

     negative rho (up, down):  1.986E-03 0.000E+00

     total cpu time spent up to now is       12.2 secs

     total energy              =   -1775.66872152 Ry
     Harris-Foulkes estimate   =   -1809.59819776 Ry
     estimated scf accuracy    <      76.64774233 Ry

     iteration #  3     ecut=    30.00 Ry     beta=0.70
     Davidson diagonalization with overlap
     ethr =  8.27E-03,  avg # of iterations =  5.0

     negative rho (up, down):  7.625E-06 0.000E+00

     total cpu time spent up to now is       16.0 secs

     total energy              =   -1796.61903277 Ry
     Harris-Foulkes estimate   =   -1810.95645680 Ry
     estimated scf accuracy    <      45.02971477 Ry

     iteration #  4     ecut=    30.00 Ry     beta=0.70
     Davidson diagonalization with overlap
     ethr =  8.27E-03,  avg # of iterations =  3.0

     total cpu time spent up to now is       17.8 secs

     total energy              =   -1802.80792346 Ry
     Harris-Foulkes estimate   =   -1805.21639135 Ry
     estimated scf accuracy    <       7.33828113 Ry

     iteration #  5     ecut=    30.00 Ry     beta=0.70
     Davidson diagonalization with overlap
     ethr =  1.43E-03,  avg # of iterations =  5.0

     total cpu time spent up to now is       20.4 secs

     total energy              =   -1802.79107751 Ry
     Harris-Foulkes estimate   =   -1803.30615699 Ry
     estimated scf accuracy    <       2.52435175 Ry

     iteration #  6     ecut=    30.00 Ry     beta=0.70
     Davidson diagonalization with overlap
     ethr =  4.93E-04,  avg # of iterations =  4.0

     total cpu time spent up to now is       22.5 secs

     total energy              =   -1802.57646390 Ry
     Harris-Foulkes estimate   =   -1802.96055117 Ry
     estimated scf accuracy    <       1.76889465 Ry

     iteration #  7     ecut=    30.00 Ry     beta=0.70
     Davidson diagonalization with overlap
     ethr =  3.45E-04,  avg # of iterations =  9.0

     total cpu time spent up to now is       26.1 secs

     total energy              =   -1802.49828083 Ry
     Harris-Foulkes estimate   =   -1802.64111688 Ry
     estimated scf accuracy    <       0.63887645 Ry

     iteration #  8     ecut=    30.00 Ry     beta=0.70
     Davidson diagonalization with overlap
     ethr =  1.25E-04,  avg # of iterations =  4.0

     total cpu time spent up to now is       28.2 secs

     total energy              =   -1802.45480691 Ry
     Harris-Foulkes estimate   =   -1802.53855114 Ry
     estimated scf accuracy    <       0.33260373 Ry

     iteration #  9     ecut=    30.00 Ry     beta=0.70
     Davidson diagonalization with overlap
     ethr =  6.50E-05,  avg # of iterations =  5.0

     total cpu time spent up to now is       30.6 secs

     total energy              =   -1802.47377676 Ry
     Harris-Foulkes estimate   =   -1802.50664105 Ry
     estimated scf accuracy    <       0.19244888 Ry

     iteration # 10     ecut=    30.00 Ry     beta=0.70
     Davidson diagonalization with overlap
     ethr =  3.76E-05,  avg # of iterations =  2.0

     total cpu time spent up to now is       32.1 secs

     total energy              =   -1802.47425379 Ry
     Harris-Foulkes estimate   =   -1802.50169756 Ry
     estimated scf accuracy    <       0.16213379 Ry

     iteration # 11     ecut=    30.00 Ry     beta=0.70
     Davidson diagonalization with overlap
     ethr =  3.17E-05,  avg # of iterations =  2.0

     total cpu time spent up to now is       33.5 secs

     total energy              =   -1802.47846162 Ry
     Harris-Foulkes estimate   =   -1802.49143065 Ry
     estimated scf accuracy    <       0.05368669 Ry

     iteration # 12     ecut=    30.00 Ry     beta=0.70
     Davidson diagonalization with overlap
     ethr =  1.05E-05,  avg # of iterations = 10.0

     total cpu time spent up to now is       37.5 secs

     total energy              =   -1802.47999398 Ry
     Harris-Foulkes estimate   =   -1802.49155458 Ry
     estimated scf accuracy    <       0.06225253 Ry

     iteration # 13     ecut=    30.00 Ry     beta=0.70
     Davidson diagonalization with overlap
     ethr =  1.05E-05,  avg # of iterations =  2.0

     total cpu time spent up to now is       38.9 secs

     total energy              =   -1802.48541253 Ry
     Harris-Foulkes estimate   =   -1802.48974872 Ry
     estimated scf accuracy    <       0.03615289 Ry

     iteration # 14     ecut=    30.00 Ry     beta=0.70
     Davidson diagonalization with overlap
     ethr =  7.06E-06,  avg # of iterations =  1.0

     total cpu time spent up to now is       40.0 secs

     total energy              =   -1802.48721427 Ry
     Harris-Foulkes estimate   =   -1802.48748282 Ry
     estimated scf accuracy    <       0.00115025 Ry

     iteration # 15     ecut=    30.00 Ry     beta=0.70
     Davidson diagonalization with overlap
     ethr =  2.25E-07,  avg # of iterations =  2.0

     total cpu time spent up to now is       41.5 secs

     total energy              =   -1802.48733649 Ry
     Harris-Foulkes estimate   =   -1802.48748481 Ry
     estimated scf accuracy    <       0.00085898 Ry

     iteration # 16     ecut=    30.00 Ry     beta=0.70
     Davidson diagonalization with overlap
     ethr =  1.68E-07,  avg # of iterations =  2.0

     total cpu time spent up to now is       42.9 secs

     total energy              =   -1802.48741469 Ry
     Harris-Foulkes estimate   =   -1802.48742437 Ry
     estimated scf accuracy    <       0.00006293 Ry

     iteration # 17     ecut=    30.00 Ry     beta=0.70
     Davidson diagonalization with overlap
     ethr =  1.23E-08,  avg # of iterations =  2.0

     total cpu time spent up to now is       44.4 secs

     total energy              =   -1802.48742218 Ry
     Harris-Foulkes estimate   =   -1802.48742408 Ry
     estimated scf accuracy    <       0.00000934 Ry

     iteration # 18     ecut=    30.00 Ry     beta=0.70
     Davidson diagonalization with overlap
     ethr =  1.82E-09,  avg # of iterations =  2.0

     total cpu time spent up to now is       46.0 secs

     total energy              =   -1802.48742316 Ry
     Harris-Foulkes estimate   =   -1802.48742482 Ry
     estimated scf accuracy    <       0.00000821 Ry

     iteration # 19     ecut=    30.00 Ry     beta=0.70
     Davidson diagonalization with overlap
     ethr =  1.60E-09,  avg # of iterations =  2.0

     total cpu time spent up to now is       47.5 secs

     total energy              =   -1802.48742432 Ry
     Harris-Foulkes estimate   =   -1802.48742427 Ry
     estimated scf accuracy    <       0.00000065 Ry

     iteration # 20     ecut=    30.00 Ry     beta=0.70
     Davidson diagonalization with overlap
     ethr =  1.26E-10,  avg # of iterations =  3.0

     total cpu time spent up to now is       49.4 secs

     total energy              =   -1802.48742448 Ry
     Harris-Foulkes estimate   =   -1802.48742447 Ry
     estimated scf accuracy    <       0.00000014 Ry

     iteration # 21     ecut=    30.00 Ry     beta=0.70
     Davidson diagonalization with overlap
     ethr =  2.76E-11,  avg # of iterations =  3.0

     total cpu time spent up to now is       51.2 secs

     total energy              =   -1802.48742450 Ry
     Harris-Foulkes estimate   =   -1802.48742451 Ry
     estimated scf accuracy    <       0.00000008 Ry

     iteration # 22     ecut=    30.00 Ry     beta=0.70
     Davidson diagonalization with overlap
     ethr =  1.47E-11,  avg # of iterations =  2.0

     total cpu time spent up to now is       52.6 secs

     total energy              =   -1802.48742450 Ry
     Harris-Foulkes estimate   =   -1802.48742452 Ry
     estimated scf accuracy    <       0.00000006 Ry

     iteration # 23     ecut=    30.00 Ry     beta=0.70
     Davidson diagonalization with overlap
     ethr =  1.12E-11,  avg # of iterations =  2.0

     total cpu time spent up to now is       54.0 secs

     total energy              =   -1802.48742451 Ry
     Harris-Foulkes estimate   =   -1802.48742451 Ry
     estimated scf accuracy    <       0.00000001 Ry

     iteration # 24     ecut=    30.00 Ry     beta=0.70
     Davidson diagonalization with overlap
     ethr =  2.13E-12,  avg # of iterations =  2.0

     total cpu time spent up to now is       55.5 secs

     End of self-consistent calculation

          k = 0.0000 0.0000 0.0000 ( 22119 PWs)   bands (ev):

   -41.9409 -40.1643 -39.4523 -39.1104 -38.7332 -37.4513 -37.0732 -36.5289
   -35.9882 -35.8949 -35.4313 -35.0185 -34.6184 -34.3685 -34.3525 -33.9355
   -33.7242 -33.3528 -33.0051 -32.6615 -32.3920 -32.2664 -32.0822 -32.0026
   -31.8249 -31.6013 -31.3273 -31.0881 -30.8988 -30.6111 -30.4929 -30.3304
   -30.0461 -29.7649 -29.6529 -29.4069 -29.3019 -29.0545 -29.0111 -28.8356
   -28.7526 -28.6080 -28.3639 -28.2306 -28.0306 -27.9455 -27.8190 -27.7426
   -27.5471 -27.3769 -27.3123 -27.2954 -27.1226 -27.0240 -26.8892 -26.7885
   -26.6900 -26.4078 -26.2382 -25.4654 -25.2351 -25.0171 -24.8334 -24.5367
   -21.9710 -21.7741 -21.6382 -21.1699 -20.7496 -20.4820 -20.3809 -20.2494
   -20.0802 -19.7675 -19.5081 -19.0693 -18.7858 -18.7778 -18.5762 -18.5275
   -18.3566 -18.1564 -18.0163 -17.5241 -17.4496 -17.2947 -17.1480 -16.9196
   -16.8724 -16.6672 -16.5620 -16.4492 -16.3122 -16.0247 -15.8773 -15.5151
   -15.1696 -15.0449 -14.9751 -14.9076 -14.7842 -14.6121 -14.4667 -14.3065
   -14.2482 -14.1173 -14.0732 -13.8260 -13.7561 -13.4546 -13.4089 -13.3484
   -13.1048 -12.9192 -12.7781 -12.7368 -12.6242 -12.5267 -12.4853 -12.2527
   -12.1756 -12.1090 -12.0520 -11.9403 -11.8437 -11.7682 -11.7082 -11.6263
   -11.2539 -11.1335 -10.8590 -10.2028  -9.6640  -9.5344  -9.0931  -8.8734
    -8.8479  -8.5434  -8.3000  -8.1840  -8.1075  -7.9852  -7.7727  -7.5222
    -7.4473  -7.2793  -7.0466  -6.9010  -6.7532  -6.6594  -6.5688  -6.5404
    -6.3127  -6.2946  -6.1513  -6.0756  -5.9966  -5.9046  -5.6451  -5.5610
    -5.4542  -5.3827  -5.2791  -5.1550  -5.0381  -4.9613  -4.8480  -4.8068
    -4.7307  -4.5712  -4.4719  -4.4433  -4.2416  -4.2139  -4.1344  -3.9807
    -3.8699  -3.8308  -3.7527  -3.5974  -3.5406  -3.5175  -3.4008  -3.2916
    -3.1015  -2.9261  -2.8103  -2.7431  -2.6240  -2.6130  -2.4701  -2.3729
    -2.3083  -2.1957  -2.1810  -2.0893  -1.9149  -1.8592  -1.8343  -1.7220
    -1.6321  -1.5111  -1.2834  -1.2708  -1.2237  -1.1642  -1.0897  -1.0051
    -0.9087  -0.7495  -0.6315  -0.6021  -0.5455  -0.4825  -0.3935  -0.2672
    -0.1929  -0.1245   0.0124   0.1503   0.2780   0.3988   0.5295   0.5973
     0.7059   0.9669   1.0520   1.1863   1.3157   1.4891   1.6262   1.6820
     1.8823   2.1037   2.1688   2.4083   2.4534   2.4902   2.6073   2.8466
     2.9380   3.0632   3.2123   3.4269   3.4850   3.7010   3.7321   3.8753
     3.9545   4.0776   4.7087   4.7921   5.1400   5.2677   5.4687   5.5605
     5.6683   6.3408   6.4400   6.5844   6.8388   7.0661   7.2844   7.4957
     7.5535   7.6070   7.8545   8.0315   8.1575   8.2677   8.5722   8.6839
     8.8538   8.9140   9.0420   9.5301   9.6013   9.7702   9.7784  10.0251
    10.1101  10.1667  10.3126  10.4474  10.5816  10.6720  10.7286  10.8369
    10.9174  11.0762  11.1009  11.1924  11.2301  11.3493  11.4164  11.5174
    11.5623  11.5686  11.8196  11.8833  11.9414  11.9747  12.0242  12.1426
    12.1789  12.2403  12.2738

     the Fermi energy is     5.6656 ev

!    total energy              =   -1802.48742449 Ry
     Harris-Foulkes estimate   =   -1802.48742451 Ry
     estimated scf accuracy    <          6.3E-09 Ry

     The total energy is the sum of the following terms:

     one-electron contribution =  -13869.12353857 Ry
     hartree contribution      =    7103.10306225 Ry
     xc contribution           =    -634.71476532 Ry
     ewald contribution        =    5598.24831972 Ry
     smearing contrib. (-TS)   =      -0.00050258 Ry

     convergence has been achieved in  24 iterations

     Writing output data file pwscf.save
 
     init_run     :      0.59s CPU      0.65s WALL (       1 calls)
     electrons    :     53.04s CPU     54.78s WALL (       1 calls)

     Called by init_run:
     wfcinit      :      0.50s CPU      0.54s WALL (       1 calls)
     potinit      :      0.02s CPU      0.02s WALL (       1 calls)

     Called by electrons:
     c_bands      :     50.62s CPU     51.96s WALL (      24 calls)
     sum_band     :      2.04s CPU      2.10s WALL (      24 calls)
     v_of_rho     :      0.20s CPU      0.21s WALL (      25 calls)
     mix_rho      :      0.14s CPU      0.28s WALL (      24 calls)

     Called by c_bands:
     init_us_2    :      0.06s CPU      0.07s WALL (      49 calls)
     cegterg      :     50.54s CPU     51.79s WALL (      24 calls)

     Called by sum_band:

     Called by *egterg:
     h_psi        :      9.15s CPU      9.33s WALL (     111 calls)
     g_psi        :      0.08s CPU      0.08s WALL (      86 calls)
     cdiaghg      :     31.38s CPU     31.42s WALL (     110 calls)

     Called by h_psi:
     h_psi:pot    :      8.93s CPU      9.11s WALL (     111 calls)
     h_psi:calbec :      0.34s CPU      0.34s WALL (     111 calls)
     vloc_psi     :      8.31s CPU      8.48s WALL (     111 calls)
     add_vuspsi   :      0.28s CPU      0.29s WALL (     111 calls)

     General routines
     calbec       :      0.34s CPU      0.34s WALL (     111 calls)
     fft          :      0.11s CPU      0.12s WALL (     274 calls)
     fftw         :      9.26s CPU      9.46s WALL (   40862 calls)
     davcio       :      0.02s CPU      0.14s WALL (     388 calls)
 
     Parallel routines
     fft_scatter  :      3.36s CPU      3.45s WALL (   41136 calls)
 
     PWSCF        :    53.82s CPU        55.83s WALL

 
   This run was terminated on:  18:43: 5   2Feb2018            

=------------------------------------------------------------------------------=
   JOB DONE.
=------------------------------------------------------------------------------=
