
     Program PWSCF v.6.0 (svn rev. 13079) starts on  2Feb2018 at 18:45:56 

     This program is part of the open-source Quantum ESPRESSO suite
     for quantum simulation of materials; please cite
         "P. Giannozzi et al., J. Phys.:Condens. Matter 21 395502 (2009);
          URL http://www.quantum-espresso.org", 
     in publications or presentations arising from this work. More details at
     http://www.quantum-espresso.org/quote

     Parallel version (MPI), running on    28 processors
     R & G space division:  proc/nbgrp/npool/nimage =      28
     Reading input from input/scf-bigwater-1/847.in
Warning: card &IONS ignored
Warning: card     POT_EXTRAPOLATION='SECOND-ORDER' ignored
Warning: card     WFC_EXTRAPOLATION='SECOND-ORDER' ignored
Warning: card     ION_TEMPERATURE = 'ANDERSEN' ignored
Warning: card     TEMPW = 1000 ignored
Warning: card / ignored

     Current dimensions of program PWSCF are:
     Max number of different atomic species (ntypx) = 10
     Max number of k-points (npk) =  40000
     Max angular momentum in pseudopotentials (lmaxx) =  3

     Subspace diagonalization in iterative solution of the eigenvalue problem:
     a serial algorithm will be used

 
     Parallelization info
     --------------------
     sticks:   dense  smooth     PW     G-vecs:    dense   smooth      PW
     Min         136     136     33                 6338     6338     787
     Max         137     137     34                 6341     6341     792
     Sum        3809    3809    949               177509   177509   22119
 


     bravais-lattice index     =            1
     lattice parameter (alat)  =      20.0000  a.u.
     unit-cell volume          =    8000.0000 (a.u.)^3
     number of atoms/cell      =          192
     number of atomic types    =            2
     number of electrons       =       512.00
     number of Kohn-Sham states=          307
     kinetic-energy cutoff     =      30.0000  Ry
     charge density cutoff     =     120.0000  Ry
     convergence threshold     =      1.0E-08
     mixing beta               =       0.7000
     number of iterations used =            8  plain     mixing
     Exchange-correlation      = BLYP ( 1  3  1  3 0 0)

     celldm(1)=  20.000000  celldm(2)=   0.000000  celldm(3)=   0.000000
     celldm(4)=   0.000000  celldm(5)=   0.000000  celldm(6)=   0.000000

     crystal axes: (cart. coord. in units of alat)
               a(1) = (   1.000000   0.000000   0.000000 )  
               a(2) = (   0.000000   1.000000   0.000000 )  
               a(3) = (   0.000000   0.000000   1.000000 )  

     reciprocal axes: (cart. coord. in units 2 pi/alat)
               b(1) = (  1.000000  0.000000  0.000000 )  
               b(2) = (  0.000000  1.000000  0.000000 )  
               b(3) = (  0.000000  0.000000  1.000000 )  


     PseudoPot. # 1 for  H read from file:
     ./H.blyp-hgh.UPF
     MD5 check sum: c576e69559cde411e611be972c763230
     Pseudo is Norm-conserving, Zval =  1.0
     Generated in analytical, separable form
     Using radial grid of  929 points,  0 beta functions with: 

     PseudoPot. # 2 for  O read from file:
     ./O.blyp-hgh.UPF
     MD5 check sum: d0b7156309aa9befef28faac7bc56342
     Pseudo is Norm-conserving, Zval =  6.0
     Generated in analytical, separable form
     Using radial grid of 1095 points,  1 beta functions with: 
                l(1) =   0

     atomic species   valence    mass     pseudopotential
        H              1.00     1.01000      H( 1.00)
        O              6.00    16.00000      O( 1.00)

     No symmetry found



   Cartesian axes

     site n.     atom                  positions (alat units)
         1           O   tau(   1) = (  -0.2634389  -0.0737304  -0.0584387  )
         2           O   tau(   2) = (   0.1380699  -0.1336031   0.3075003  )
         3           O   tau(   3) = (  -0.2704431   0.3201664  -0.2674815  )
         4           O   tau(   4) = (   0.0538640   0.1640716  -0.0491315  )
         5           O   tau(   5) = (  -0.2532814   0.0716138   0.1724344  )
         6           O   tau(   6) = (  -0.0115609   0.3078830   0.2977381  )
         7           O   tau(   7) = (  -0.0516104  -0.2682646  -0.1253164  )
         8           O   tau(   8) = (   0.1441747   0.0550140   0.2235058  )
         9           O   tau(   9) = (  -0.1365056  -0.3173878   0.2872154  )
        10           O   tau(  10) = (   0.1144861  -0.1251713   0.1657145  )
        11           O   tau(  11) = (   0.1207764  -0.3246615   0.1292952  )
        12           O   tau(  12) = (  -0.1711930  -0.1826469   0.2103430  )
        13           O   tau(  13) = (  -0.2403385  -0.3468907   0.0333610  )
        14           O   tau(  14) = (  -0.1944960  -0.2468877  -0.1788755  )
        15           O   tau(  15) = (   0.1326798  -0.1784473  -0.1026339  )
        16           O   tau(  16) = (  -0.1042710   0.1417356  -0.0426560  )
        17           O   tau(  17) = (  -0.0738963  -0.1498746   0.1060617  )
        18           O   tau(  18) = (   0.0334409  -0.2373524   0.1735455  )
        19           O   tau(  19) = (   0.2335366  -0.2224210  -0.2401347  )
        20           O   tau(  20) = (   0.2639633   0.2364937   0.1099254  )
        21           O   tau(  21) = (   0.2584365  -0.1943528   0.1788253  )
        22           O   tau(  22) = (  -0.1269860  -0.1176813  -0.1641857  )
        23           O   tau(  23) = (  -0.0626019   0.1523681  -0.2242633  )
        24           O   tau(  24) = (   0.2121383   0.0901362   0.1112195  )
        25           O   tau(  25) = (   0.1441512   0.0592840  -0.1822443  )
        26           O   tau(  26) = (  -0.2229585   0.1486095  -0.2738478  )
        27           O   tau(  27) = (   0.2541258  -0.2871050  -0.0221731  )
        28           O   tau(  28) = (   0.0510332  -0.0120161  -0.2885159  )
        29           O   tau(  29) = (  -0.1033966   0.0325495  -0.2547567  )
        30           O   tau(  30) = (   0.0503983  -0.0481815   0.0823305  )
        31           O   tau(  31) = (   0.2855080  -0.1046804  -0.1985888  )
        32           O   tau(  32) = (   0.2198229  -0.0088483  -0.0549913  )
        33           O   tau(  33) = (   0.0231228   0.2134042   0.2016195  )
        34           O   tau(  34) = (  -0.2245642   0.0334617  -0.1744760  )
        35           O   tau(  35) = (   0.0079696  -0.1892192  -0.0357206  )
        36           O   tau(  36) = (   0.2540992   0.2091758  -0.3207733  )
        37           O   tau(  37) = (   0.1557945   0.3246933   0.2861354  )
        38           O   tau(  38) = (  -0.2715577   0.2613930  -0.1248458  )
        39           O   tau(  39) = (  -0.0015942   0.0542509  -0.1280298  )
        40           O   tau(  40) = (  -0.1933220  -0.1934689  -0.0524142  )
        41           O   tau(  41) = (  -0.1488608   0.2810114   0.1539538  )
        42           O   tau(  42) = (  -0.1188577   0.1679162   0.2117046  )
        43           O   tau(  43) = (  -0.0825510  -0.0945367  -0.0232747  )
        44           O   tau(  44) = (  -0.0694255  -0.0811044   0.2649195  )
        45           O   tau(  45) = (   0.0135300   0.0973254   0.2940115  )
        46           O   tau(  46) = (  -0.2426319   0.1454917   0.0781089  )
        47           O   tau(  47) = (   0.1781756   0.2291740  -0.0887648  )
        48           O   tau(  48) = (   0.0784427  -0.2869718  -0.1981453  )
        49           O   tau(  49) = (  -0.1578159   0.2213109  -0.1563001  )
        50           O   tau(  50) = (   0.2471209   0.0424049   0.3299443  )
        51           O   tau(  51) = (  -0.0836089   0.0438853   0.1037346  )
        52           O   tau(  52) = (   0.0015825  -0.0864832  -0.1892830  )
        53           O   tau(  53) = (   0.0111366  -0.1829649  -0.2955298  )
        54           O   tau(  54) = (   0.3372921  -0.3020268   0.1985724  )
        55           O   tau(  55) = (   0.1840055  -0.1452967   0.0550447  )
        56           O   tau(  56) = (   0.2956364  -0.0457745   0.1482833  )
        57           O   tau(  57) = (   0.0751642   0.1881713  -0.2160181  )
        58           O   tau(  58) = (  -0.0774599  -0.3489822   0.0068172  )
        59           O   tau(  59) = (  -0.2554191  -0.0806276  -0.3188291  )
        60           O   tau(  60) = (  -0.2150319   0.0764243  -0.0438938  )
        61           O   tau(  61) = (   0.2665684   0.1841890  -0.1886074  )
        62           O   tau(  62) = (   0.0824920  -0.0342601  -0.0770529  )
        63           O   tau(  63) = (  -0.2356427  -0.1700590   0.0909183  )
        64           O   tau(  64) = (   0.0882238   0.1490849   0.0876480  )
        65           H   tau(  65) = (  -0.2319736  -0.1075052  -0.0410295  )
        66           H   tau(  66) = (  -0.2408500  -0.0348960  -0.0787740  )
        67           H   tau(  67) = (   0.1352462  -0.0848182   0.3065387  )
        68           H   tau(  68) = (   0.1297656  -0.1403966   0.2585137  )
        69           H   tau(  69) = (  -0.2956491   0.2900987  -0.2388883  )
        70           H   tau(  70) = (  -0.2443550   0.3499411  -0.2359285  )
        71           H   tau(  71) = (   0.0690905   0.1178093  -0.0530841  )
        72           H   tau(  72) = (   0.0932566   0.1909703  -0.0629250  )
        73           H   tau(  73) = (  -0.2700796   0.0304177   0.1516890  )
        74           H   tau(  74) = (  -0.2288020   0.0553149   0.2114698  )
        75           H   tau(  75) = (  -0.0101005   0.3512579   0.2748691  )
        76           H   tau(  76) = (   0.0038938   0.3254856   0.3410038  )
        77           H   tau(  77) = (  -0.0400204  -0.3035337  -0.0929365  )
        78           H   tau(  78) = (  -0.0077502  -0.2644930  -0.1473226  )
        79           H   tau(  79) = (   0.1639719   0.0814595   0.1866327  )
        80           H   tau(  80) = (   0.0997091   0.0713686   0.2353864  )
        81           H   tau(  81) = (  -0.1679206  -0.3536013   0.2929902  )
        82           H   tau(  82) = (  -0.0948828  -0.3322225   0.3095844  )
        83           H   tau(  83) = (   0.0918283  -0.0820191   0.1545322  )
        84           H   tau(  84) = (   0.1469355  -0.1273574   0.1270367  )
        85           H   tau(  85) = (   0.0865840  -0.3596356   0.1340105  )
        86           H   tau(  86) = (   0.0928566  -0.2828345   0.1324746  )
        87           H   tau(  87) = (  -0.1653873  -0.2112490   0.2506348  )
        88           H   tau(  88) = (  -0.1980211  -0.2060959   0.1765006  )
        89           H   tau(  89) = (  -0.2602498  -0.3925975   0.0371719  )
        90           H   tau(  90) = (  -0.2311672  -0.3470178  -0.0144291  )
        91           H   tau(  91) = (  -0.1667292  -0.2069383  -0.1838775  )
        92           H   tau(  92) = (  -0.1569827  -0.2776699  -0.1739735  )
        93           H   tau(  93) = (   0.1510267  -0.1360675  -0.1197229  )
        94           H   tau(  94) = (   0.0893298  -0.1701929  -0.0803811  )
        95           H   tau(  95) = (  -0.1110853   0.1579178  -0.0892326  )
        96           H   tau(  96) = (  -0.0604982   0.1634113  -0.0289423  )
        97           H   tau(  97) = (  -0.1019239  -0.1467910   0.0662115  )
        98           H   tau(  98) = (  -0.0347828  -0.1227227   0.0958733  )
        99           H   tau(  99) = (   0.0605054  -0.1965642   0.1814757  )
       100           H   tau( 100) = (  -0.0097714  -0.2175679   0.1599347  )
       101           H   tau( 101) = (   0.2617586  -0.2604805  -0.2531795  )
       102           H   tau( 102) = (   0.2171165  -0.1875671  -0.2698521  )
       103           H   tau( 103) = (   0.2156963   0.2446185   0.1113388  )
       104           H   tau( 104) = (   0.2834829   0.2683264   0.1422201  )
       105           H   tau( 105) = (   0.3019093  -0.1752314   0.1664259  )
       106           H   tau( 106) = (   0.2387258  -0.1652038   0.2125177  )
       107           H   tau( 107) = (  -0.0796586  -0.1032577  -0.1723472  )
       108           H   tau( 108) = (  -0.1503430  -0.0918560  -0.1984549  )
       109           H   tau( 109) = (  -0.0138905   0.1581038  -0.2339057  )
       110           H   tau( 110) = (  -0.0652455   0.1042062  -0.2158806  )
       111           H   tau( 111) = (   0.2169310   0.1382664   0.1029878  )
       112           H   tau( 112) = (   0.1676998   0.0808152   0.0932554  )
       113           H   tau( 113) = (   0.1033360   0.0385663  -0.2004790  )
       114           H   tau( 114) = (   0.1323403   0.1074477  -0.1807595  )
       115           H   tau( 115) = (  -0.2572693   0.1339686  -0.3051117  )
       116           H   tau( 116) = (  -0.2243666   0.1112392  -0.2425657  )
       117           H   tau( 117) = (   0.2591280  -0.3135499   0.0188339  )
       118           H   tau( 118) = (   0.2986877  -0.2892451  -0.0419368  )
       119           H   tau( 119) = (   0.0367748  -0.0297292  -0.3324303  )
       120           H   tau( 120) = (   0.0283604   0.0320839  -0.2923545  )
       121           H   tau( 121) = (  -0.1030554   0.0079401  -0.2971793  )
       122           H   tau( 122) = (  -0.1297062   0.0040189  -0.2254036  )
       123           H   tau( 123) = (   0.0455958   0.0008766   0.0801484  )
       124           H   tau( 124) = (   0.0769907  -0.0544137   0.0416682  )
       125           H   tau( 125) = (   0.2623330  -0.1485850  -0.1992584  )
       126           H   tau( 126) = (   0.2811858  -0.0793519  -0.1571078  )
       127           H   tau( 127) = (   0.2398087   0.0330478  -0.0375241  )
       128           H   tau( 128) = (   0.2542000  -0.0425882  -0.0401052  )
       129           H   tau( 129) = (   0.0348693   0.2487052   0.2336391  )
       130           H   tau( 130) = (  -0.0171806   0.2323609   0.1820638  )
       131           H   tau( 131) = (  -0.2425666   0.0735751  -0.1526249  )
       132           H   tau( 132) = (  -0.2441529   0.0250076  -0.2184553  )
       133           H   tau( 133) = (  -0.0404237  -0.1946757  -0.0412489  )
       134           H   tau( 134) = (   0.0103053  -0.1706278   0.0094580  )
       135           H   tau( 135) = (   0.2391780   0.2523571  -0.3383450  )
       136           H   tau( 136) = (   0.2782016   0.1828290  -0.3537922  )
       137           H   tau( 137) = (   0.1444587   0.3212140   0.2377485  )
       138           H   tau( 138) = (   0.1602348   0.3732256   0.2872853  )
       139           H   tau( 139) = (  -0.3125945   0.2436961  -0.1456410  )
       140           H   tau( 140) = (  -0.2323313   0.2303168  -0.1255550  )
       141           H   tau( 141) = (  -0.0447901   0.0328555  -0.1261450  )
       142           H   tau( 142) = (  -0.0115417   0.1014676  -0.1181297  )
       143           H   tau( 143) = (  -0.2253245  -0.1914986  -0.0899698  )
       144           H   tau( 144) = (  -0.2049411  -0.2406341  -0.0404668  )
       145           H   tau( 145) = (  -0.1820725   0.2906286   0.1184491  )
       146           H   tau( 146) = (  -0.1565741   0.3121541   0.1915028  )
       147           H   tau( 147) = (  -0.1504510   0.2043210   0.1996209  )
       148           H   tau( 148) = (  -0.1458030   0.1289041   0.2218923  )
       149           H   tau( 149) = (  -0.0919275  -0.1138116  -0.0678423  )
       150           H   tau( 150) = (  -0.1126825  -0.0560507  -0.0241217  )
       151           H   tau( 151) = (  -0.0873572  -0.1091654   0.2286585  )
       152           H   tau( 152) = (  -0.0569573  -0.1121986   0.3009184  )
       153           H   tau( 153) = (   0.0366136   0.1334520   0.2728775  )
       154           H   tau( 154) = (  -0.0326846   0.1093983   0.3063127  )
       155           H   tau( 155) = (  -0.2602538   0.1073617   0.1029841  )
       156           H   tau( 156) = (  -0.2006538   0.1544010   0.1020183  )
       157           H   tau( 157) = (   0.1864805   0.2740819  -0.0690220  )
       158           H   tau( 158) = (   0.2161125   0.2318760  -0.1203448  )
       159           H   tau( 159) = (   0.1193981  -0.2916490  -0.2243263  )
       160           H   tau( 160) = (   0.0985662  -0.2672300  -0.1578915  )
       161           H   tau( 161) = (  -0.1553265   0.2063894  -0.2035604  )
       162           H   tau( 162) = (  -0.1151366   0.2454402  -0.1579543  )
       163           H   tau( 163) = (   0.2249198   0.0366105   0.3730806  )
       164           H   tau( 164) = (   0.2115036   0.0594782   0.3000529  )
       165           H   tau( 165) = (  -0.0841614  -0.0038601   0.0886031  )
       166           H   tau( 166) = (  -0.1245437   0.0441942   0.1323776  )
       167           H   tau( 167) = (   0.0341246  -0.0937467  -0.1529897  )
       168           H   tau( 168) = (   0.0149529  -0.0443363  -0.2106525  )
       169           H   tau( 169) = (  -0.0059251  -0.1719526  -0.2503612  )
       170           H   tau( 170) = (   0.0512449  -0.1545238  -0.2914166  )
       171           H   tau( 171) = (   0.3288039  -0.2998308   0.2467946  )
       172           H   tau( 172) = (   0.3144591  -0.2595766   0.1872624  )
       173           H   tau( 173) = (   0.2000894  -0.1912231   0.0490604  )
       174           H   tau( 174) = (   0.1540874  -0.1463873   0.0163220  )
       175           H   tau( 175) = (   0.2708318  -0.0555388   0.1069343  )
       176           H   tau( 176) = (   0.2614509  -0.0449904   0.1837905  )
       177           H   tau( 177) = (   0.0845762   0.1957057  -0.2627076  )
       178           H   tau( 178) = (   0.0805070   0.2296800  -0.1917360  )
       179           H   tau( 179) = (  -0.0804742  -0.3508119   0.0555809  )
       180           H   tau( 180) = (  -0.1232500  -0.3582309  -0.0075810  )
       181           H   tau( 181) = (  -0.2742179  -0.0899005  -0.2735183  )
       182           H   tau( 182) = (  -0.2326401  -0.1219374  -0.3313458  )
       183           H   tau( 183) = (  -0.1758765   0.0615186  -0.0187842  )
       184           H   tau( 184) = (  -0.2123344   0.1235760  -0.0304882  )
       185           H   tau( 185) = (   0.2524197   0.1920381  -0.2357534  )
       186           H   tau( 186) = (   0.2429175   0.1467254  -0.1671753  )
       187           H   tau( 187) = (   0.1285446  -0.0154946  -0.0742706  )
       188           H   tau( 188) = (   0.0594360  -0.0069888  -0.1105049  )
       189           H   tau( 189) = (  -0.2821980  -0.1665559   0.0755002  )
       190           H   tau( 190) = (  -0.2239862  -0.1241655   0.1022938  )
       191           H   tau( 191) = (   0.0585677   0.1732520   0.1176608  )
       192           H   tau( 192) = (   0.0737198   0.1635491   0.0430973  )

     number of k points=     1  Marzari-Vanderbilt smearing, width (Ry)=  0.0250
                       cart. coord. in units 2pi/alat
        k(    1) = (   0.0000000   0.0000000   0.0000000), wk =   2.0000000

     Dense  grid:   177509 G-vectors     FFT dimensions: (  72,  72,  72)

     Estimated max dynamical RAM per process >      67.80Mb

     Estimated total allocated dynamical RAM >    1898.40Mb

     Initial potential from superposition of free atoms
     Check: negative starting charge=   -0.760144

     starting charge  511.99856, renormalised to  512.00000

     negative rho (up, down):  7.601E-01 0.000E+00
     Starting wfc are  384 randomized atomic wfcs

     total cpu time spent up to now is        0.8 secs

     per-process dynamical memory:    45.9 Mb

     Self-consistent Calculation

     iteration #  1     ecut=    30.00 Ry     beta=0.70
     Davidson diagonalization with overlap
     ethr =  1.00E-02,  avg # of iterations =  8.0

     negative rho (up, down):  1.795E-01 0.000E+00

     total cpu time spent up to now is        9.0 secs

     total energy              =   -1795.13851086 Ry
     Harris-Foulkes estimate   =   -1822.64776214 Ry
     estimated scf accuracy    <      42.27619261 Ry

     iteration #  2     ecut=    30.00 Ry     beta=0.70
     Davidson diagonalization with overlap
     ethr =  8.26E-03,  avg # of iterations =  4.0

     negative rho (up, down):  2.064E-03 0.000E+00

     total cpu time spent up to now is       12.2 secs

     total energy              =   -1775.90790390 Ry
     Harris-Foulkes estimate   =   -1809.51439292 Ry
     estimated scf accuracy    <      75.54752331 Ry

     iteration #  3     ecut=    30.00 Ry     beta=0.70
     Davidson diagonalization with overlap
     ethr =  8.26E-03,  avg # of iterations =  5.0

     negative rho (up, down):  1.473E-05 0.000E+00

     total cpu time spent up to now is       15.9 secs

     total energy              =   -1796.43329224 Ry
     Harris-Foulkes estimate   =   -1811.04329387 Ry
     estimated scf accuracy    <      46.12288470 Ry

     iteration #  4     ecut=    30.00 Ry     beta=0.70
     Davidson diagonalization with overlap
     ethr =  8.26E-03,  avg # of iterations =  3.0

     total cpu time spent up to now is       17.7 secs

     total energy              =   -1802.86763945 Ry
     Harris-Foulkes estimate   =   -1805.28739251 Ry
     estimated scf accuracy    <       7.33653981 Ry

     iteration #  5     ecut=    30.00 Ry     beta=0.70
     Davidson diagonalization with overlap
     ethr =  1.43E-03,  avg # of iterations =  5.0

     total cpu time spent up to now is       20.3 secs

     total energy              =   -1802.77938139 Ry
     Harris-Foulkes estimate   =   -1803.34727735 Ry
     estimated scf accuracy    <       2.51309349 Ry

     iteration #  6     ecut=    30.00 Ry     beta=0.70
     Davidson diagonalization with overlap
     ethr =  4.91E-04,  avg # of iterations =  4.0

     total cpu time spent up to now is       22.4 secs

     total energy              =   -1802.59932354 Ry
     Harris-Foulkes estimate   =   -1802.89959506 Ry
     estimated scf accuracy    <       1.40273340 Ry

     iteration #  7     ecut=    30.00 Ry     beta=0.70
     Davidson diagonalization with overlap
     ethr =  2.74E-04,  avg # of iterations =  9.0

     total cpu time spent up to now is       25.9 secs

     total energy              =   -1802.47413743 Ry
     Harris-Foulkes estimate   =   -1802.66446944 Ry
     estimated scf accuracy    <       0.67126244 Ry

     iteration #  8     ecut=    30.00 Ry     beta=0.70
     Davidson diagonalization with overlap
     ethr =  1.31E-04,  avg # of iterations =  5.0

     total cpu time spent up to now is       28.4 secs

     total energy              =   -1802.53841187 Ry
     Harris-Foulkes estimate   =   -1802.58552917 Ry
     estimated scf accuracy    <       0.36003168 Ry

     iteration #  9     ecut=    30.00 Ry     beta=0.70
     Davidson diagonalization with overlap
     ethr =  7.03E-05,  avg # of iterations =  1.0

     total cpu time spent up to now is       29.5 secs

     total energy              =   -1802.52794807 Ry
     Harris-Foulkes estimate   =   -1802.56014906 Ry
     estimated scf accuracy    <       0.14908385 Ry

     iteration # 10     ecut=    30.00 Ry     beta=0.70
     Davidson diagonalization with overlap
     ethr =  2.91E-05,  avg # of iterations =  4.0

     total cpu time spent up to now is       31.6 secs

     total energy              =   -1802.52467784 Ry
     Harris-Foulkes estimate   =   -1802.55128284 Ry
     estimated scf accuracy    <       0.16923680 Ry

     iteration # 11     ecut=    30.00 Ry     beta=0.70
     Davidson diagonalization with overlap
     ethr =  2.91E-05,  avg # of iterations =  3.0

     total cpu time spent up to now is       33.3 secs

     total energy              =   -1802.52002922 Ry
     Harris-Foulkes estimate   =   -1802.55069779 Ry
     estimated scf accuracy    <       0.23094434 Ry

     iteration # 12     ecut=    30.00 Ry     beta=0.70
     Davidson diagonalization with overlap
     ethr =  2.91E-05,  avg # of iterations =  2.0

     total cpu time spent up to now is       34.7 secs

     total energy              =   -1802.52993647 Ry
     Harris-Foulkes estimate   =   -1802.54150053 Ry
     estimated scf accuracy    <       0.05729294 Ry

     iteration # 13     ecut=    30.00 Ry     beta=0.70
     Davidson diagonalization with overlap
     ethr =  1.12E-05,  avg # of iterations = 10.0

     total cpu time spent up to now is       38.6 secs

     total energy              =   -1802.53367740 Ry
     Harris-Foulkes estimate   =   -1802.53910725 Ry
     estimated scf accuracy    <       0.04761980 Ry

     iteration # 14     ecut=    30.00 Ry     beta=0.70
     Davidson diagonalization with overlap
     ethr =  9.30E-06,  avg # of iterations =  1.0

     total cpu time spent up to now is       39.8 secs

     total energy              =   -1802.53619687 Ry
     Harris-Foulkes estimate   =   -1802.53653164 Ry
     estimated scf accuracy    <       0.00172656 Ry

     iteration # 15     ecut=    30.00 Ry     beta=0.70
     Davidson diagonalization with overlap
     ethr =  3.37E-07,  avg # of iterations =  6.0

     total cpu time spent up to now is       42.4 secs

     total energy              =   -1802.53632536 Ry
     Harris-Foulkes estimate   =   -1802.53641339 Ry
     estimated scf accuracy    <       0.00057957 Ry

     iteration # 16     ecut=    30.00 Ry     beta=0.70
     Davidson diagonalization with overlap
     ethr =  1.13E-07,  avg # of iterations =  2.0

     total cpu time spent up to now is       43.8 secs

     total energy              =   -1802.53637935 Ry
     Harris-Foulkes estimate   =   -1802.53638763 Ry
     estimated scf accuracy    <       0.00007840 Ry

     iteration # 17     ecut=    30.00 Ry     beta=0.70
     Davidson diagonalization with overlap
     ethr =  1.53E-08,  avg # of iterations =  2.0

     total cpu time spent up to now is       45.3 secs

     total energy              =   -1802.53638554 Ry
     Harris-Foulkes estimate   =   -1802.53638580 Ry
     estimated scf accuracy    <       0.00000244 Ry

     iteration # 18     ecut=    30.00 Ry     beta=0.70
     Davidson diagonalization with overlap
     ethr =  4.77E-10,  avg # of iterations =  3.0

     total cpu time spent up to now is       47.4 secs

     total energy              =   -1802.53638623 Ry
     Harris-Foulkes estimate   =   -1802.53638624 Ry
     estimated scf accuracy    <       0.00000081 Ry

     iteration # 19     ecut=    30.00 Ry     beta=0.70
     Davidson diagonalization with overlap
     ethr =  1.58E-10,  avg # of iterations =  3.0

     total cpu time spent up to now is       49.3 secs

     total energy              =   -1802.53638646 Ry
     Harris-Foulkes estimate   =   -1802.53638644 Ry
     estimated scf accuracy    <       0.00000021 Ry

     iteration # 20     ecut=    30.00 Ry     beta=0.70
     Davidson diagonalization with overlap
     ethr =  4.03E-11,  avg # of iterations =  3.0

     total cpu time spent up to now is       51.1 secs

     total energy              =   -1802.53638649 Ry
     Harris-Foulkes estimate   =   -1802.53638650 Ry
     estimated scf accuracy    <       0.00000012 Ry

     iteration # 21     ecut=    30.00 Ry     beta=0.70
     Davidson diagonalization with overlap
     ethr =  2.26E-11,  avg # of iterations =  2.0

     total cpu time spent up to now is       52.6 secs

     total energy              =   -1802.53638649 Ry
     Harris-Foulkes estimate   =   -1802.53638652 Ry
     estimated scf accuracy    <       0.00000019 Ry

     iteration # 22     ecut=    30.00 Ry     beta=0.70
     Davidson diagonalization with overlap
     ethr =  2.26E-11,  avg # of iterations =  2.0

     total cpu time spent up to now is       54.0 secs

     End of self-consistent calculation

          k = 0.0000 0.0000 0.0000 ( 22119 PWs)   bands (ev):

   -42.0022 -40.1659 -39.4361 -39.0407 -38.6895 -37.4627 -37.0171 -36.5176
   -35.9114 -35.8053 -35.4100 -34.9905 -34.5953 -34.3779 -34.2976 -33.8986
   -33.6973 -33.3123 -33.0252 -32.6869 -32.4257 -32.3098 -32.0986 -31.9865
   -31.8324 -31.6199 -31.2862 -31.0646 -30.9250 -30.5708 -30.4688 -30.3584
   -30.0155 -29.7548 -29.6609 -29.4301 -29.2707 -29.0861 -29.0174 -28.8324
   -28.7184 -28.5755 -28.4059 -28.2239 -28.0339 -27.9549 -27.7658 -27.7336
   -27.4829 -27.3498 -27.2925 -27.2391 -27.0855 -26.9849 -26.9053 -26.8228
   -26.6918 -26.3865 -26.1976 -25.4506 -25.2445 -24.9585 -24.7477 -24.4975
   -21.9439 -21.7861 -21.6285 -21.1491 -20.5507 -20.4498 -20.3549 -20.2539
   -20.0350 -19.7438 -19.5576 -18.9753 -18.7918 -18.7277 -18.5319 -18.4739
   -18.2940 -18.2331 -17.9063 -17.6026 -17.4626 -17.4053 -17.1570 -16.8751
   -16.8534 -16.6452 -16.6109 -16.4272 -16.3562 -16.0250 -15.8636 -15.5066
   -15.1565 -15.0615 -14.9523 -14.8784 -14.7590 -14.5516 -14.4736 -14.3109
   -14.2397 -14.1308 -14.0400 -13.7923 -13.7375 -13.4036 -13.3922 -13.3423
   -13.1234 -12.9405 -12.7784 -12.6512 -12.5950 -12.5659 -12.4638 -12.2831
   -12.1842 -12.0967 -12.0629 -11.9324 -11.8096 -11.7896 -11.6600 -11.6252
   -11.1394 -11.0777 -10.8845 -10.2535  -9.6486  -9.5370  -9.0535  -8.8626
    -8.8444  -8.5374  -8.2984  -8.1560  -8.0985  -7.9366  -7.7640  -7.5054
    -7.4122  -7.2601  -6.9889  -6.9147  -6.7603  -6.6467  -6.5447  -6.5156
    -6.3017  -6.2702  -6.1524  -6.0527  -5.9751  -5.9066  -5.6861  -5.5919
    -5.4383  -5.3623  -5.2547  -5.1336  -5.0483  -4.9655  -4.8615  -4.8088
    -4.7430  -4.5713  -4.4547  -4.4360  -4.2163  -4.1989  -4.1224  -3.9843
    -3.8467  -3.7980  -3.7357  -3.5867  -3.5376  -3.5047  -3.3883  -3.3135
    -3.1087  -2.9475  -2.8215  -2.7356  -2.6252  -2.5844  -2.4525  -2.3911
    -2.3196  -2.1926  -2.1484  -2.0635  -1.9095  -1.8754  -1.8231  -1.6931
    -1.6602  -1.4657  -1.3026  -1.2955  -1.2222  -1.1219  -1.0768  -0.9902
    -0.9119  -0.7534  -0.6460  -0.5462  -0.4815  -0.4357  -0.3824  -0.2439
    -0.2055  -0.1265   0.0513   0.1739   0.2797   0.4353   0.5418   0.6083
     0.7334   1.0147   1.0620   1.2159   1.3370   1.5045   1.6277   1.7378
     1.9230   2.1127   2.1699   2.4461   2.4786   2.5208   2.6739   2.8833
     2.9258   3.1203   3.2351   3.3931   3.4209   3.6848   3.7548   3.8833
     3.9856   4.0598   4.6872   4.7726   5.1431   5.2552   5.4485   5.5592
     5.6603   6.3434   6.4415   6.5879   6.8609   7.0689   7.2787   7.5072
     7.5561   7.6130   7.8571   8.0332   8.1619   8.2571   8.5763   8.6873
     8.8436   8.9220   9.0384   9.5389   9.6071   9.7729   9.7897  10.0331
    10.1184  10.1702  10.3141  10.4522  10.5910  10.6665  10.7349  10.8402
    10.9175  11.0685  11.1066  11.1999  11.2305  11.3423  11.4186  11.5143
    11.5614  11.5679  11.8254  11.8870  11.9354  11.9834  12.0227  12.1430
    12.1830  12.2395  12.2722

     the Fermi energy is     5.6560 ev

!    total energy              =   -1802.53638650 Ry
     Harris-Foulkes estimate   =   -1802.53638651 Ry
     estimated scf accuracy    <          7.1E-09 Ry

     The total energy is the sum of the following terms:

     one-electron contribution =  -13858.76268761 Ry
     hartree contribution      =    7098.16316255 Ry
     xc contribution           =    -634.72154976 Ry
     ewald contribution        =    5592.78481709 Ry
     smearing contrib. (-TS)   =      -0.00012876 Ry

     convergence has been achieved in  22 iterations

     Writing output data file pwscf.save
 
     init_run     :      0.57s CPU      0.65s WALL (       1 calls)
     electrons    :     51.73s CPU     53.21s WALL (       1 calls)

     Called by init_run:
     wfcinit      :      0.48s CPU      0.54s WALL (       1 calls)
     potinit      :      0.02s CPU      0.03s WALL (       1 calls)

     Called by electrons:
     c_bands      :     49.48s CPU     50.71s WALL (      22 calls)
     sum_band     :      1.88s CPU      1.92s WALL (      22 calls)
     v_of_rho     :      0.19s CPU      0.20s WALL (      23 calls)
     mix_rho      :      0.13s CPU      0.25s WALL (      22 calls)

     Called by c_bands:
     init_us_2    :      0.06s CPU      0.06s WALL (      45 calls)
     cegterg      :     49.40s CPU     50.54s WALL (      22 calls)

     Called by sum_band:

     Called by *egterg:
     h_psi        :      8.47s CPU      8.62s WALL (     110 calls)
     g_psi        :      0.07s CPU      0.07s WALL (      87 calls)
     cdiaghg      :     31.75s CPU     31.79s WALL (     109 calls)

     Called by h_psi:
     h_psi:pot    :      8.27s CPU      8.41s WALL (     110 calls)
     h_psi:calbec :      0.31s CPU      0.31s WALL (     110 calls)
     vloc_psi     :      7.69s CPU      7.82s WALL (     110 calls)
     add_vuspsi   :      0.27s CPU      0.27s WALL (     110 calls)

     General routines
     calbec       :      0.31s CPU      0.31s WALL (     110 calls)
     fft          :      0.10s CPU      0.11s WALL (     252 calls)
     fftw         :      8.57s CPU      8.73s WALL (   37892 calls)
     davcio       :      0.02s CPU      0.13s WALL (     348 calls)
 
     Parallel routines
     fft_scatter  :      2.81s CPU      2.88s WALL (   38144 calls)
 
     PWSCF        :    52.44s CPU        54.30s WALL

 
   This run was terminated on:  18:46:50   2Feb2018            

=------------------------------------------------------------------------------=
   JOB DONE.
=------------------------------------------------------------------------------=
