
     Program PWSCF v.6.0 (svn rev. 13079) starts on  2Feb2018 at 18:53:32 

     This program is part of the open-source Quantum ESPRESSO suite
     for quantum simulation of materials; please cite
         "P. Giannozzi et al., J. Phys.:Condens. Matter 21 395502 (2009);
          URL http://www.quantum-espresso.org", 
     in publications or presentations arising from this work. More details at
     http://www.quantum-espresso.org/quote

     Parallel version (MPI), running on    28 processors
     R & G space division:  proc/nbgrp/npool/nimage =      28
     Reading input from input/scf-bigwater-1/855.in
Warning: card &IONS ignored
Warning: card     POT_EXTRAPOLATION='SECOND-ORDER' ignored
Warning: card     WFC_EXTRAPOLATION='SECOND-ORDER' ignored
Warning: card     ION_TEMPERATURE = 'ANDERSEN' ignored
Warning: card     TEMPW = 1000 ignored
Warning: card / ignored

     Current dimensions of program PWSCF are:
     Max number of different atomic species (ntypx) = 10
     Max number of k-points (npk) =  40000
     Max angular momentum in pseudopotentials (lmaxx) =  3

     Subspace diagonalization in iterative solution of the eigenvalue problem:
     a serial algorithm will be used

 
     Parallelization info
     --------------------
     sticks:   dense  smooth     PW     G-vecs:    dense   smooth      PW
     Min         136     136     33                 6338     6338     787
     Max         137     137     34                 6341     6341     792
     Sum        3809    3809    949               177509   177509   22119
 


     bravais-lattice index     =            1
     lattice parameter (alat)  =      20.0000  a.u.
     unit-cell volume          =    8000.0000 (a.u.)^3
     number of atoms/cell      =          192
     number of atomic types    =            2
     number of electrons       =       512.00
     number of Kohn-Sham states=          307
     kinetic-energy cutoff     =      30.0000  Ry
     charge density cutoff     =     120.0000  Ry
     convergence threshold     =      1.0E-08
     mixing beta               =       0.7000
     number of iterations used =            8  plain     mixing
     Exchange-correlation      = BLYP ( 1  3  1  3 0 0)

     celldm(1)=  20.000000  celldm(2)=   0.000000  celldm(3)=   0.000000
     celldm(4)=   0.000000  celldm(5)=   0.000000  celldm(6)=   0.000000

     crystal axes: (cart. coord. in units of alat)
               a(1) = (   1.000000   0.000000   0.000000 )  
               a(2) = (   0.000000   1.000000   0.000000 )  
               a(3) = (   0.000000   0.000000   1.000000 )  

     reciprocal axes: (cart. coord. in units 2 pi/alat)
               b(1) = (  1.000000  0.000000  0.000000 )  
               b(2) = (  0.000000  1.000000  0.000000 )  
               b(3) = (  0.000000  0.000000  1.000000 )  


     PseudoPot. # 1 for  H read from file:
     ./H.blyp-hgh.UPF
     MD5 check sum: c576e69559cde411e611be972c763230
     Pseudo is Norm-conserving, Zval =  1.0
     Generated in analytical, separable form
     Using radial grid of  929 points,  0 beta functions with: 

     PseudoPot. # 2 for  O read from file:
     ./O.blyp-hgh.UPF
     MD5 check sum: d0b7156309aa9befef28faac7bc56342
     Pseudo is Norm-conserving, Zval =  6.0
     Generated in analytical, separable form
     Using radial grid of 1095 points,  1 beta functions with: 
                l(1) =   0

     atomic species   valence    mass     pseudopotential
        H              1.00     1.01000      H( 1.00)
        O              6.00    16.00000      O( 1.00)

     No symmetry found



   Cartesian axes

     site n.     atom                  positions (alat units)
         1           O   tau(   1) = (  -0.2637897  -0.0738884  -0.0573632  )
         2           O   tau(   2) = (   0.1373329  -0.1336994   0.3079101  )
         3           O   tau(   3) = (  -0.2708124   0.3206916  -0.2670035  )
         4           O   tau(   4) = (   0.0541765   0.1630918  -0.0492590  )
         5           O   tau(   5) = (  -0.2532767   0.0715135   0.1731160  )
         6           O   tau(   6) = (  -0.0107626   0.3075409   0.2976159  )
         7           O   tau(   7) = (  -0.0523273  -0.2686979  -0.1252492  )
         8           O   tau(   8) = (   0.1447592   0.0554276   0.2237783  )
         9           O   tau(   9) = (  -0.1367787  -0.3181259   0.2865440  )
        10           O   tau(  10) = (   0.1133719  -0.1250231   0.1674310  )
        11           O   tau(  11) = (   0.1208133  -0.3251919   0.1287126  )
        12           O   tau(  12) = (  -0.1707712  -0.1824332   0.2103953  )
        13           O   tau(  13) = (  -0.2402086  -0.3475198   0.0325514  )
        14           O   tau(  14) = (  -0.1948300  -0.2458353  -0.1791914  )
        15           O   tau(  15) = (   0.1322158  -0.1789948  -0.1020936  )
        16           O   tau(  16) = (  -0.1037607   0.1428171  -0.0437069  )
        17           O   tau(  17) = (  -0.0736249  -0.1496087   0.1052045  )
        18           O   tau(  18) = (   0.0331415  -0.2380828   0.1736295  )
        19           O   tau(  19) = (   0.2333712  -0.2223670  -0.2401613  )
        20           O   tau(  20) = (   0.2634325   0.2364528   0.1100728  )
        21           O   tau(  21) = (   0.2587194  -0.1949058   0.1790809  )
        22           O   tau(  22) = (  -0.1264765  -0.1170419  -0.1635650  )
        23           O   tau(  23) = (  -0.0624465   0.1530676  -0.2242944  )
        24           O   tau(  24) = (   0.2124658   0.0899634   0.1100065  )
        25           O   tau(  25) = (   0.1438300   0.0595183  -0.1816717  )
        26           O   tau(  26) = (  -0.2230904   0.1496111  -0.2736053  )
        27           O   tau(  27) = (   0.2539923  -0.2870267  -0.0212330  )
        28           O   tau(  28) = (   0.0503525  -0.0118611  -0.2893537  )
        29           O   tau(  29) = (  -0.1042577   0.0328567  -0.2547336  )
        30           O   tau(  30) = (   0.0498600  -0.0480589   0.0831206  )
        31           O   tau(  31) = (   0.2854886  -0.1053008  -0.1985717  )
        32           O   tau(  32) = (   0.2198739  -0.0089657  -0.0558693  )
        33           O   tau(  33) = (   0.0236227   0.2139865   0.2015245  )
        34           O   tau(  34) = (  -0.2244124   0.0331929  -0.1737815  )
        35           O   tau(  35) = (   0.0072174  -0.1891997  -0.0362131  )
        36           O   tau(  36) = (   0.2545402   0.2095753  -0.3225525  )
        37           O   tau(  37) = (   0.1575812   0.3250664   0.2866732  )
        38           O   tau(  38) = (  -0.2718239   0.2619879  -0.1249024  )
        39           O   tau(  39) = (  -0.0012912   0.0540272  -0.1284985  )
        40           O   tau(  40) = (  -0.1941537  -0.1935550  -0.0519462  )
        41           O   tau(  41) = (  -0.1485308   0.2810832   0.1539977  )
        42           O   tau(  42) = (  -0.1200146   0.1680726   0.2112134  )
        43           O   tau(  43) = (  -0.0827477  -0.0948172  -0.0232234  )
        44           O   tau(  44) = (  -0.0693881  -0.0810835   0.2648363  )
        45           O   tau(  45) = (   0.0139687   0.0968755   0.2945779  )
        46           O   tau(  46) = (  -0.2420930   0.1456457   0.0780451  )
        47           O   tau(  47) = (   0.1788984   0.2300558  -0.0889425  )
        48           O   tau(  48) = (   0.0778584  -0.2870735  -0.1977550  )
        49           O   tau(  49) = (  -0.1575745   0.2216326  -0.1564202  )
        50           O   tau(  50) = (   0.2483804   0.0427831   0.3299794  )
        51           O   tau(  51) = (  -0.0829250   0.0442620   0.1030795  )
        52           O   tau(  52) = (   0.0017101  -0.0863186  -0.1893135  )
        53           O   tau(  53) = (   0.0115384  -0.1832285  -0.2951360  )
        54           O   tau(  54) = (   0.3380585  -0.3022825   0.1981656  )
        55           O   tau(  55) = (   0.1844479  -0.1448964   0.0555862  )
        56           O   tau(  56) = (   0.2958960  -0.0466241   0.1486494  )
        57           O   tau(  57) = (   0.0744028   0.1882205  -0.2157799  )
        58           O   tau(  58) = (  -0.0777671  -0.3502320   0.0081102  )
        59           O   tau(  59) = (  -0.2546017  -0.0801379  -0.3199229  )
        60           O   tau(  60) = (  -0.2149685   0.0768563  -0.0429720  )
        61           O   tau(  61) = (   0.2669245   0.1845891  -0.1890985  )
        62           O   tau(  62) = (   0.0821069  -0.0346540  -0.0771176  )
        63           O   tau(  63) = (  -0.2355885  -0.1709498   0.0921327  )
        64           O   tau(  64) = (   0.0882061   0.1497439   0.0887652  )
        65           H   tau(  65) = (  -0.2324807  -0.1084476  -0.0412923  )
        66           H   tau(  66) = (  -0.2381632  -0.0374065  -0.0794313  )
        67           H   tau(  67) = (   0.1355862  -0.0847329   0.3070080  )
        68           H   tau(  68) = (   0.1321008  -0.1411633   0.2584279  )
        69           H   tau(  69) = (  -0.2955246   0.2900324  -0.2386525  )
        70           H   tau(  70) = (  -0.2411995   0.3491213  -0.2367269  )
        71           H   tau(  71) = (   0.0718425   0.1182813  -0.0543606  )
        72           H   tau(  72) = (   0.0922951   0.1924042  -0.0624828  )
        73           H   tau(  73) = (  -0.2685730   0.0284865   0.1533662  )
        74           H   tau(  74) = (  -0.2265308   0.0557416   0.2103297  )
        75           H   tau(  75) = (  -0.0109123   0.3508828   0.2748734  )
        76           H   tau(  76) = (   0.0019370   0.3250914   0.3415805  )
        77           H   tau(  77) = (  -0.0399660  -0.3030737  -0.0927925  )
        78           H   tau(  78) = (  -0.0095275  -0.2649035  -0.1493762  )
        79           H   tau(  79) = (   0.1664195   0.0837511   0.1891593  )
        80           H   tau(  80) = (   0.0987438   0.0696797   0.2338011  )
        81           H   tau(  81) = (  -0.1671243  -0.3557008   0.2927592  )
        82           H   tau(  82) = (  -0.0931297  -0.3320926   0.3060449  )
        83           H   tau(  83) = (   0.0933841  -0.0817612   0.1518828  )
        84           H   tau(  84) = (   0.1445984  -0.1286739   0.1264278  )
        85           H   tau(  85) = (   0.0841052  -0.3574751   0.1337856  )
        86           H   tau(  86) = (   0.0972993  -0.2812077   0.1321573  )
        87           H   tau(  87) = (  -0.1688628  -0.2116546   0.2505437  )
        88           H   tau(  88) = (  -0.1980924  -0.2066240   0.1766423  )
        89           H   tau(  89) = (  -0.2606681  -0.3931735   0.0390071  )
        90           H   tau(  90) = (  -0.2316296  -0.3476250  -0.0154174  )
        91           H   tau(  91) = (  -0.1670700  -0.2060339  -0.1856655  )
        92           H   tau(  92) = (  -0.1578916  -0.2772769  -0.1733755  )
        93           H   tau(  93) = (   0.1523735  -0.1380765  -0.1200487  )
        94           H   tau(  94) = (   0.0876731  -0.1694322  -0.0818879  )
        95           H   tau(  95) = (  -0.1122685   0.1614270  -0.0884061  )
        96           H   tau(  96) = (  -0.0626083   0.1640369  -0.0242815  )
        97           H   tau(  97) = (  -0.1015502  -0.1465531   0.0638787  )
        98           H   tau(  98) = (  -0.0351227  -0.1229616   0.0949048  )
        99           H   tau(  99) = (   0.0592820  -0.1965956   0.1802679  )
       100           H   tau( 100) = (  -0.0097905  -0.2187202   0.1600821  )
       101           H   tau( 101) = (   0.2584436  -0.2613537  -0.2543714  )
       102           H   tau( 102) = (   0.2172993  -0.1869065  -0.2689744  )
       103           H   tau( 103) = (   0.2143975   0.2425245   0.1102558  )
       104           H   tau( 104) = (   0.2802869   0.2677927   0.1452777  )
       105           H   tau( 105) = (   0.3024618  -0.1761147   0.1672464  )
       106           H   tau( 106) = (   0.2403963  -0.1640399   0.2122745  )
       107           H   tau( 107) = (  -0.0788990  -0.1035165  -0.1718492  )
       108           H   tau( 108) = (  -0.1501259  -0.0906516  -0.1971919  )
       109           H   tau( 109) = (  -0.0131027   0.1544010  -0.2333478  )
       110           H   tau( 110) = (  -0.0662927   0.1046537  -0.2156177  )
       111           H   tau( 111) = (   0.2177610   0.1381190   0.1020174  )
       112           H   tau( 112) = (   0.1677675   0.0797962   0.0933889  )
       113           H   tau( 113) = (   0.1034356   0.0390899  -0.2008748  )
       114           H   tau( 114) = (   0.1348756   0.1079919  -0.1804028  )
       115           H   tau( 115) = (  -0.2581661   0.1346793  -0.3036041  )
       116           H   tau( 116) = (  -0.2274163   0.1126607  -0.2421740  )
       117           H   tau( 117) = (   0.2584708  -0.3146131   0.0191330  )
       118           H   tau( 118) = (   0.2983678  -0.2893483  -0.0410042  )
       119           H   tau( 119) = (   0.0327685  -0.0301764  -0.3316390  )
       120           H   tau( 120) = (   0.0275173   0.0318699  -0.2909042  )
       121           H   tau( 121) = (  -0.1061358   0.0083568  -0.2976473  )
       122           H   tau( 122) = (  -0.1286407   0.0029938  -0.2247738  )
       123           H   tau( 123) = (   0.0428201   0.0004474   0.0784157  )
       124           H   tau( 124) = (   0.0753755  -0.0543870   0.0414256  )
       125           H   tau( 125) = (   0.2614174  -0.1480316  -0.2009517  )
       126           H   tau( 126) = (   0.2817197  -0.0807179  -0.1566155  )
       127           H   tau( 127) = (   0.2367894   0.0330494  -0.0372399  )
       128           H   tau( 128) = (   0.2528297  -0.0418818  -0.0382963  )
       129           H   tau( 129) = (   0.0351660   0.2493695   0.2336328  )
       130           H   tau( 130) = (  -0.0185897   0.2314320   0.1798891  )
       131           H   tau( 131) = (  -0.2422947   0.0746807  -0.1553018  )
       132           H   tau( 132) = (  -0.2440666   0.0225322  -0.2172325  )
       133           H   tau( 133) = (  -0.0411639  -0.1966401  -0.0406531  )
       134           H   tau( 134) = (   0.0088273  -0.1719828   0.0095210  )
       135           H   tau( 135) = (   0.2405705   0.2529321  -0.3412846  )
       136           H   tau( 136) = (   0.2792823   0.1817345  -0.3540511  )
       137           H   tau( 137) = (   0.1458837   0.3223305   0.2383590  )
       138           H   tau( 138) = (   0.1607191   0.3739187   0.2877570  )
       139           H   tau( 139) = (  -0.3125640   0.2471119  -0.1467494  )
       140           H   tau( 140) = (  -0.2339972   0.2300034  -0.1290695  )
       141           H   tau( 141) = (  -0.0451181   0.0328744  -0.1281789  )
       142           H   tau( 142) = (  -0.0090399   0.1012573  -0.1161086  )
       143           H   tau( 143) = (  -0.2231204  -0.1901170  -0.0920216  )
       144           H   tau( 144) = (  -0.2028994  -0.2416492  -0.0422306  )
       145           H   tau( 145) = (  -0.1810482   0.2887042   0.1179301  )
       146           H   tau( 146) = (  -0.1592118   0.3117094   0.1907833  )
       147           H   tau( 147) = (  -0.1499279   0.2054460   0.1973697  )
       148           H   tau( 148) = (  -0.1475562   0.1289422   0.2196640  )
       149           H   tau( 149) = (  -0.0917085  -0.1122834  -0.0685906  )
       150           H   tau( 150) = (  -0.1107989  -0.0547105  -0.0256657  )
       151           H   tau( 151) = (  -0.0875298  -0.1094748   0.2291246  )
       152           H   tau( 152) = (  -0.0593758  -0.1105588   0.3024454  )
       153           H   tau( 153) = (   0.0365709   0.1326794   0.2724009  )
       154           H   tau( 154) = (  -0.0321939   0.1084768   0.3041860  )
       155           H   tau( 155) = (  -0.2612792   0.1082537   0.1025928  )
       156           H   tau( 156) = (  -0.1988128   0.1528676   0.0991786  )
       157           H   tau( 157) = (   0.1868156   0.2752497  -0.0707010  )
       158           H   tau( 158) = (   0.2148964   0.2328540  -0.1226290  )
       159           H   tau( 159) = (   0.1184549  -0.2895583  -0.2247837  )
       160           H   tau( 160) = (   0.0973403  -0.2662106  -0.1579125  )
       161           H   tau( 161) = (  -0.1534833   0.2052662  -0.2030279  )
       162           H   tau( 162) = (  -0.1133511   0.2420549  -0.1586599  )
       163           H   tau( 163) = (   0.2258563   0.0361083   0.3725005  )
       164           H   tau( 164) = (   0.2121647   0.0599371   0.3000622  )
       165           H   tau( 165) = (  -0.0833207  -0.0042901   0.0924567  )
       166           H   tau( 166) = (  -0.1231118   0.0448522   0.1329294  )
       167           H   tau( 167) = (   0.0331859  -0.0949366  -0.1523115  )
       168           H   tau( 168) = (   0.0138574  -0.0431257  -0.2085900  )
       169           H   tau( 169) = (  -0.0050532  -0.1674985  -0.2514042  )
       170           H   tau( 170) = (   0.0519548  -0.1544903  -0.2944621  )
       171           H   tau( 171) = (   0.3294808  -0.2984750   0.2462794  )
       172           H   tau( 172) = (   0.3185168  -0.2594791   0.1849752  )
       173           H   tau( 173) = (   0.2006730  -0.1907084   0.0491002  )
       174           H   tau( 174) = (   0.1537697  -0.1455067   0.0170822  )
       175           H   tau( 175) = (   0.2712194  -0.0545362   0.1070256  )
       176           H   tau( 176) = (   0.2606818  -0.0487297   0.1828299  )
       177           H   tau( 177) = (   0.0853533   0.1947731  -0.2623274  )
       178           H   tau( 178) = (   0.0827268   0.2292366  -0.1910591  )
       179           H   tau( 179) = (  -0.0825941  -0.3516190   0.0567029  )
       180           H   tau( 180) = (  -0.1221247  -0.3606959  -0.0093273  )
       181           H   tau( 181) = (  -0.2749048  -0.0906595  -0.2756145  )
       182           H   tau( 182) = (  -0.2335649  -0.1220770  -0.3342261  )
       183           H   tau( 183) = (  -0.1751103   0.0613019  -0.0195371  )
       184           H   tau( 184) = (  -0.2133061   0.1239445  -0.0300345  )
       185           H   tau( 185) = (   0.2553750   0.1929188  -0.2369675  )
       186           H   tau( 186) = (   0.2417077   0.1466908  -0.1709047  )
       187           H   tau( 187) = (   0.1274411  -0.0155543  -0.0749545  )
       188           H   tau( 188) = (   0.0576984  -0.0069376  -0.1089141  )
       189           H   tau( 189) = (  -0.2830411  -0.1701526   0.0795657  )
       190           H   tau( 190) = (  -0.2251354  -0.1249354   0.1045081  )
       191           H   tau( 191) = (   0.0574237   0.1724343   0.1190820  )
       192           H   tau( 192) = (   0.0715348   0.1619976   0.0440383  )

     number of k points=     1  Marzari-Vanderbilt smearing, width (Ry)=  0.0250
                       cart. coord. in units 2pi/alat
        k(    1) = (   0.0000000   0.0000000   0.0000000), wk =   2.0000000

     Dense  grid:   177509 G-vectors     FFT dimensions: (  72,  72,  72)

     Estimated max dynamical RAM per process >      67.80Mb

     Estimated total allocated dynamical RAM >    1898.40Mb

     Initial potential from superposition of free atoms
     Check: negative starting charge=   -0.759390

     starting charge  511.99856, renormalised to  512.00000

     negative rho (up, down):  7.594E-01 0.000E+00
     Starting wfc are  384 randomized atomic wfcs

     total cpu time spent up to now is        0.8 secs

     per-process dynamical memory:    45.9 Mb

     Self-consistent Calculation

     iteration #  1     ecut=    30.00 Ry     beta=0.70
     Davidson diagonalization with overlap
     ethr =  1.00E-02,  avg # of iterations =  8.0

     negative rho (up, down):  1.780E-01 0.000E+00

     total cpu time spent up to now is        9.2 secs

     total energy              =   -1795.21401332 Ry
     Harris-Foulkes estimate   =   -1822.69810744 Ry
     estimated scf accuracy    <      42.19495098 Ry

     iteration #  2     ecut=    30.00 Ry     beta=0.70
     Davidson diagonalization with overlap
     ethr =  8.24E-03,  avg # of iterations =  3.0

     negative rho (up, down):  2.268E-03 0.000E+00

     total cpu time spent up to now is       11.8 secs

     total energy              =   -1776.41661885 Ry
     Harris-Foulkes estimate   =   -1809.14023538 Ry
     estimated scf accuracy    <      72.63893342 Ry

     iteration #  3     ecut=    30.00 Ry     beta=0.70
     Davidson diagonalization with overlap
     ethr =  8.24E-03,  avg # of iterations =  5.0

     negative rho (up, down):  3.168E-05 0.000E+00

     total cpu time spent up to now is       15.5 secs

     total energy              =   -1796.14039821 Ry
     Harris-Foulkes estimate   =   -1811.13693176 Ry
     estimated scf accuracy    <      47.48368720 Ry

     iteration #  4     ecut=    30.00 Ry     beta=0.70
     Davidson diagonalization with overlap
     ethr =  8.24E-03,  avg # of iterations =  3.0

     total cpu time spent up to now is       17.3 secs

     total energy              =   -1802.89143503 Ry
     Harris-Foulkes estimate   =   -1805.39424002 Ry
     estimated scf accuracy    <       7.49855172 Ry

     iteration #  5     ecut=    30.00 Ry     beta=0.70
     Davidson diagonalization with overlap
     ethr =  1.46E-03,  avg # of iterations =  5.0

     total cpu time spent up to now is       19.8 secs

     total energy              =   -1802.70068353 Ry
     Harris-Foulkes estimate   =   -1803.35177514 Ry
     estimated scf accuracy    <       2.61931468 Ry

     iteration #  6     ecut=    30.00 Ry     beta=0.70
     Davidson diagonalization with overlap
     ethr =  5.12E-04,  avg # of iterations =  4.0

     total cpu time spent up to now is       21.9 secs

     total energy              =   -1802.63595235 Ry
     Harris-Foulkes estimate   =   -1802.83396567 Ry
     estimated scf accuracy    <       1.05860595 Ry

     iteration #  7     ecut=    30.00 Ry     beta=0.70
     Davidson diagonalization with overlap
     ethr =  2.07E-04,  avg # of iterations =  9.0

     total cpu time spent up to now is       25.4 secs

     total energy              =   -1802.51500584 Ry
     Harris-Foulkes estimate   =   -1802.70823927 Ry
     estimated scf accuracy    <       0.75917049 Ry

     iteration #  8     ecut=    30.00 Ry     beta=0.70
     Davidson diagonalization with overlap
     ethr =  1.48E-04,  avg # of iterations =  6.0

     total cpu time spent up to now is       28.2 secs

     total energy              =   -1802.51706983 Ry
     Harris-Foulkes estimate   =   -1802.57466694 Ry
     estimated scf accuracy    <       0.25555750 Ry

     iteration #  9     ecut=    30.00 Ry     beta=0.70
     Davidson diagonalization with overlap
     ethr =  4.99E-05,  avg # of iterations =  3.0

     total cpu time spent up to now is       30.0 secs

     total energy              =   -1802.53375257 Ry
     Harris-Foulkes estimate   =   -1802.56509994 Ry
     estimated scf accuracy    <       0.14072964 Ry

     iteration # 10     ecut=    30.00 Ry     beta=0.70
     Davidson diagonalization with overlap
     ethr =  2.75E-05,  avg # of iterations =  5.0

     total cpu time spent up to now is       32.3 secs

     total energy              =   -1802.53418448 Ry
     Harris-Foulkes estimate   =   -1802.55164408 Ry
     estimated scf accuracy    <       0.07743550 Ry

     iteration # 11     ecut=    30.00 Ry     beta=0.70
     Davidson diagonalization with overlap
     ethr =  1.51E-05,  avg # of iterations =  2.0

     total cpu time spent up to now is       33.8 secs

     total energy              =   -1802.53584406 Ry
     Harris-Foulkes estimate   =   -1802.54423084 Ry
     estimated scf accuracy    <       0.03726301 Ry

     iteration # 12     ecut=    30.00 Ry     beta=0.70
     Davidson diagonalization with overlap
     ethr =  7.28E-06,  avg # of iterations = 10.0

     total cpu time spent up to now is       37.8 secs

     total energy              =   -1802.53491306 Ry
     Harris-Foulkes estimate   =   -1802.54476921 Ry
     estimated scf accuracy    <       0.05157328 Ry

     iteration # 13     ecut=    30.00 Ry     beta=0.70
     Davidson diagonalization with overlap
     ethr =  7.28E-06,  avg # of iterations =  2.0

     total cpu time spent up to now is       39.2 secs

     total energy              =   -1802.53991133 Ry
     Harris-Foulkes estimate   =   -1802.54128769 Ry
     estimated scf accuracy    <       0.00816605 Ry

     iteration # 14     ecut=    30.00 Ry     beta=0.70
     Davidson diagonalization with overlap
     ethr =  1.59E-06,  avg # of iterations =  2.0

     total cpu time spent up to now is       40.7 secs

     total energy              =   -1802.54056623 Ry
     Harris-Foulkes estimate   =   -1802.54077953 Ry
     estimated scf accuracy    <       0.00129049 Ry

     iteration # 15     ecut=    30.00 Ry     beta=0.70
     Davidson diagonalization with overlap
     ethr =  2.52E-07,  avg # of iterations =  2.0

     total cpu time spent up to now is       42.1 secs

     total energy              =   -1802.54068083 Ry
     Harris-Foulkes estimate   =   -1802.54073224 Ry
     estimated scf accuracy    <       0.00026590 Ry

     iteration # 16     ecut=    30.00 Ry     beta=0.70
     Davidson diagonalization with overlap
     ethr =  5.19E-08,  avg # of iterations =  2.0

     total cpu time spent up to now is       43.5 secs

     total energy              =   -1802.54070539 Ry
     Harris-Foulkes estimate   =   -1802.54071968 Ry
     estimated scf accuracy    <       0.00007093 Ry

     iteration # 17     ecut=    30.00 Ry     beta=0.70
     Davidson diagonalization with overlap
     ethr =  1.39E-08,  avg # of iterations =  2.0

     total cpu time spent up to now is       44.9 secs

     total energy              =   -1802.54071294 Ry
     Harris-Foulkes estimate   =   -1802.54071761 Ry
     estimated scf accuracy    <       0.00003480 Ry

     iteration # 18     ecut=    30.00 Ry     beta=0.70
     Davidson diagonalization with overlap
     ethr =  6.80E-09,  avg # of iterations =  2.0

     total cpu time spent up to now is       46.4 secs

     total energy              =   -1802.54071514 Ry
     Harris-Foulkes estimate   =   -1802.54071655 Ry
     estimated scf accuracy    <       0.00001053 Ry

     iteration # 19     ecut=    30.00 Ry     beta=0.70
     Davidson diagonalization with overlap
     ethr =  2.06E-09,  avg # of iterations =  2.0

     total cpu time spent up to now is       47.8 secs

     total energy              =   -1802.54071604 Ry
     Harris-Foulkes estimate   =   -1802.54071601 Ry
     estimated scf accuracy    <       0.00000027 Ry

     iteration # 20     ecut=    30.00 Ry     beta=0.70
     Davidson diagonalization with overlap
     ethr =  5.32E-11,  avg # of iterations =  3.0

     total cpu time spent up to now is       49.9 secs

     total energy              =   -1802.54071610 Ry
     Harris-Foulkes estimate   =   -1802.54071613 Ry
     estimated scf accuracy    <       0.00000018 Ry

     iteration # 21     ecut=    30.00 Ry     beta=0.70
     Davidson diagonalization with overlap
     ethr =  3.55E-11,  avg # of iterations =  3.0

     total cpu time spent up to now is       51.6 secs

     total energy              =   -1802.54071614 Ry
     Harris-Foulkes estimate   =   -1802.54071614 Ry
     estimated scf accuracy    <       0.00000010 Ry

     iteration # 22     ecut=    30.00 Ry     beta=0.70
     Davidson diagonalization with overlap
     ethr =  2.00E-11,  avg # of iterations =  2.0

     total cpu time spent up to now is       53.1 secs

     total energy              =   -1802.54071615 Ry
     Harris-Foulkes estimate   =   -1802.54071615 Ry
     estimated scf accuracy    <       0.00000002 Ry

     iteration # 23     ecut=    30.00 Ry     beta=0.70
     Davidson diagonalization with overlap
     ethr =  3.21E-12,  avg # of iterations =  3.0

     total cpu time spent up to now is       54.8 secs

     End of self-consistent calculation

          k = 0.0000 0.0000 0.0000 ( 22119 PWs)   bands (ev):

   -42.1084 -40.1741 -39.3760 -38.9276 -38.5294 -37.4786 -36.9207 -36.4573
   -35.7549 -35.6247 -35.3539 -34.9420 -34.5477 -34.3899 -34.2275 -33.8298
   -33.6285 -33.2125 -33.0793 -32.7310 -32.4585 -32.4091 -32.1438 -31.9232
   -31.8106 -31.6998 -31.1959 -30.9913 -30.9610 -30.5584 -30.4205 -30.3000
   -29.9630 -29.7013 -29.6551 -29.4916 -29.2183 -29.1295 -29.0398 -28.8210
   -28.6729 -28.4847 -28.4760 -28.1820 -28.0225 -27.9594 -27.7457 -27.6282
   -27.3706 -27.2822 -27.1868 -27.1086 -27.0017 -26.9279 -26.9007 -26.8370
   -26.6711 -26.3188 -26.0642 -25.4670 -25.2967 -24.8767 -24.6059 -24.4827
   -21.9273 -21.8755 -21.5551 -21.1100 -20.5392 -20.3467 -20.2576 -20.0389
   -19.9080 -19.6705 -19.6176 -18.9204 -18.8347 -18.6630 -18.4768 -18.4353
   -18.1957 -18.1084 -17.8086 -17.6925 -17.6650 -17.3311 -17.1492 -16.9421
   -16.7449 -16.6032 -16.5757 -16.4911 -16.2105 -15.9948 -15.8142 -15.4944
   -15.1621 -15.1095 -14.9071 -14.8823 -14.7325 -14.4913 -14.4592 -14.3975
   -14.1833 -14.0139 -13.9751 -13.8160 -13.6387 -13.4064 -13.3502 -13.2848
   -13.1730 -13.0243 -12.7406 -12.6735 -12.6111 -12.4872 -12.4136 -12.2752
   -12.1777 -12.1383 -12.0926 -11.9302 -11.9075 -11.7842 -11.5994 -11.4833
   -11.0722 -10.9492 -10.7562 -10.3449  -9.6613  -9.4730  -9.0484  -8.8512
    -8.7183  -8.5270  -8.2806  -8.1387  -8.0328  -7.8477  -7.7749  -7.4758
    -7.3318  -7.2309  -6.9838  -6.8692  -6.7411  -6.6015  -6.4930  -6.4719
    -6.3350  -6.1990  -6.1297  -5.9943  -5.9628  -5.9019  -5.7300  -5.6617
    -5.4134  -5.3176  -5.2614  -5.0691  -5.0346  -4.9542  -4.8574  -4.8059
    -4.7481  -4.5924  -4.4509  -4.3588  -4.2343  -4.1696  -4.0742  -3.9788
    -3.8875  -3.7429  -3.6762  -3.5549  -3.4836  -3.4485  -3.4089  -3.2782
    -3.1341  -2.9904  -2.8562  -2.7620  -2.6077  -2.5262  -2.4432  -2.4028
    -2.3653  -2.2012  -2.0919  -2.0045  -1.9519  -1.8551  -1.7772  -1.7188
    -1.6298  -1.4687  -1.3577  -1.3221  -1.2207  -1.0649  -1.0342  -0.9557
    -0.8854  -0.7541  -0.6684  -0.4891  -0.4369  -0.3541  -0.3113  -0.2193
    -0.1771  -0.0543   0.1240   0.1997   0.3079   0.5000   0.5777   0.6703
     0.7868   1.0612   1.1192   1.2789   1.3932   1.5316   1.6016   1.8542
     1.9896   2.0937   2.2088   2.4670   2.5342   2.5708   2.7634   2.8685
     2.9990   3.0639   3.3058   3.3448   3.4586   3.6714   3.8098   3.8950
     3.9940   4.1289   4.6296   4.7054   5.1412   5.2295   5.4022   5.5525
     5.6441   6.3476   6.4451   6.5995   6.9101   7.0770   7.2644   7.5177
     7.5732   7.6287   7.8637   8.0365   8.1715   8.2317   8.5812   8.6915
     8.8225   8.9366   9.0325   9.5615   9.6155   9.7746   9.8313  10.0496
    10.1285  10.1814  10.3216  10.4638  10.6090  10.6544  10.7528  10.8491
    10.9200  11.0539  11.1229  11.2158  11.2389  11.3326  11.4257  11.5105
    11.5571  11.5817  11.8365  11.8876  11.9322  11.9959  12.0210  12.1406
    12.1900  12.2385  12.2697

     the Fermi energy is     5.6344 ev

!    total energy              =   -1802.54071616 Ry
     Harris-Foulkes estimate   =   -1802.54071615 Ry
     estimated scf accuracy    <          3.6E-09 Ry

     The total energy is the sum of the following terms:

     one-electron contribution =  -13837.77431074 Ry
     hartree contribution      =    7088.18963192 Ry
     xc contribution           =    -634.74137932 Ry
     ewald contribution        =    5581.78475945 Ry
     smearing contrib. (-TS)   =       0.00058253 Ry

     convergence has been achieved in  23 iterations

     Writing output data file pwscf.save
 
     init_run     :      0.56s CPU      0.62s WALL (       1 calls)
     electrons    :     52.43s CPU     54.09s WALL (       1 calls)

     Called by init_run:
     wfcinit      :      0.46s CPU      0.51s WALL (       1 calls)
     potinit      :      0.02s CPU      0.03s WALL (       1 calls)

     Called by electrons:
     c_bands      :     50.07s CPU     51.42s WALL (      23 calls)
     sum_band     :      1.94s CPU      1.98s WALL (      23 calls)
     v_of_rho     :      0.18s CPU      0.20s WALL (      24 calls)
     mix_rho      :      0.15s CPU      0.28s WALL (      23 calls)

     Called by c_bands:
     init_us_2    :      0.06s CPU      0.06s WALL (      47 calls)
     cegterg      :     49.95s CPU     51.23s WALL (      23 calls)

     Called by sum_band:

     Called by *egterg:
     h_psi        :      8.67s CPU      8.87s WALL (     112 calls)
     g_psi        :      0.07s CPU      0.07s WALL (      88 calls)
     cdiaghg      :     31.85s CPU     31.89s WALL (     111 calls)

     Called by h_psi:
     h_psi:pot    :      8.46s CPU      8.65s WALL (     112 calls)
     h_psi:calbec :      0.32s CPU      0.32s WALL (     112 calls)
     vloc_psi     :      7.87s CPU      8.04s WALL (     112 calls)
     add_vuspsi   :      0.27s CPU      0.28s WALL (     112 calls)

     General routines
     calbec       :      0.32s CPU      0.32s WALL (     112 calls)
     fft          :      0.10s CPU      0.11s WALL (     263 calls)
     fftw         :      8.77s CPU      8.96s WALL (   39353 calls)
     davcio       :      0.02s CPU      0.14s WALL (     368 calls)
 
     Parallel routines
     fft_scatter  :      3.08s CPU      3.17s WALL (   39616 calls)
 
     PWSCF        :    53.15s CPU        55.09s WALL

 
   This run was terminated on:  18:54:27   2Feb2018            

=------------------------------------------------------------------------------=
   JOB DONE.
=------------------------------------------------------------------------------=
