
     Program PWSCF v.6.0 (svn rev. 13079) starts on  2Feb2018 at 18:58: 4 

     This program is part of the open-source Quantum ESPRESSO suite
     for quantum simulation of materials; please cite
         "P. Giannozzi et al., J. Phys.:Condens. Matter 21 395502 (2009);
          URL http://www.quantum-espresso.org", 
     in publications or presentations arising from this work. More details at
     http://www.quantum-espresso.org/quote

     Parallel version (MPI), running on    28 processors
     R & G space division:  proc/nbgrp/npool/nimage =      28
     Reading input from input/scf-bigwater-1/860.in
Warning: card &IONS ignored
Warning: card     POT_EXTRAPOLATION='SECOND-ORDER' ignored
Warning: card     WFC_EXTRAPOLATION='SECOND-ORDER' ignored
Warning: card     ION_TEMPERATURE = 'ANDERSEN' ignored
Warning: card     TEMPW = 1000 ignored
Warning: card / ignored

     Current dimensions of program PWSCF are:
     Max number of different atomic species (ntypx) = 10
     Max number of k-points (npk) =  40000
     Max angular momentum in pseudopotentials (lmaxx) =  3

     Subspace diagonalization in iterative solution of the eigenvalue problem:
     a serial algorithm will be used

 
     Parallelization info
     --------------------
     sticks:   dense  smooth     PW     G-vecs:    dense   smooth      PW
     Min         136     136     33                 6338     6338     787
     Max         137     137     34                 6341     6341     792
     Sum        3809    3809    949               177509   177509   22119
 


     bravais-lattice index     =            1
     lattice parameter (alat)  =      20.0000  a.u.
     unit-cell volume          =    8000.0000 (a.u.)^3
     number of atoms/cell      =          192
     number of atomic types    =            2
     number of electrons       =       512.00
     number of Kohn-Sham states=          307
     kinetic-energy cutoff     =      30.0000  Ry
     charge density cutoff     =     120.0000  Ry
     convergence threshold     =      1.0E-08
     mixing beta               =       0.7000
     number of iterations used =            8  plain     mixing
     Exchange-correlation      = BLYP ( 1  3  1  3 0 0)

     celldm(1)=  20.000000  celldm(2)=   0.000000  celldm(3)=   0.000000
     celldm(4)=   0.000000  celldm(5)=   0.000000  celldm(6)=   0.000000

     crystal axes: (cart. coord. in units of alat)
               a(1) = (   1.000000   0.000000   0.000000 )  
               a(2) = (   0.000000   1.000000   0.000000 )  
               a(3) = (   0.000000   0.000000   1.000000 )  

     reciprocal axes: (cart. coord. in units 2 pi/alat)
               b(1) = (  1.000000  0.000000  0.000000 )  
               b(2) = (  0.000000  1.000000  0.000000 )  
               b(3) = (  0.000000  0.000000  1.000000 )  


     PseudoPot. # 1 for  H read from file:
     ./H.blyp-hgh.UPF
     MD5 check sum: c576e69559cde411e611be972c763230
     Pseudo is Norm-conserving, Zval =  1.0
     Generated in analytical, separable form
     Using radial grid of  929 points,  0 beta functions with: 

     PseudoPot. # 2 for  O read from file:
     ./O.blyp-hgh.UPF
     MD5 check sum: d0b7156309aa9befef28faac7bc56342
     Pseudo is Norm-conserving, Zval =  6.0
     Generated in analytical, separable form
     Using radial grid of 1095 points,  1 beta functions with: 
                l(1) =   0

     atomic species   valence    mass     pseudopotential
        H              1.00     1.01000      H( 1.00)
        O              6.00    16.00000      O( 1.00)

     No symmetry found



   Cartesian axes

     site n.     atom                  positions (alat units)
         1           O   tau(   1) = (  -0.2640081  -0.0739549  -0.0566944  )
         2           O   tau(   2) = (   0.1368788  -0.1337574   0.3081003  )
         3           O   tau(   3) = (  -0.2710762   0.3210426  -0.2667460  )
         4           O   tau(   4) = (   0.0543893   0.1625099  -0.0493360  )
         5           O   tau(   5) = (  -0.2532642   0.0713774   0.1735839  )
         6           O   tau(   6) = (  -0.0102343   0.3073330   0.2975780  )
         7           O   tau(   7) = (  -0.0527544  -0.2690068  -0.1252338  )
         8           O   tau(   8) = (   0.1451213   0.0556818   0.2239745  )
         9           O   tau(   9) = (  -0.1369747  -0.3185835   0.2861497  )
        10           O   tau(  10) = (   0.1127281  -0.1248895   0.1684626  )
        11           O   tau(  11) = (   0.1208503  -0.3254999   0.1283452  )
        12           O   tau(  12) = (  -0.1705251  -0.1823264   0.2104789  )
        13           O   tau(  13) = (  -0.2401259  -0.3479435   0.0320308  )
        14           O   tau(  14) = (  -0.1949977  -0.2451566  -0.1794021  )
        15           O   tau(  15) = (   0.1319178  -0.1793498  -0.1017400  )
        16           O   tau(  16) = (  -0.1033710   0.1435046  -0.0443469  )
        17           O   tau(  17) = (  -0.0734992  -0.1494638   0.1046600  )
        18           O   tau(  18) = (   0.0329329  -0.2385030   0.1736971  )
        19           O   tau(  19) = (   0.2332154  -0.2223087  -0.2400583  )
        20           O   tau(  20) = (   0.2630540   0.2364422   0.1101682  )
        21           O   tau(  21) = (   0.2588942  -0.1952444   0.1792328  )
        22           O   tau(  22) = (  -0.1261504  -0.1166264  -0.1632018  )
        23           O   tau(  23) = (  -0.0622749   0.1534945  -0.2243185  )
        24           O   tau(  24) = (   0.2126817   0.0898504   0.1092480  )
        25           O   tau(  25) = (   0.1436337   0.0596738  -0.1813085  )
        26           O   tau(  26) = (  -0.2231809   0.1502168  -0.2734643  )
        27           O   tau(  27) = (   0.2538797  -0.2869596  -0.0206260  )
        28           O   tau(  28) = (   0.0499296  -0.0118254  -0.2898799  )
        29           O   tau(  29) = (  -0.1048067   0.0329909  -0.2547474  )
        30           O   tau(  30) = (   0.0495356  -0.0479305   0.0835712  )
        31           O   tau(  31) = (   0.2855039  -0.1056488  -0.1985912  )
        32           O   tau(  32) = (   0.2199459  -0.0090533  -0.0563813  )
        33           O   tau(  33) = (   0.0239029   0.2143701   0.2014102  )
        34           O   tau(  34) = (  -0.2243013   0.0329986  -0.1733600  )
        35           O   tau(  35) = (   0.0067496  -0.1891897  -0.0364852  )
        36           O   tau(  36) = (   0.2547983   0.2098242  -0.3236368  )
        37           O   tau(  37) = (   0.1586952   0.3253241   0.2869323  )
        38           O   tau(  38) = (  -0.2719768   0.2624132  -0.1248613  )
        39           O   tau(  39) = (  -0.0011174   0.0539091  -0.1288095  )
        40           O   tau(  40) = (  -0.1947322  -0.1936734  -0.0516669  )
        41           O   tau(  41) = (  -0.1483212   0.2811345   0.1539815  )
        42           O   tau(  42) = (  -0.1207416   0.1681503   0.2109072  )
        43           O   tau(  43) = (  -0.0829089  -0.0949501  -0.0232251  )
        44           O   tau(  44) = (  -0.0693765  -0.0810333   0.2647784  )
        45           O   tau(  45) = (   0.0142234   0.0965723   0.2949448  )
        46           O   tau(  46) = (  -0.2417365   0.1457952   0.0779360  )
        47           O   tau(  47) = (   0.1793595   0.2306595  -0.0890647  )
        48           O   tau(  48) = (   0.0775176  -0.2871533  -0.1974794  )
        49           O   tau(  49) = (  -0.1573459   0.2218214  -0.1565590  )
        50           O   tau(  50) = (   0.2491617   0.0430439   0.3299659  )
        51           O   tau(  51) = (  -0.0825673   0.0444242   0.1026938  )
        52           O   tau(  52) = (   0.0017800  -0.0862574  -0.1892766  )
        53           O   tau(  53) = (   0.0117686  -0.1833464  -0.2948361  )
        54           O   tau(  54) = (   0.3385317  -0.3024369   0.1979265  )
        55           O   tau(  55) = (   0.1847111  -0.1446699   0.0558745  )
        56           O   tau(  56) = (   0.2960399  -0.0471770   0.1488628  )
        57           O   tau(  57) = (   0.0739266   0.1881868  -0.2156155  )
        58           O   tau(  58) = (  -0.0779451  -0.3510033   0.0089068  )
        59           O   tau(  59) = (  -0.2540910  -0.0798458  -0.3205695  )
        60           O   tau(  60) = (  -0.2149470   0.0771123  -0.0424043  )
        61           O   tau(  61) = (   0.2671187   0.1848319  -0.1893966  )
        62           O   tau(  62) = (   0.0819015  -0.0349372  -0.0771314  )
        63           O   tau(  63) = (  -0.2355879  -0.1715112   0.0929018  )
        64           O   tau(  64) = (   0.0881872   0.1501516   0.0894440  )
        65           H   tau(  65) = (  -0.2328163  -0.1089673  -0.0415370  )
        66           H   tau(  66) = (  -0.2366427  -0.0392353  -0.0796792  )
        67           H   tau(  67) = (   0.1358785  -0.0845572   0.3075550  )
        68           H   tau(  68) = (   0.1335569  -0.1415876   0.2585249  )
        69           H   tau(  69) = (  -0.2951896   0.2899001  -0.2383969  )
        70           H   tau(  70) = (  -0.2393800   0.3483143  -0.2372520  )
        71           H   tau(  71) = (   0.0736252   0.1184467  -0.0551947  )
        72           H   tau(  72) = (   0.0916167   0.1931764  -0.0622203  )
        73           H   tau(  73) = (  -0.2678624   0.0272776   0.1546202  )
        74           H   tau(  74) = (  -0.2251326   0.0559694   0.2097780  )
        75           H   tau(  75) = (  -0.0114020   0.3506554   0.2746420  )
        76           H   tau(  76) = (   0.0008797   0.3246722   0.3420008  )
        77           H   tau(  77) = (  -0.0400722  -0.3027368  -0.0924951  )
        78           H   tau(  78) = (  -0.0108132  -0.2650971  -0.1507500  )
        79           H   tau(  79) = (   0.1678084   0.0851226   0.1907523  )
        80           H   tau(  80) = (   0.0984172   0.0685898   0.2326185  )
        81           H   tau(  81) = (  -0.1666979  -0.3569897   0.2927089  )
        82           H   tau(  82) = (  -0.0920838  -0.3318838   0.3035310  )
        83           H   tau(  83) = (   0.0942018  -0.0818061   0.1504492  )
        84           H   tau(  84) = (   0.1429493  -0.1298720   0.1264687  )
        85           H   tau(  85) = (   0.0826923  -0.3560389   0.1337228  )
        86           H   tau(  86) = (   0.1000695  -0.2805342   0.1319292  )
        87           H   tau(  87) = (  -0.1710364  -0.2118921   0.2501432  )
        88           H   tau(  88) = (  -0.1979385  -0.2067985   0.1769122  )
        89           H   tau(  89) = (  -0.2607737  -0.3932956   0.0403929  )
        90           H   tau(  90) = (  -0.2319871  -0.3479779  -0.0161594  )
        91           H   tau(  91) = (  -0.1673502  -0.2051438  -0.1867555  )
        92           H   tau(  92) = (  -0.1585823  -0.2772748  -0.1729077  )
        93           H   tau(  93) = (   0.1529611  -0.1394235  -0.1201423  )
        94           H   tau(  94) = (   0.0868180  -0.1688640  -0.0829754  )
        95           H   tau(  95) = (  -0.1129528   0.1636653  -0.0877862  )
        96           H   tau(  96) = (  -0.0644062   0.1643319  -0.0216850  )
        97           H   tau(  97) = (  -0.1010676  -0.1464303   0.0626456  )
        98           H   tau(  98) = (  -0.0350755  -0.1227942   0.0941897  )
        99           H   tau(  99) = (   0.0585907  -0.1965738   0.1794551  )
       100           H   tau( 100) = (  -0.0099082  -0.2195527   0.1600393  )
       101           H   tau( 101) = (   0.2566554  -0.2616288  -0.2556252  )
       102           H   tau( 102) = (   0.2174474  -0.1867213  -0.2688924  )
       103           H   tau( 103) = (   0.2136857   0.2413819   0.1096462  )
       104           H   tau( 104) = (   0.2783216   0.2672675   0.1470660  )
       105           H   tau( 105) = (   0.3027382  -0.1764066   0.1678270  )
       106           H   tau( 106) = (   0.2415430  -0.1633316   0.2120922  )
       107           H   tau( 107) = (  -0.0783675  -0.1037727  -0.1715647  )
       108           H   tau( 108) = (  -0.1501388  -0.0899679  -0.1963131  )
       109           H   tau( 109) = (  -0.0129311   0.1524006  -0.2327446  )
       110           H   tau( 110) = (  -0.0672131   0.1050684  -0.2155655  )
       111           H   tau( 111) = (   0.2183596   0.1379711   0.1014296  )
       112           H   tau( 112) = (   0.1677659   0.0793139   0.0934152  )
       113           H   tau( 113) = (   0.1036931   0.0395962  -0.2011356  )
       114           H   tau( 114) = (   0.1362743   0.1081714  -0.1803198  )
       115           H   tau( 115) = (  -0.2588407   0.1352926  -0.3028399  )
       116           H   tau( 116) = (  -0.2290521   0.1135755  -0.2417546  )
       117           H   tau( 117) = (   0.2581328  -0.3153422   0.0193366  )
       118           H   tau( 118) = (   0.2981857  -0.2894865  -0.0405001  )
       119           H   tau( 119) = (   0.0302715  -0.0305785  -0.3309197  )
       120           H   tau( 120) = (   0.0272485   0.0318957  -0.2900472  )
       121           H   tau( 121) = (  -0.1079505   0.0086038  -0.2978680  )
       122           H   tau( 122) = (  -0.1280516   0.0025375  -0.2243339  )
       123           H   tau( 123) = (   0.0409093   0.0001231   0.0775580  )
       124           H   tau( 124) = (   0.0742518  -0.0545104   0.0412403  )
       125           H   tau( 125) = (   0.2609356  -0.1477545  -0.2017196  )
       126           H   tau( 126) = (   0.2819984  -0.0818210  -0.1562906  )
       127           H   tau( 127) = (   0.2348476   0.0329810  -0.0371337  )
       128           H   tau( 128) = (   0.2518280  -0.0412564  -0.0373554  )
       129           H   tau( 129) = (   0.0352179   0.2498861   0.2336771  )
       130           H   tau( 130) = (  -0.0191784   0.2305313   0.1789565  )
       131           H   tau( 131) = (  -0.2421728   0.0752365  -0.1569296  )
       132           H   tau( 132) = (  -0.2442222   0.0210640  -0.2163694  )
       133           H   tau( 133) = (  -0.0414145  -0.1980037  -0.0404648  )
       134           H   tau( 134) = (   0.0079806  -0.1728289   0.0094887  )
       135           H   tau( 135) = (   0.2414973   0.2530842  -0.3432219  )
       136           H   tau( 136) = (   0.2798278   0.1812900  -0.3543236  )
       137           H   tau( 137) = (   0.1467417   0.3226586   0.2388616  )
       138           H   tau( 138) = (   0.1610844   0.3742980   0.2884070  )
       139           H   tau( 139) = (  -0.3123636   0.2488320  -0.1474131  )
       140           H   tau( 140) = (  -0.2354255   0.2300501  -0.1315236  )
       141           H   tau( 141) = (  -0.0453604   0.0329260  -0.1293622  )
       142           H   tau( 142) = (  -0.0074646   0.1009544  -0.1148597  )
       143           H   tau( 143) = (  -0.2214562  -0.1892159  -0.0932660  )
       144           H   tau( 144) = (  -0.2014272  -0.2418340  -0.0431961  )
       145           H   tau( 145) = (  -0.1804551   0.2874980   0.1176791  )
       146           H   tau( 146) = (  -0.1607895   0.3113434   0.1903236  )
       147           H   tau( 147) = (  -0.1494393   0.2060729   0.1958862  )
       148           H   tau( 148) = (  -0.1486924   0.1290806   0.2183182  )
       149           H   tau( 149) = (  -0.0916006  -0.1113726  -0.0689058  )
       150           H   tau( 150) = (  -0.1095667  -0.0538937  -0.0264891  )
       151           H   tau( 151) = (  -0.0876795  -0.1097006   0.2295180  )
       152           H   tau( 152) = (  -0.0607862  -0.1096815   0.3032119  )
       153           H   tau( 153) = (   0.0364073   0.1326966   0.2717882  )
       154           H   tau( 154) = (  -0.0320059   0.1082497   0.3027061  )
       155           H   tau( 155) = (  -0.2618666   0.1090259   0.1023691  )
       156           H   tau( 156) = (  -0.1977270   0.1518801   0.0974032  )
       157           H   tau( 157) = (   0.1869501   0.2759250  -0.0714443  )
       158           H   tau( 158) = (   0.2139571   0.2330837  -0.1241514  )
       159           H   tau( 159) = (   0.1178238  -0.2882054  -0.2253620  )
       160           H   tau( 160) = (   0.0965477  -0.2653967  -0.1578139  )
       161           H   tau( 161) = (  -0.1526906   0.2043302  -0.2025873  )
       162           H   tau( 162) = (  -0.1121046   0.2401032  -0.1587377  )
       163           H   tau( 163) = (   0.2262996   0.0357956   0.3722209  )
       164           H   tau( 164) = (   0.2127557   0.0600192   0.3002121  )
       165           H   tau( 165) = (  -0.0826328  -0.0042443   0.0948847  )
       166           H   tau( 166) = (  -0.1218160   0.0454750   0.1330201  )
       167           H   tau( 167) = (   0.0325162  -0.0956070  -0.1519435  )
       168           H   tau( 168) = (   0.0132834  -0.0423542  -0.2076507  )
       169           H   tau( 169) = (  -0.0045825  -0.1648827  -0.2521238  )
       170           H   tau( 170) = (   0.0525658  -0.1546687  -0.2966153  )
       171           H   tau( 171) = (   0.3300954  -0.2978264   0.2461657  )
       172           H   tau( 172) = (   0.3209170  -0.2595117   0.1834555  )
       173           H   tau( 173) = (   0.2012533  -0.1904512   0.0493328  )
       174           H   tau( 174) = (   0.1535951  -0.1447269   0.0175032  )
       175           H   tau( 175) = (   0.2714974  -0.0538271   0.1071570  )
       176           H   tau( 176) = (   0.2603777  -0.0509185   0.1821979  )
       177           H   tau( 177) = (   0.0859777   0.1944035  -0.2621546  )
       178           H   tau( 178) = (   0.0841242   0.2292671  -0.1907196  )
       179           H   tau( 179) = (  -0.0840074  -0.3520471   0.0574009  )
       180           H   tau( 180) = (  -0.1213982  -0.3622993  -0.0102463  )
       181           H   tau( 181) = (  -0.2754087  -0.0910856  -0.2771354  )
       182           H   tau( 182) = (  -0.2341162  -0.1220623  -0.3360970  )
       183           H   tau( 183) = (  -0.1746303   0.0612163  -0.0200697  )
       184           H   tau( 184) = (  -0.2140052   0.1240874  -0.0296536  )
       185           H   tau( 185) = (   0.2572157   0.1932264  -0.2377340  )
       186           H   tau( 186) = (   0.2410048   0.1467728  -0.1735047  )
       187           H   tau( 187) = (   0.1267967  -0.0156807  -0.0754544  )
       188           H   tau( 188) = (   0.0565175  -0.0066248  -0.1077425  )
       189           H   tau( 189) = (  -0.2833600  -0.1723751   0.0819614  )
       190           H   tau( 190) = (  -0.2259043  -0.1254098   0.1059232  )
       191           H   tau( 191) = (   0.0566972   0.1718197   0.1201876  )
       192           H   tau( 192) = (   0.0701882   0.1609879   0.0445449  )

     number of k points=     1  Marzari-Vanderbilt smearing, width (Ry)=  0.0250
                       cart. coord. in units 2pi/alat
        k(    1) = (   0.0000000   0.0000000   0.0000000), wk =   2.0000000

     Dense  grid:   177509 G-vectors     FFT dimensions: (  72,  72,  72)

     Estimated max dynamical RAM per process >      67.80Mb

     Estimated total allocated dynamical RAM >    1898.40Mb

     Initial potential from superposition of free atoms
     Check: negative starting charge=   -0.758480

     starting charge  511.99856, renormalised to  512.00000

     negative rho (up, down):  7.585E-01 0.000E+00
     Starting wfc are  384 randomized atomic wfcs

     total cpu time spent up to now is        0.8 secs

     per-process dynamical memory:    45.9 Mb

     Self-consistent Calculation

     iteration #  1     ecut=    30.00 Ry     beta=0.70
     Davidson diagonalization with overlap
     ethr =  1.00E-02,  avg # of iterations =  8.0

     negative rho (up, down):  1.785E-01 0.000E+00

     total cpu time spent up to now is        9.1 secs

     total energy              =   -1795.24491045 Ry
     Harris-Foulkes estimate   =   -1822.73755865 Ry
     estimated scf accuracy    <      42.21330414 Ry

     iteration #  2     ecut=    30.00 Ry     beta=0.70
     Davidson diagonalization with overlap
     ethr =  8.24E-03,  avg # of iterations =  4.0

     negative rho (up, down):  2.133E-03 0.000E+00

     total cpu time spent up to now is       12.3 secs

     total energy              =   -1776.25379154 Ry
     Harris-Foulkes estimate   =   -1809.13329289 Ry
     estimated scf accuracy    <      73.07165764 Ry

     iteration #  3     ecut=    30.00 Ry     beta=0.70
     Davidson diagonalization with overlap
     ethr =  8.24E-03,  avg # of iterations =  5.0

     negative rho (up, down):  2.487E-05 0.000E+00

     total cpu time spent up to now is       16.0 secs

     total energy              =   -1796.01143821 Ry
     Harris-Foulkes estimate   =   -1811.14750323 Ry
     estimated scf accuracy    <      48.06449420 Ry

     iteration #  4     ecut=    30.00 Ry     beta=0.70
     Davidson diagonalization with overlap
     ethr =  8.24E-03,  avg # of iterations =  3.0

     total cpu time spent up to now is       17.9 secs

     total energy              =   -1802.91434593 Ry
     Harris-Foulkes estimate   =   -1805.43801274 Ry
     estimated scf accuracy    <       7.54182284 Ry

     iteration #  5     ecut=    30.00 Ry     beta=0.70
     Davidson diagonalization with overlap
     ethr =  1.47E-03,  avg # of iterations =  5.0

     total cpu time spent up to now is       20.4 secs

     total energy              =   -1802.69830289 Ry
     Harris-Foulkes estimate   =   -1803.37270411 Ry
     estimated scf accuracy    <       2.60799668 Ry

     iteration #  6     ecut=    30.00 Ry     beta=0.70
     Davidson diagonalization with overlap
     ethr =  5.09E-04,  avg # of iterations =  5.0

     total cpu time spent up to now is       22.9 secs

     total energy              =   -1802.53929315 Ry
     Harris-Foulkes estimate   =   -1802.80548567 Ry
     estimated scf accuracy    <       1.01676063 Ry

     iteration #  7     ecut=    30.00 Ry     beta=0.70
     Davidson diagonalization with overlap
     ethr =  1.99E-04,  avg # of iterations =  7.0

     total cpu time spent up to now is       26.0 secs

     total energy              =   -1802.54513637 Ry
     Harris-Foulkes estimate   =   -1802.60644355 Ry
     estimated scf accuracy    <       0.44313419 Ry

     iteration #  8     ecut=    30.00 Ry     beta=0.70
     Davidson diagonalization with overlap
     ethr =  8.65E-05,  avg # of iterations =  2.0

     total cpu time spent up to now is       27.5 secs

     total energy              =   -1802.53131978 Ry
     Harris-Foulkes estimate   =   -1802.58353381 Ry
     estimated scf accuracy    <       0.19490669 Ry

     iteration #  9     ecut=    30.00 Ry     beta=0.70
     Davidson diagonalization with overlap
     ethr =  3.81E-05,  avg # of iterations =  6.0

     total cpu time spent up to now is       30.5 secs

     total energy              =   -1802.53169022 Ry
     Harris-Foulkes estimate   =   -1802.56794221 Ry
     estimated scf accuracy    <       0.20330846 Ry

     iteration # 10     ecut=    30.00 Ry     beta=0.70
     Davidson diagonalization with overlap
     ethr =  3.81E-05,  avg # of iterations =  2.0

     total cpu time spent up to now is       31.9 secs

     total energy              =   -1802.54224758 Ry
     Harris-Foulkes estimate   =   -1802.54913190 Ry
     estimated scf accuracy    <       0.04128920 Ry

     iteration # 11     ecut=    30.00 Ry     beta=0.70
     Davidson diagonalization with overlap
     ethr =  8.06E-06,  avg # of iterations =  9.0

     total cpu time spent up to now is       35.6 secs

     total energy              =   -1802.54210994 Ry
     Harris-Foulkes estimate   =   -1802.54604675 Ry
     estimated scf accuracy    <       0.02477040 Ry

     iteration # 12     ecut=    30.00 Ry     beta=0.70
     Davidson diagonalization with overlap
     ethr =  4.84E-06,  avg # of iterations =  3.0

     total cpu time spent up to now is       37.3 secs

     total energy              =   -1802.54186012 Ry
     Harris-Foulkes estimate   =   -1802.54692762 Ry
     estimated scf accuracy    <       0.03983154 Ry

     iteration # 13     ecut=    30.00 Ry     beta=0.70
     Davidson diagonalization with overlap
     ethr =  4.84E-06,  avg # of iterations =  2.0

     total cpu time spent up to now is       38.8 secs

     total energy              =   -1802.54382522 Ry
     Harris-Foulkes estimate   =   -1802.54525372 Ry
     estimated scf accuracy    <       0.00957957 Ry

     iteration # 14     ecut=    30.00 Ry     beta=0.70
     Davidson diagonalization with overlap
     ethr =  1.87E-06,  avg # of iterations =  2.0

     total cpu time spent up to now is       40.2 secs

     total energy              =   -1802.54427057 Ry
     Harris-Foulkes estimate   =   -1802.54444741 Ry
     estimated scf accuracy    <       0.00126637 Ry

     iteration # 15     ecut=    30.00 Ry     beta=0.70
     Davidson diagonalization with overlap
     ethr =  2.47E-07,  avg # of iterations =  2.0

     total cpu time spent up to now is       41.6 secs

     total energy              =   -1802.54435967 Ry
     Harris-Foulkes estimate   =   -1802.54438186 Ry
     estimated scf accuracy    <       0.00006917 Ry

     iteration # 16     ecut=    30.00 Ry     beta=0.70
     Davidson diagonalization with overlap
     ethr =  1.35E-08,  avg # of iterations =  2.0

     total cpu time spent up to now is       43.2 secs

     total energy              =   -1802.54437287 Ry
     Harris-Foulkes estimate   =   -1802.54437360 Ry
     estimated scf accuracy    <       0.00001022 Ry

     iteration # 17     ecut=    30.00 Ry     beta=0.70
     Davidson diagonalization with overlap
     ethr =  2.00E-09,  avg # of iterations =  3.0

     total cpu time spent up to now is       45.1 secs

     total energy              =   -1802.54437405 Ry
     Harris-Foulkes estimate   =   -1802.54437551 Ry
     estimated scf accuracy    <       0.00000873 Ry

     iteration # 18     ecut=    30.00 Ry     beta=0.70
     Davidson diagonalization with overlap
     ethr =  1.70E-09,  avg # of iterations =  2.0

     total cpu time spent up to now is       46.5 secs

     total energy              =   -1802.54437504 Ry
     Harris-Foulkes estimate   =   -1802.54437523 Ry
     estimated scf accuracy    <       0.00000187 Ry

     iteration # 19     ecut=    30.00 Ry     beta=0.70
     Davidson diagonalization with overlap
     ethr =  3.65E-10,  avg # of iterations =  2.0

     total cpu time spent up to now is       47.9 secs

     total energy              =   -1802.54437528 Ry
     Harris-Foulkes estimate   =   -1802.54437530 Ry
     estimated scf accuracy    <       0.00000055 Ry

     iteration # 20     ecut=    30.00 Ry     beta=0.70
     Davidson diagonalization with overlap
     ethr =  1.08E-10,  avg # of iterations =  3.0

     total cpu time spent up to now is       49.7 secs

     total energy              =   -1802.54437534 Ry
     Harris-Foulkes estimate   =   -1802.54437535 Ry
     estimated scf accuracy    <       0.00000010 Ry

     iteration # 21     ecut=    30.00 Ry     beta=0.70
     Davidson diagonalization with overlap
     ethr =  1.88E-11,  avg # of iterations =  3.0

     total cpu time spent up to now is       51.4 secs

     End of self-consistent calculation

          k = 0.0000 0.0000 0.0000 ( 22119 PWs)   bands (ev):

   -42.1588 -40.1775 -39.3212 -38.8759 -38.4001 -37.4792 -36.8771 -36.3920
   -35.6614 -35.5293 -35.3043 -34.9139 -34.5184 -34.3893 -34.2009 -33.7911
   -33.5784 -33.1570 -33.1048 -32.7476 -32.4830 -32.4670 -32.1812 -31.8791
   -31.7761 -31.7677 -31.1680 -30.9591 -30.9179 -30.5493 -30.3926 -30.2244
   -29.9242 -29.6618 -29.6422 -29.5004 -29.2058 -29.1283 -29.0532 -28.8217
   -28.6608 -28.4799 -28.4140 -28.1450 -27.9981 -27.9497 -27.7344 -27.5595
   -27.3380 -27.2509 -27.1210 -27.0102 -26.9696 -26.9216 -26.8560 -26.7691
   -26.6320 -26.2648 -25.9701 -25.5117 -25.3504 -24.8469 -24.5515 -24.5027
   -22.0192 -21.8526 -21.4945 -21.0936 -20.6009 -20.3072 -20.2185 -19.9210
   -19.7970 -19.6990 -19.4859 -18.9455 -18.8635 -18.6712 -18.4678 -18.4091
   -18.1578 -17.9522 -17.8199 -17.6791 -17.5856 -17.3259 -17.1478 -17.0049
   -16.7469 -16.5872 -16.5248 -16.4203 -16.1162 -15.9324 -15.7774 -15.4900
   -15.1811 -15.1321 -14.9588 -14.8433 -14.7407 -14.4903 -14.4270 -14.4111
   -14.1631 -13.9597 -13.9081 -13.8494 -13.6113 -13.4218 -13.3166 -13.2688
   -13.1625 -13.0232 -12.7889 -12.6619 -12.6382 -12.4939 -12.3470 -12.2482
   -12.1837 -12.1307 -12.0820 -12.0162 -11.9054 -11.7601 -11.5817 -11.4466
   -11.0140 -10.9709 -10.5788 -10.3877  -9.6744  -9.4105  -9.0810  -8.8355
    -8.5995  -8.5223  -8.2590  -8.1225  -7.9903  -7.8158  -7.7775  -7.4622
    -7.2938  -7.2164  -7.0079  -6.8309  -6.7066  -6.5660  -6.4668  -6.4484
    -6.3703  -6.1781  -6.0866  -5.9845  -5.9595  -5.8755  -5.7471  -5.6791
    -5.4015  -5.3000  -5.2874  -5.0709  -4.9912  -4.9152  -4.8488  -4.8010
    -4.7284  -4.6099  -4.4256  -4.3301  -4.2430  -4.1523  -4.0517  -3.9741
    -3.9089  -3.7391  -3.6598  -3.5432  -3.4246  -3.4193  -3.3815  -3.2522
    -3.1530  -3.0009  -2.8883  -2.7747  -2.5897  -2.4959  -2.4453  -2.4051
    -2.3729  -2.2115  -2.0915  -1.9973  -1.9498  -1.8454  -1.7498  -1.7233
    -1.6093  -1.5048  -1.3861  -1.3295  -1.2170  -1.0577  -1.0149  -0.9235
    -0.8569  -0.7527  -0.6643  -0.5028  -0.3960  -0.3378  -0.2785  -0.2228
    -0.1196   0.0415   0.1578   0.2238   0.3398   0.5124   0.6430   0.7019
     0.8203   1.0612   1.1785   1.3236   1.4163   1.5473   1.5796   1.9196
     2.0200   2.0833   2.2421   2.4817   2.5502   2.6063   2.7627   2.8314
     2.9058   3.1311   3.3364   3.4029   3.4857   3.6765   3.8179   3.9224
     3.9710   4.2038   4.5850   4.6489   5.1370   5.2118   5.3727   5.5463
     5.6349   6.3498   6.4484   6.6103   6.9394   7.0852   7.2547   7.5193
     7.5842   7.6445   7.8669   8.0376   8.1746   8.2172   8.5834   8.6916
     8.8099   8.9444   9.0289   9.5794   9.6180   9.7773   9.8617  10.0609
    10.1299  10.1928  10.3275  10.4713  10.6185  10.6473  10.7660  10.8554
    10.9258  11.0468  11.1350  11.2245  11.2501  11.3307  11.4310  11.5115
    11.5586  11.5942  11.8442  11.8874  11.9334  11.9977  12.0219  12.1383
    12.1927  12.2381  12.2697

     the Fermi energy is     5.6206 ev

!    total energy              =   -1802.54437536 Ry
     Harris-Foulkes estimate   =   -1802.54437535 Ry
     estimated scf accuracy    <          8.1E-09 Ry

     The total energy is the sum of the following terms:

     one-electron contribution =  -13824.35967929 Ry
     hartree contribution      =    7081.81997264 Ry
     xc contribution           =    -634.75145734 Ry
     ewald contribution        =    5574.74567972 Ry
     smearing contrib. (-TS)   =       0.00110890 Ry

     convergence has been achieved in  21 iterations

     Writing output data file pwscf.save
 
     init_run     :      0.56s CPU      0.63s WALL (       1 calls)
     electrons    :     49.23s CPU     50.65s WALL (       1 calls)

     Called by init_run:
     wfcinit      :      0.46s CPU      0.52s WALL (       1 calls)
     potinit      :      0.02s CPU      0.03s WALL (       1 calls)

     Called by electrons:
     c_bands      :     47.11s CPU     48.26s WALL (      21 calls)
     sum_band     :      1.77s CPU      1.82s WALL (      21 calls)
     v_of_rho     :      0.16s CPU      0.18s WALL (      22 calls)
     mix_rho      :      0.13s CPU      0.24s WALL (      21 calls)

     Called by c_bands:
     init_us_2    :      0.06s CPU      0.06s WALL (      43 calls)
     cegterg      :     47.01s CPU     48.07s WALL (      21 calls)

     Called by sum_band:

     Called by *egterg:
     h_psi        :      8.03s CPU      8.17s WALL (     102 calls)
     g_psi        :      0.07s CPU      0.07s WALL (      80 calls)
     cdiaghg      :     29.92s CPU     29.95s WALL (     101 calls)

     Called by h_psi:
     h_psi:pot    :      7.83s CPU      7.97s WALL (     102 calls)
     h_psi:calbec :      0.29s CPU      0.30s WALL (     102 calls)
     vloc_psi     :      7.29s CPU      7.41s WALL (     102 calls)
     add_vuspsi   :      0.25s CPU      0.26s WALL (     102 calls)

     General routines
     calbec       :      0.29s CPU      0.30s WALL (     102 calls)
     fft          :      0.09s CPU      0.10s WALL (     241 calls)
     fftw         :      8.11s CPU      8.25s WALL (   36207 calls)
     davcio       :      0.02s CPU      0.13s WALL (     328 calls)
 
     Parallel routines
     fft_scatter  :      2.87s CPU      2.94s WALL (   36448 calls)
 
     PWSCF        :    49.96s CPU        51.74s WALL

 
   This run was terminated on:  18:58:56   2Feb2018            

=------------------------------------------------------------------------------=
   JOB DONE.
=------------------------------------------------------------------------------=
