
     Program PWSCF v.6.0 (svn rev. 13079) starts on  2Feb2018 at 19:32:59 

     This program is part of the open-source Quantum ESPRESSO suite
     for quantum simulation of materials; please cite
         "P. Giannozzi et al., J. Phys.:Condens. Matter 21 395502 (2009);
          URL http://www.quantum-espresso.org", 
     in publications or presentations arising from this work. More details at
     http://www.quantum-espresso.org/quote

     Parallel version (MPI), running on    28 processors
     R & G space division:  proc/nbgrp/npool/nimage =      28
     Reading input from input/scf-bigwater-1/898.in
Warning: card &IONS ignored
Warning: card     POT_EXTRAPOLATION='SECOND-ORDER' ignored
Warning: card     WFC_EXTRAPOLATION='SECOND-ORDER' ignored
Warning: card     ION_TEMPERATURE = 'ANDERSEN' ignored
Warning: card     TEMPW = 1000 ignored
Warning: card / ignored

     Current dimensions of program PWSCF are:
     Max number of different atomic species (ntypx) = 10
     Max number of k-points (npk) =  40000
     Max angular momentum in pseudopotentials (lmaxx) =  3

     Subspace diagonalization in iterative solution of the eigenvalue problem:
     a serial algorithm will be used

 
     Parallelization info
     --------------------
     sticks:   dense  smooth     PW     G-vecs:    dense   smooth      PW
     Min         136     136     33                 6338     6338     787
     Max         137     137     34                 6341     6341     792
     Sum        3809    3809    949               177509   177509   22119
 


     bravais-lattice index     =            1
     lattice parameter (alat)  =      20.0000  a.u.
     unit-cell volume          =    8000.0000 (a.u.)^3
     number of atoms/cell      =          192
     number of atomic types    =            2
     number of electrons       =       512.00
     number of Kohn-Sham states=          307
     kinetic-energy cutoff     =      30.0000  Ry
     charge density cutoff     =     120.0000  Ry
     convergence threshold     =      1.0E-08
     mixing beta               =       0.7000
     number of iterations used =            8  plain     mixing
     Exchange-correlation      = BLYP ( 1  3  1  3 0 0)

     celldm(1)=  20.000000  celldm(2)=   0.000000  celldm(3)=   0.000000
     celldm(4)=   0.000000  celldm(5)=   0.000000  celldm(6)=   0.000000

     crystal axes: (cart. coord. in units of alat)
               a(1) = (   1.000000   0.000000   0.000000 )  
               a(2) = (   0.000000   1.000000   0.000000 )  
               a(3) = (   0.000000   0.000000   1.000000 )  

     reciprocal axes: (cart. coord. in units 2 pi/alat)
               b(1) = (  1.000000  0.000000  0.000000 )  
               b(2) = (  0.000000  1.000000  0.000000 )  
               b(3) = (  0.000000  0.000000  1.000000 )  


     PseudoPot. # 1 for  H read from file:
     ./H.blyp-hgh.UPF
     MD5 check sum: c576e69559cde411e611be972c763230
     Pseudo is Norm-conserving, Zval =  1.0
     Generated in analytical, separable form
     Using radial grid of  929 points,  0 beta functions with: 

     PseudoPot. # 2 for  O read from file:
     ./O.blyp-hgh.UPF
     MD5 check sum: d0b7156309aa9befef28faac7bc56342
     Pseudo is Norm-conserving, Zval =  6.0
     Generated in analytical, separable form
     Using radial grid of 1095 points,  1 beta functions with: 
                l(1) =   0

     atomic species   valence    mass     pseudopotential
        H              1.00     1.01000      H( 1.00)
        O              6.00    16.00000      O( 1.00)

     No symmetry found



   Cartesian axes

     site n.     atom                  positions (alat units)
         1           O   tau(   1) = (  -0.2649453  -0.0741352  -0.0518178  )
         2           O   tau(   2) = (   0.1341822  -0.1338073   0.3085091  )
         3           O   tau(   3) = (  -0.2735400   0.3238339  -0.2660115  )
         4           O   tau(   4) = (   0.0566398   0.1580909  -0.0499314  )
         5           O   tau(   5) = (  -0.2527830   0.0680358   0.1779959  )
         6           O   tau(   6) = (  -0.0060773   0.3060238   0.2976254  )
         7           O   tau(   7) = (  -0.0562366  -0.2719146  -0.1257027  )
         8           O   tau(   8) = (   0.1484778   0.0574616   0.2260720  )
         9           O   tau(   9) = (  -0.1390239  -0.3220537   0.2837228  )
        10           O   tau(  10) = (   0.1090964  -0.1232433   0.1743046  )
        11           O   tau(  11) = (   0.1219506  -0.3278809   0.1254954  )
        12           O   tau(  12) = (  -0.1693718  -0.1822355   0.2124258  )
        13           O   tau(  13) = (  -0.2390850  -0.3510180   0.0279807  )
        14           O   tau(  14) = (  -0.1952170  -0.2394716  -0.1814267  )
        15           O   tau(  15) = (   0.1291870  -0.1828434  -0.0986008  )
        16           O   tau(  16) = (  -0.1001580   0.1475882  -0.0487698  )
        17           O   tau(  17) = (  -0.0724545  -0.1482046   0.1001195  )
        18           O   tau(  18) = (   0.0309250  -0.2405896   0.1744284  )
        19           O   tau(  19) = (   0.2310116  -0.2215531  -0.2379618  )
        20           O   tau(  20) = (   0.2589887   0.2367522   0.1113480  )
        21           O   tau(  21) = (   0.2604521  -0.1968795   0.1806047  )
        22           O   tau(  22) = (  -0.1236022  -0.1133936  -0.1607044  )
        23           O   tau(  23) = (  -0.0601670   0.1559766  -0.2243258  )
        24           O   tau(  24) = (   0.2147968   0.0885149   0.1035657  )
        25           O   tau(  25) = (   0.1433075   0.0607209  -0.1780541  )
        26           O   tau(  26) = (  -0.2247037   0.1538177  -0.2725271  )
        27           O   tau(  27) = (   0.2525707  -0.2862871  -0.0153866  )
        28           O   tau(  28) = (   0.0468873  -0.0133723  -0.2933019  )
        29           O   tau(  29) = (  -0.1091136   0.0326605  -0.2554481  )
        30           O   tau(  30) = (   0.0472797  -0.0459857   0.0854942  )
        31           O   tau(  31) = (   0.2862554  -0.1072045  -0.1995053  )
        32           O   tau(  32) = (   0.2201029  -0.0095637  -0.0601459  )
        33           O   tau(  33) = (   0.0257629   0.2174486   0.1996557  )
        34           O   tau(  34) = (  -0.2233502   0.0309723  -0.1707162  )
        35           O   tau(  35) = (   0.0034009  -0.1893808  -0.0378720  )
        36           O   tau(  36) = (   0.2564288   0.2114654  -0.3312131  )
        37           O   tau(  37) = (   0.1671870   0.3276955   0.2878255  )
        38           O   tau(  38) = (  -0.2730412   0.2666072  -0.1234136  )
        39           O   tau(  39) = (  -0.0000871   0.0529946  -0.1316754  )
        40           O   tau(  40) = (  -0.1997382  -0.1942644  -0.0500560  )
        41           O   tau(  41) = (  -0.1465860   0.2815410   0.1526686  )
        42           O   tau(  42) = (  -0.1258683   0.1681696   0.2085974  )
        43           O   tau(  43) = (  -0.0849642  -0.0944016  -0.0239315  )
        44           O   tau(  44) = (  -0.0696009  -0.0796915   0.2642982  )
        45           O   tau(  45) = (   0.0156486   0.0965132   0.2964672  )
        46           O   tau(  46) = (  -0.2388177   0.1485005   0.0754141  )
        47           O   tau(  47) = (   0.1825238   0.2357435  -0.0904382  )
        48           O   tau(  48) = (   0.0759792  -0.2878648  -0.1948240  )
        49           O   tau(  49) = (  -0.1533122   0.2230621  -0.1587122  )
        50           O   tau(  50) = (   0.2549609   0.0454010   0.3299996  )
        51           O   tau(  51) = (  -0.0801933   0.0444915   0.0997784  )
        52           O   tau(  52) = (   0.0015808  -0.0863384  -0.1883701  )
        53           O   tau(  53) = (   0.0134255  -0.1828701  -0.2919042  )
        54           O   tau(  54) = (   0.3421871  -0.3039561   0.1969428  )
        55           O   tau(  55) = (   0.1862121  -0.1434670   0.0573434  )
        56           O   tau(  56) = (   0.2969681  -0.0519332   0.1500685  )
        57           O   tau(  57) = (   0.0712995   0.1879671  -0.2141030  )
        58           O   tau(  58) = (  -0.0788855  -0.3566050   0.0148453  )
        59           O   tau(  59) = (  -0.2500918  -0.0781284  -0.3252016  )
        60           O   tau(  60) = (  -0.2155284   0.0781840  -0.0387109  )
        61           O   tau(  61) = (   0.2677780   0.1864387  -0.1925707  )
        62           O   tau(  62) = (   0.0802689  -0.0376831  -0.0768424  )
        63           O   tau(  63) = (  -0.2359143  -0.1759798   0.0991208  )
        64           O   tau(  64) = (   0.0871680   0.1532415   0.0939244  )
        65           H   tau(  65) = (  -0.2391498  -0.1151390  -0.0411185  )
        66           H   tau(  66) = (  -0.2319430  -0.0518946  -0.0799954  )
        67           H   tau(  67) = (   0.1377016  -0.0855684   0.3149105  )
        68           H   tau(  68) = (   0.1419781  -0.1402133   0.2604425  )
        69           H   tau(  69) = (  -0.2870764   0.2885698  -0.2352349  )
        70           H   tau(  70) = (  -0.2330620   0.3385831  -0.2413138  )
        71           H   tau(  71) = (   0.0870116   0.1212823  -0.0609844  )
        72           H   tau(  72) = (   0.0856424   0.1966914  -0.0606673  )
        73           H   tau(  73) = (  -0.2688571   0.0229554   0.1679315  )
        74           H   tau(  74) = (  -0.2160795   0.0590807   0.2090120  )
        75           H   tau(  75) = (  -0.0117439   0.3474885   0.2721684  )
        76           H   tau(  76) = (  -0.0029261   0.3195590   0.3445333  )
        77           H   tau(  77) = (  -0.0404248  -0.2993369  -0.0882396  )
        78           H   tau(  78) = (  -0.0218448  -0.2677347  -0.1605724  )
        79           H   tau(  79) = (   0.1715811   0.0921056   0.2015990  )
        80           H   tau(  80) = (   0.1000457   0.0621242   0.2204687  )
        81           H   tau(  81) = (  -0.1603922  -0.3641891   0.2940564  )
        82           H   tau(  82) = (  -0.0893308  -0.3293547   0.2808460  )
        83           H   tau(  83) = (   0.0932892  -0.0833865   0.1499401  )
        84           H   tau(  84) = (   0.1314318  -0.1477837   0.1372470  )
        85           H   tau(  85) = (   0.0760753  -0.3430674   0.1347251  )
        86           H   tau(  86) = (   0.1174037  -0.2792837   0.1291253  )
        87           H   tau(  87) = (  -0.1825151  -0.2138552   0.2480811  )
        88           H   tau(  88) = (  -0.1934114  -0.2026507   0.1742175  )
        89           H   tau(  89) = (  -0.2577375  -0.3912582   0.0499466  )
        90           H   tau(  90) = (  -0.2389069  -0.3545025  -0.0205622  )
        91           H   tau(  91) = (  -0.1700061  -0.1997068  -0.1929925  )
        92           H   tau(  92) = (  -0.1658267  -0.2761478  -0.1678792  )
        93           H   tau(  93) = (   0.1543803  -0.1471273  -0.1210940  )
        94           H   tau(  94) = (   0.0846773  -0.1633427  -0.0921793  )
        95           H   tau(  95) = (  -0.1151132   0.1826257  -0.0810862  )
        96           H   tau(  96) = (  -0.0794722   0.1713349  -0.0098271  )
        97           H   tau(  97) = (  -0.0952430  -0.1461148   0.0568958  )
        98           H   tau(  98) = (  -0.0343455  -0.1190575   0.0900791  )
        99           H   tau(  99) = (   0.0541854  -0.1966791   0.1740357  )
       100           H   tau( 100) = (  -0.0137900  -0.2283243   0.1567845  )
       101           H   tau( 101) = (   0.2486981  -0.2559349  -0.2693068  )
       102           H   tau( 102) = (   0.2175506  -0.1905397  -0.2740547  )
       103           H   tau( 103) = (   0.2104020   0.2367583   0.1062464  )
       104           H   tau( 104) = (   0.2653935   0.2586143   0.1536757  )
       105           H   tau( 105) = (   0.3041522  -0.1760051   0.1711759  )
       106           H   tau( 106) = (   0.2477708  -0.1607103   0.2108249  )
       107           H   tau( 107) = (  -0.0749371  -0.1058865  -0.1720584  )
       108           H   tau( 108) = (  -0.1520223  -0.0852282  -0.1885281  )
       109           H   tau( 109) = (  -0.0118984   0.1477805  -0.2250904  )
       110           H   tau( 110) = (  -0.0818634   0.1121249  -0.2183607  )
       111           H   tau( 111) = (   0.2227764   0.1361753   0.0963401  )
       112           H   tau( 112) = (   0.1675215   0.0816179   0.0933801  )
       113           H   tau( 113) = (   0.1046772   0.0461841  -0.2053881  )
       114           H   tau( 114) = (   0.1392593   0.1097139  -0.1831038  )
       115           H   tau( 115) = (  -0.2632324   0.1455059  -0.3011623  )
       116           H   tau( 116) = (  -0.2333369   0.1227094  -0.2362805  )
       117           H   tau( 117) = (   0.2568752  -0.3202685   0.0196709  )
       118           H   tau( 118) = (   0.2958487  -0.2909795  -0.0375699  )
       119           H   tau( 119) = (   0.0119930  -0.0349773  -0.3215982  )
       120           H   tau( 120) = (   0.0311851   0.0330399  -0.2875372  )
       121           H   tau( 121) = (  -0.1189642   0.0106551  -0.2975617  )
       122           H   tau( 122) = (  -0.1259213   0.0036592  -0.2204764  )
       123           H   tau( 123) = (   0.0242790  -0.0031869   0.0773947  )
       124           H   tau( 124) = (   0.0630824  -0.0577352   0.0403676  )
       125           H   tau( 125) = (   0.2602431  -0.1493572  -0.2010080  )
       126           H   tau( 126) = (   0.2835219  -0.0935857  -0.1520952  )
       127           H   tau( 127) = (   0.2214842   0.0339755  -0.0366293  )
       128           H   tau( 128) = (   0.2484064  -0.0388456  -0.0310650  )
       129           H   tau( 129) = (   0.0293154   0.2540074   0.2325820  )
       130           H   tau( 130) = (  -0.0195159   0.2197751   0.1827347  )
       131           H   tau( 131) = (  -0.2421221   0.0754474  -0.1645710  )
       132           H   tau( 132) = (  -0.2486219   0.0115846  -0.2080529  )
       133           H   tau( 133) = (  -0.0403114  -0.2107686  -0.0448083  )
       134           H   tau( 134) = (   0.0041250  -0.1781307   0.0095713  )
       135           H   tau( 135) = (   0.2495552   0.2512488  -0.3587195  )
       136           H   tau( 136) = (   0.2819570   0.1820003  -0.3603632  )
       137           H   tau( 137) = (   0.1513972   0.3188796   0.2419113  )
       138           H   tau( 138) = (   0.1642357   0.3750127   0.2988091  )
       139           H   tau( 139) = (  -0.3136829   0.2562320  -0.1496394  )
       140           H   tau( 140) = (  -0.2458725   0.2341505  -0.1503308  )
       141           H   tau( 141) = (  -0.0459027   0.0385322  -0.1351042  )
       142           H   tau( 142) = (   0.0009598   0.0952685  -0.1057867  )
       143           H   tau( 143) = (  -0.2036249  -0.1871971  -0.0988144  )
       144           H   tau( 144) = (  -0.1901674  -0.2429683  -0.0483884  )
       145           H   tau( 145) = (  -0.1791105   0.2792428   0.1149206  )
       146           H   tau( 146) = (  -0.1703272   0.3065581   0.1884855  )
       147           H   tau( 147) = (  -0.1436923   0.2087916   0.1837284  )
       148           H   tau( 148) = (  -0.1599444   0.1336375   0.2085026  )
       149           H   tau( 149) = (  -0.0916070  -0.1096352  -0.0702697  )
       150           H   tau( 150) = (  -0.0992000  -0.0477947  -0.0265957  )
       151           H   tau( 151) = (  -0.0898397  -0.1126648   0.2333998  )
       152           H   tau( 152) = (  -0.0693187  -0.1065719   0.3051131  )
       153           H   tau( 153) = (   0.0306671   0.1324193   0.2671158  )
       154           H   tau( 154) = (  -0.0318206   0.1101743   0.2911105  )
       155           H   tau( 155) = (  -0.2633471   0.1165445   0.1039073  )
       156           H   tau( 156) = (  -0.1913487   0.1421213   0.0857944  )
       157           H   tau( 157) = (   0.1896309   0.2810337  -0.0719234  )
       158           H   tau( 158) = (   0.2038647   0.2297753  -0.1345170  )
       159           H   tau( 159) = (   0.1075277  -0.2769998  -0.2307552  )
       160           H   tau( 160) = (   0.0904971  -0.2578182  -0.1582631  )
       161           H   tau( 161) = (  -0.1540713   0.1937304  -0.1987567  )
       162           H   tau( 162) = (  -0.1048773   0.2288195  -0.1536824  )
       163           H   tau( 163) = (   0.2294823   0.0333445   0.3701350  )
       164           H   tau( 164) = (   0.2177112   0.0578458   0.2999385  )
       165           H   tau( 165) = (  -0.0732544  -0.0038380   0.1101403  )
       166           H   tau( 166) = (  -0.1130040   0.0578248   0.1353365  )
       167           H   tau( 167) = (   0.0289063  -0.0965053  -0.1488019  )
       168           H   tau( 168) = (   0.0125825  -0.0417122  -0.2052847  )
       169           H   tau( 169) = (   0.0006825  -0.1490250  -0.2585127  )
       170           H   tau( 170) = (   0.0538856  -0.1637037  -0.3132874  )
       171           H   tau( 171) = (   0.3384801  -0.2951862   0.2450000  )
       172           H   tau( 172) = (   0.3354556  -0.2625471   0.1724196  )
       173           H   tau( 173) = (   0.2073880  -0.1871345   0.0524736  )
       174           H   tau( 174) = (   0.1558445  -0.1374377   0.0199251  )
       175           H   tau( 175) = (   0.2745853  -0.0469349   0.1062965  )
       176           H   tau( 176) = (   0.2603816  -0.0629153   0.1805460  )
       177           H   tau( 177) = (   0.0912466   0.1938354  -0.2579789  )
       178           H   tau( 178) = (   0.0906296   0.2274847  -0.1933344  )
       179           H   tau( 179) = (  -0.0970831  -0.3529257   0.0603981  )
       180           H   tau( 180) = (  -0.1160471  -0.3744626  -0.0111150  )
       181           H   tau( 181) = (  -0.2811031  -0.0935438  -0.2895776  )
       182           H   tau( 182) = (  -0.2374896  -0.1180030  -0.3503648  )
       183           H   tau( 183) = (  -0.1709302   0.0646827  -0.0248008  )
       184           H   tau( 184) = (  -0.2190427   0.1242141  -0.0226780  )
       185           H   tau( 185) = (   0.2712947   0.1933958  -0.2417214  )
       186           H   tau( 186) = (   0.2374571   0.1472525  -0.1943679  )
       187           H   tau( 187) = (   0.1262129  -0.0180360  -0.0804721  )
       188           H   tau( 188) = (   0.0482949  -0.0016142  -0.0929938  )
       189           H   tau( 189) = (  -0.2831625  -0.1866924   0.0941502  )
       190           H   tau( 190) = (  -0.2345226  -0.1301208   0.1159013  )
       191           H   tau( 191) = (   0.0554485   0.1642568   0.1289996  )
       192           H   tau( 192) = (   0.0629591   0.1527937   0.0516579  )

     number of k points=     1  Marzari-Vanderbilt smearing, width (Ry)=  0.0250
                       cart. coord. in units 2pi/alat
        k(    1) = (   0.0000000   0.0000000   0.0000000), wk =   2.0000000

     Dense  grid:   177509 G-vectors     FFT dimensions: (  72,  72,  72)

     Estimated max dynamical RAM per process >      67.80Mb

     Estimated total allocated dynamical RAM >    1898.40Mb

     Initial potential from superposition of free atoms
     Check: negative starting charge=   -0.748269

     starting charge  511.99856, renormalised to  512.00000

     negative rho (up, down):  7.483E-01 0.000E+00
     Starting wfc are  384 randomized atomic wfcs

     total cpu time spent up to now is        0.8 secs

     per-process dynamical memory:    45.9 Mb

     Self-consistent Calculation

     iteration #  1     ecut=    30.00 Ry     beta=0.70
     Davidson diagonalization with overlap
     ethr =  1.00E-02,  avg # of iterations =  8.0

     negative rho (up, down):  1.747E-01 0.000E+00

     total cpu time spent up to now is        9.2 secs

     total energy              =   -1796.28192203 Ry
     Harris-Foulkes estimate   =   -1823.59192450 Ry
     estimated scf accuracy    <      42.05896487 Ry

     iteration #  2     ecut=    30.00 Ry     beta=0.70
     Davidson diagonalization with overlap
     ethr =  8.21E-03,  avg # of iterations =  4.0

     negative rho (up, down):  2.310E-03 0.000E+00

     total cpu time spent up to now is       12.3 secs

     total energy              =   -1778.01159077 Ry
     Harris-Foulkes estimate   =   -1809.54454885 Ry
     estimated scf accuracy    <      68.58384559 Ry

     iteration #  3     ecut=    30.00 Ry     beta=0.70
     Davidson diagonalization with overlap
     ethr =  8.21E-03,  avg # of iterations =  5.0

     negative rho (up, down):  3.921E-05 0.000E+00

     total cpu time spent up to now is       16.1 secs

     total energy              =   -1796.38174022 Ry
     Harris-Foulkes estimate   =   -1812.32689774 Ry
     estimated scf accuracy    <      51.48694282 Ry

     iteration #  4     ecut=    30.00 Ry     beta=0.70
     Davidson diagonalization with overlap
     ethr =  8.21E-03,  avg # of iterations =  3.0

     total cpu time spent up to now is       17.9 secs

     total energy              =   -1803.79269569 Ry
     Harris-Foulkes estimate   =   -1806.26157170 Ry
     estimated scf accuracy    <       7.33608365 Ry

     iteration #  5     ecut=    30.00 Ry     beta=0.70
     Davidson diagonalization with overlap
     ethr =  1.43E-03,  avg # of iterations =  5.0

     total cpu time spent up to now is       20.5 secs

     total energy              =   -1803.62353143 Ry
     Harris-Foulkes estimate   =   -1804.25438268 Ry
     estimated scf accuracy    <       2.43572806 Ry

     iteration #  6     ecut=    30.00 Ry     beta=0.70
     Davidson diagonalization with overlap
     ethr =  4.76E-04,  avg # of iterations =  5.0

     total cpu time spent up to now is       22.9 secs

     total energy              =   -1803.51498857 Ry
     Harris-Foulkes estimate   =   -1803.72773735 Ry
     estimated scf accuracy    <       1.13477980 Ry

     iteration #  7     ecut=    30.00 Ry     beta=0.70
     Davidson diagonalization with overlap
     ethr =  2.22E-04,  avg # of iterations =  4.0

     total cpu time spent up to now is       24.9 secs

     total energy              =   -1803.45012059 Ry
     Harris-Foulkes estimate   =   -1803.56956230 Ry
     estimated scf accuracy    <       0.44598463 Ry

     iteration #  8     ecut=    30.00 Ry     beta=0.70
     Davidson diagonalization with overlap
     ethr =  8.71E-05,  avg # of iterations =  7.0

     total cpu time spent up to now is       28.1 secs

     total energy              =   -1803.44308791 Ry
     Harris-Foulkes estimate   =   -1803.49009442 Ry
     estimated scf accuracy    <       0.18219743 Ry

     iteration #  9     ecut=    30.00 Ry     beta=0.70
     Davidson diagonalization with overlap
     ethr =  3.56E-05,  avg # of iterations =  4.0

     total cpu time spent up to now is       30.2 secs

     total energy              =   -1803.44547869 Ry
     Harris-Foulkes estimate   =   -1803.47420756 Ry
     estimated scf accuracy    <       0.13742743 Ry

     iteration # 10     ecut=    30.00 Ry     beta=0.70
     Davidson diagonalization with overlap
     ethr =  2.68E-05,  avg # of iterations =  4.0

     total cpu time spent up to now is       32.2 secs

     total energy              =   -1803.44563223 Ry
     Harris-Foulkes estimate   =   -1803.45554765 Ry
     estimated scf accuracy    <       0.04614163 Ry

     iteration # 11     ecut=    30.00 Ry     beta=0.70
     Davidson diagonalization with overlap
     ethr =  9.01E-06,  avg # of iterations =  7.0

     total cpu time spent up to now is       35.3 secs

     total energy              =   -1803.44636867 Ry
     Harris-Foulkes estimate   =   -1803.45077667 Ry
     estimated scf accuracy    <       0.01315784 Ry

     iteration # 12     ecut=    30.00 Ry     beta=0.70
     Davidson diagonalization with overlap
     ethr =  2.57E-06,  avg # of iterations =  7.0

     total cpu time spent up to now is       38.7 secs

     total energy              =   -1803.44501406 Ry
     Harris-Foulkes estimate   =   -1803.44918625 Ry
     estimated scf accuracy    <       0.01629095 Ry

     iteration # 13     ecut=    30.00 Ry     beta=0.70
     Davidson diagonalization with overlap
     ethr =  2.57E-06,  avg # of iterations =  3.0

     total cpu time spent up to now is       40.6 secs

     total energy              =   -1803.44713067 Ry
     Harris-Foulkes estimate   =   -1803.44844193 Ry
     estimated scf accuracy    <       0.00577254 Ry

     iteration # 14     ecut=    30.00 Ry     beta=0.70
     Davidson diagonalization with overlap
     ethr =  1.13E-06,  avg # of iterations =  2.0

     total cpu time spent up to now is       42.1 secs

     total energy              =   -1803.44769134 Ry
     Harris-Foulkes estimate   =   -1803.44775954 Ry
     estimated scf accuracy    <       0.00021158 Ry

     iteration # 15     ecut=    30.00 Ry     beta=0.70
     Davidson diagonalization with overlap
     ethr =  4.13E-08,  avg # of iterations =  2.0

     total cpu time spent up to now is       43.8 secs

     total energy              =   -1803.44770133 Ry
     Harris-Foulkes estimate   =   -1803.44777077 Ry
     estimated scf accuracy    <       0.00046115 Ry

     iteration # 16     ecut=    30.00 Ry     beta=0.70
     Davidson diagonalization with overlap
     ethr =  4.13E-08,  avg # of iterations =  2.0

     total cpu time spent up to now is       45.2 secs

     total energy              =   -1803.44773127 Ry
     Harris-Foulkes estimate   =   -1803.44774149 Ry
     estimated scf accuracy    <       0.00003536 Ry

     iteration # 17     ecut=    30.00 Ry     beta=0.70
     Davidson diagonalization with overlap
     ethr =  6.91E-09,  avg # of iterations =  2.0

     total cpu time spent up to now is       46.6 secs

     total energy              =   -1803.44773665 Ry
     Harris-Foulkes estimate   =   -1803.44773741 Ry
     estimated scf accuracy    <       0.00000281 Ry

     iteration # 18     ecut=    30.00 Ry     beta=0.70
     Davidson diagonalization with overlap
     ethr =  5.49E-10,  avg # of iterations =  3.0

     total cpu time spent up to now is       48.6 secs

     total energy              =   -1803.44773714 Ry
     Harris-Foulkes estimate   =   -1803.44773750 Ry
     estimated scf accuracy    <       0.00000156 Ry

     iteration # 19     ecut=    30.00 Ry     beta=0.70
     Davidson diagonalization with overlap
     ethr =  3.06E-10,  avg # of iterations =  2.0

     total cpu time spent up to now is       50.0 secs

     total energy              =   -1803.44773724 Ry
     Harris-Foulkes estimate   =   -1803.44773747 Ry
     estimated scf accuracy    <       0.00000130 Ry

     iteration # 20     ecut=    30.00 Ry     beta=0.70
     Davidson diagonalization with overlap
     ethr =  2.53E-10,  avg # of iterations =  2.0

     total cpu time spent up to now is       51.4 secs

     total energy              =   -1803.44773732 Ry
     Harris-Foulkes estimate   =   -1803.44773752 Ry
     estimated scf accuracy    <       0.00000121 Ry

     iteration # 21     ecut=    30.00 Ry     beta=0.70
     Davidson diagonalization with overlap
     ethr =  2.37E-10,  avg # of iterations =  2.0

     total cpu time spent up to now is       52.8 secs

     total energy              =   -1803.44773745 Ry
     Harris-Foulkes estimate   =   -1803.44773743 Ry
     estimated scf accuracy    <       0.00000001 Ry

     iteration # 22     ecut=    30.00 Ry     beta=0.70
     Davidson diagonalization with overlap
     ethr =  2.20E-12,  avg # of iterations =  4.0

     total cpu time spent up to now is       55.6 secs

     End of self-consistent calculation

          k = 0.0000 0.0000 0.0000 ( 22119 PWs)   bands (ev):

   -41.9738 -39.9009 -39.0084 -38.3672 -38.0323 -37.0678 -36.5230 -36.0566
   -35.6113 -35.1258 -34.9299 -34.7842 -34.4699 -34.3082 -33.8992 -33.6707
   -33.4719 -33.3826 -33.0344 -32.9179 -32.7538 -32.3136 -32.2099 -31.6144
   -31.4912 -31.4378 -31.0575 -30.5962 -30.4748 -30.2683 -30.0232 -29.8945
   -29.7358 -29.5928 -29.4599 -29.1427 -28.9873 -28.9149 -28.8665 -28.6281
   -28.4715 -28.2442 -28.1677 -28.0736 -27.9105 -27.5998 -27.4823 -27.3081
   -27.1987 -27.1142 -27.0401 -27.0006 -26.8284 -26.6697 -26.5279 -26.3278
   -26.0474 -25.9002 -25.8124 -25.7244 -25.6353 -25.0433 -24.8181 -24.6146
   -22.4120 -21.9470 -21.0756 -20.8874 -20.5241 -20.4360 -19.9834 -19.8921
   -19.8160 -19.2680 -19.1603 -18.8672 -18.6509 -18.2856 -18.0720 -17.9666
   -17.9306 -17.6916 -17.4804 -17.2690 -17.0396 -16.9113 -16.8740 -16.5685
   -16.4324 -16.3828 -16.1827 -16.0848 -15.9049 -15.6427 -15.4715 -15.3506
   -15.3186 -15.1886 -15.0467 -14.9244 -14.6708 -14.2929 -14.2077 -14.0415
   -13.9435 -13.8794 -13.7793 -13.6834 -13.6484 -13.4978 -13.3569 -13.2974
   -13.2633 -13.1244 -12.9537 -12.8402 -12.7314 -12.3803 -12.3658 -12.2676
   -12.1819 -11.9953 -11.6895 -11.5522 -11.5146 -11.3315 -11.0501 -10.9556
   -10.8772 -10.4394 -10.0314  -9.8510  -9.5853  -9.2442  -8.8906  -8.6649
    -8.3983  -8.0951  -8.0269  -7.9587  -7.7916  -7.7240  -7.6636  -7.3002
    -7.1714  -7.0000  -6.8745  -6.6563  -6.5365  -6.5202  -6.3986  -6.3443
    -6.2531  -6.1800  -6.0947  -5.9859  -5.8111  -5.7281  -5.6335  -5.5845
    -5.4993  -5.3942  -5.2473  -5.0553  -4.9252  -4.7594  -4.6462  -4.5641
    -4.4518  -4.3381  -4.2396  -4.1361  -4.1109  -4.0631  -3.9298  -3.8376
    -3.8168  -3.7092  -3.5604  -3.4802  -3.3677  -3.2639  -3.2163  -3.1408
    -3.1274  -2.9315  -2.8489  -2.6961  -2.6534  -2.5826  -2.4806  -2.3240
    -2.2727  -2.2259  -2.0925  -1.9376  -1.8232  -1.7295  -1.6914  -1.5917
    -1.5072  -1.4337  -1.3535  -1.3060  -1.2631  -1.0249  -0.8846  -0.8041
    -0.7327  -0.6674  -0.5681  -0.5053  -0.3920  -0.3393  -0.1896  -0.0342
     0.1692   0.2934   0.3294   0.4757   0.5661   0.7241   0.8103   0.8625
     0.9887   1.1867   1.2669   1.4239   1.4480   1.5360   1.7486   1.8863
     1.9496   2.0583   2.1725   2.3480   2.4790   2.5930   2.7487   2.8507
     3.0204   3.0930   3.1908   3.3134   3.7088   3.7883   3.8986   4.0794
     4.2358   4.3085   4.5991   4.9298   5.1487   5.1573   5.2123   5.5069
     5.6069   6.3236   6.4723   6.6759   6.9502   7.0925   7.2997   7.4691
     7.5775   7.7647   7.8553   7.9542   8.0851   8.2763   8.5483   8.6502
     8.7564   8.9294   9.0007   9.5907   9.7011   9.8110   9.9763  10.1212
    10.1675  10.3139  10.3374  10.4859  10.6078  10.6789  10.8207  10.8625
    10.9974  11.0675  11.2185  11.2485  11.3129  11.3997  11.4407  11.5567
    11.6510  11.7083  11.8793  11.9080  11.9176  11.9632  11.9753  12.1383
    12.1614  12.2489  12.2898

     the Fermi energy is     5.5499 ev

!    total energy              =   -1803.44773747 Ry
     Harris-Foulkes estimate   =   -1803.44773746 Ry
     estimated scf accuracy    <          4.0E-09 Ry

     The total energy is the sum of the following terms:

     one-electron contribution =  -13714.92657418 Ry
     hartree contribution      =    7029.62527437 Ry
     xc contribution           =    -634.67527611 Ry
     ewald contribution        =    5516.51819434 Ry
     smearing contrib. (-TS)   =       0.01064411 Ry

     convergence has been achieved in  22 iterations

     Writing output data file pwscf.save
 
     init_run     :      0.57s CPU      0.65s WALL (       1 calls)
     electrons    :     53.26s CPU     54.85s WALL (       1 calls)

     Called by init_run:
     wfcinit      :      0.47s CPU      0.55s WALL (       1 calls)
     potinit      :      0.02s CPU      0.03s WALL (       1 calls)

     Called by electrons:
     c_bands      :     51.09s CPU     52.45s WALL (      22 calls)
     sum_band     :      1.78s CPU      1.83s WALL (      22 calls)
     v_of_rho     :      0.17s CPU      0.18s WALL (      23 calls)
     mix_rho      :      0.13s CPU      0.23s WALL (      22 calls)

     Called by c_bands:
     init_us_2    :      0.06s CPU      0.06s WALL (      45 calls)
     cegterg      :     50.97s CPU     52.26s WALL (      22 calls)

     Called by sum_band:

     Called by *egterg:
     h_psi        :      8.50s CPU      8.64s WALL (     110 calls)
     g_psi        :      0.07s CPU      0.07s WALL (      87 calls)
     cdiaghg      :     33.10s CPU     33.26s WALL (     109 calls)

     Called by h_psi:
     h_psi:pot    :      8.29s CPU      8.43s WALL (     110 calls)
     h_psi:calbec :      0.31s CPU      0.32s WALL (     110 calls)
     vloc_psi     :      7.70s CPU      7.84s WALL (     110 calls)
     add_vuspsi   :      0.27s CPU      0.28s WALL (     110 calls)

     General routines
     calbec       :      0.31s CPU      0.32s WALL (     110 calls)
     fft          :      0.09s CPU      0.10s WALL (     252 calls)
     fftw         :      8.54s CPU      8.70s WALL (   38732 calls)
     davcio       :      0.03s CPU      0.12s WALL (     348 calls)
 
     Parallel routines
     fft_scatter  :      2.95s CPU      3.02s WALL (   38984 calls)
 
     PWSCF        :    53.99s CPU        55.94s WALL

 
   This run was terminated on:  19:33:55   2Feb2018            

=------------------------------------------------------------------------------=
   JOB DONE.
=------------------------------------------------------------------------------=
