
     Program PWSCF v.6.0 (svn rev. 13079) starts on  2Feb2018 at 20:19: 1 

     This program is part of the open-source Quantum ESPRESSO suite
     for quantum simulation of materials; please cite
         "P. Giannozzi et al., J. Phys.:Condens. Matter 21 395502 (2009);
          URL http://www.quantum-espresso.org", 
     in publications or presentations arising from this work. More details at
     http://www.quantum-espresso.org/quote

     Parallel version (MPI), running on    28 processors
     R & G space division:  proc/nbgrp/npool/nimage =      28
     Reading input from input/scf-bigwater-1/945.in
Warning: card &IONS ignored
Warning: card     POT_EXTRAPOLATION='SECOND-ORDER' ignored
Warning: card     WFC_EXTRAPOLATION='SECOND-ORDER' ignored
Warning: card     ION_TEMPERATURE = 'ANDERSEN' ignored
Warning: card     TEMPW = 1000 ignored
Warning: card / ignored

     Current dimensions of program PWSCF are:
     Max number of different atomic species (ntypx) = 10
     Max number of k-points (npk) =  40000
     Max angular momentum in pseudopotentials (lmaxx) =  3

     Subspace diagonalization in iterative solution of the eigenvalue problem:
     a serial algorithm will be used

 
     Parallelization info
     --------------------
     sticks:   dense  smooth     PW     G-vecs:    dense   smooth      PW
     Min         136     136     33                 6338     6338     787
     Max         137     137     34                 6341     6341     792
     Sum        3809    3809    949               177509   177509   22119
 


     bravais-lattice index     =            1
     lattice parameter (alat)  =      20.0000  a.u.
     unit-cell volume          =    8000.0000 (a.u.)^3
     number of atoms/cell      =          192
     number of atomic types    =            2
     number of electrons       =       512.00
     number of Kohn-Sham states=          307
     kinetic-energy cutoff     =      30.0000  Ry
     charge density cutoff     =     120.0000  Ry
     convergence threshold     =      1.0E-08
     mixing beta               =       0.7000
     number of iterations used =            8  plain     mixing
     Exchange-correlation      = BLYP ( 1  3  1  3 0 0)

     celldm(1)=  20.000000  celldm(2)=   0.000000  celldm(3)=   0.000000
     celldm(4)=   0.000000  celldm(5)=   0.000000  celldm(6)=   0.000000

     crystal axes: (cart. coord. in units of alat)
               a(1) = (   1.000000   0.000000   0.000000 )  
               a(2) = (   0.000000   1.000000   0.000000 )  
               a(3) = (   0.000000   0.000000   1.000000 )  

     reciprocal axes: (cart. coord. in units 2 pi/alat)
               b(1) = (  1.000000  0.000000  0.000000 )  
               b(2) = (  0.000000  1.000000  0.000000 )  
               b(3) = (  0.000000  0.000000  1.000000 )  


     PseudoPot. # 1 for  H read from file:
     ./H.blyp-hgh.UPF
     MD5 check sum: c576e69559cde411e611be972c763230
     Pseudo is Norm-conserving, Zval =  1.0
     Generated in analytical, separable form
     Using radial grid of  929 points,  0 beta functions with: 

     PseudoPot. # 2 for  O read from file:
     ./O.blyp-hgh.UPF
     MD5 check sum: d0b7156309aa9befef28faac7bc56342
     Pseudo is Norm-conserving, Zval =  6.0
     Generated in analytical, separable form
     Using radial grid of 1095 points,  1 beta functions with: 
                l(1) =   0

     atomic species   valence    mass     pseudopotential
        H              1.00     1.01000      H( 1.00)
        O              6.00    16.00000      O( 1.00)

     No symmetry found



   Cartesian axes

     site n.     atom                  positions (alat units)
         1           O   tau(   1) = (  -0.2653268  -0.0754689  -0.0457688  )
         2           O   tau(   2) = (   0.1345551  -0.1342540   0.3080002  )
         3           O   tau(   3) = (  -0.2766761   0.3253687  -0.2669587  )
         4           O   tau(   4) = (   0.0613184   0.1521831  -0.0508073  )
         5           O   tau(   5) = (  -0.2516165   0.0620692   0.1845579  )
         6           O   tau(   6) = (  -0.0013130   0.3039030   0.2964724  )
         7           O   tau(   7) = (  -0.0625367  -0.2763620  -0.1266104  )
         8           O   tau(   8) = (   0.1529648   0.0593889   0.2299971  )
         9           O   tau(   9) = (  -0.1424810  -0.3255396   0.2810830  )
        10           O   tau(  10) = (   0.1060974  -0.1233732   0.1805656  )
        11           O   tau(  11) = (   0.1246839  -0.3302758   0.1223825  )
        12           O   tau(  12) = (  -0.1694516  -0.1829199   0.2169540  )
        13           O   tau(  13) = (  -0.2366218  -0.3527292   0.0227520  )
        14           O   tau(  14) = (  -0.1954916  -0.2323987  -0.1843835  )
        15           O   tau(  15) = (   0.1254455  -0.1868323  -0.0953922  )
        16           O   tau(  16) = (  -0.0955631   0.1527611  -0.0531444  )
        17           O   tau(  17) = (  -0.0698915  -0.1466526   0.0943496  )
        18           O   tau(  18) = (   0.0267670  -0.2416876   0.1752572  )
        19           O   tau(  19) = (   0.2266513  -0.2205195  -0.2386100  )
        20           O   tau(  20) = (   0.2517799   0.2359882   0.1119933  )
        21           O   tau(  21) = (   0.2630877  -0.1961736   0.1834194  )
        22           O   tau(  22) = (  -0.1211094  -0.1104750  -0.1579558  )
        23           O   tau(  23) = (  -0.0589313   0.1595316  -0.2238373  )
        24           O   tau(  24) = (   0.2175905   0.0862656   0.0962074  )
        25           O   tau(  25) = (   0.1434523   0.0633971  -0.1751752  )
        26           O   tau(  26) = (  -0.2265521   0.1583670  -0.2717941  )
        27           O   tau(  27) = (   0.2505212  -0.2855562  -0.0080795  )
        28           O   tau(  28) = (   0.0435597  -0.0196580  -0.2952497  )
        29           O   tau(  29) = (  -0.1134423   0.0314955  -0.2568097  )
        30           O   tau(  30) = (   0.0436477  -0.0427227   0.0854840  )
        31           O   tau(  31) = (   0.2867338  -0.1080823  -0.1993435  )
        32           O   tau(  32) = (   0.2197457  -0.0097759  -0.0634828  )
        33           O   tau(  33) = (   0.0266744   0.2208460   0.1975928  )
        34           O   tau(  34) = (  -0.2224574   0.0270089  -0.1692619  )
        35           O   tau(  35) = (   0.0005814  -0.1906850  -0.0391573  )
        36           O   tau(  36) = (   0.2587453   0.2122626  -0.3414651  )
        37           O   tau(  37) = (   0.1780055   0.3290942   0.2881119  )
        38           O   tau(  38) = (  -0.2751723   0.2711492  -0.1229848  )
        39           O   tau(  39) = (   0.0009069   0.0523860  -0.1345533  )
        40           O   tau(  40) = (  -0.2049066  -0.1960813  -0.0502286  )
        41           O   tau(  41) = (  -0.1454865   0.2822849   0.1476897  )
        42           O   tau(  42) = (  -0.1314587   0.1665483   0.2050279  )
        43           O   tau(  43) = (  -0.0880152  -0.0910113  -0.0247479  )
        44           O   tau(  44) = (  -0.0714538  -0.0781627   0.2637773  )
        45           O   tau(  45) = (   0.0145367   0.1031392   0.2937838  )
        46           O   tau(  46) = (  -0.2347433   0.1530277   0.0724029  )
        47           O   tau(  47) = (   0.1838208   0.2409394  -0.0917586  )
        48           O   tau(  48) = (   0.0751527  -0.2881674  -0.1910763  )
        49           O   tau(  49) = (  -0.1470889   0.2246416  -0.1615002  )
        50           O   tau(  50) = (   0.2608573   0.0490273   0.3306649  )
        51           O   tau(  51) = (  -0.0778375   0.0427031   0.0973665  )
        52           O   tau(  52) = (   0.0003814  -0.0878609  -0.1863787  )
        53           O   tau(  53) = (   0.0136663  -0.1815638  -0.2882512  )
        54           O   tau(  54) = (   0.3475522  -0.3083144   0.1970058  )
        55           O   tau(  55) = (   0.1875184  -0.1420418   0.0598298  )
        56           O   tau(  56) = (   0.2987318  -0.0583022   0.1502789  )
        57           O   tau(  57) = (   0.0719039   0.1882298  -0.2126764  )
        58           O   tau(  58) = (  -0.0798693  -0.3630199   0.0231139  )
        59           O   tau(  59) = (  -0.2458343  -0.0767136  -0.3304894  )
        60           O   tau(  60) = (  -0.2172371   0.0780749  -0.0354285  )
        61           O   tau(  61) = (   0.2665682   0.1866169  -0.1997160  )
        62           O   tau(  62) = (   0.0779775  -0.0413184  -0.0752282  )
        63           O   tau(  63) = (  -0.2371026  -0.1816828   0.1075689  )
        64           O   tau(  64) = (   0.0857904   0.1551093   0.0984649  )
        65           H   tau(  65) = (  -0.2556437  -0.1223623  -0.0365609  )
        66           H   tau(  66) = (  -0.2362367  -0.0556091  -0.0787011  )
        67           H   tau(  67) = (   0.1329875  -0.0885895   0.3259034  )
        68           H   tau(  68) = (   0.1401164  -0.1245940   0.2594737  )
        69           H   tau(  69) = (  -0.2821397   0.2862857  -0.2387825  )
        70           H   tau(  70) = (  -0.2334694   0.3445757  -0.2503840  )
        71           H   tau(  71) = (   0.1016185   0.1279773  -0.0654621  )
        72           H   tau(  72) = (   0.0760882   0.1983871  -0.0581487  )
        73           H   tau(  73) = (  -0.2780029   0.0207880   0.1880483  )
        74           H   tau(  74) = (  -0.2122212   0.0580357   0.2132429  )
        75           H   tau(  75) = (  -0.0006218   0.3488891   0.2758317  )
        76           H   tau(  76) = (  -0.0012952   0.3141837   0.3444106  )
        77           H   tau(  77) = (  -0.0333639  -0.2958445  -0.0916172  )
        78           H   tau(  78) = (  -0.0293830  -0.2774561  -0.1632840  )
        79           H   tau(  79) = (   0.1710655   0.0960441   0.2039651  )
        80           H   tau(  80) = (   0.1095751   0.0556473   0.2078269  )
        81           H   tau(  81) = (  -0.1470386  -0.3711600   0.2974510  )
        82           H   tau(  82) = (  -0.0970475  -0.3286096   0.2618804  )
        83           H   tau(  83) = (   0.0866872  -0.0868948   0.1536168  )
        84           H   tau(  84) = (   0.1250033  -0.1568118   0.1518666  )
        85           H   tau(  85) = (   0.0779837  -0.3308844   0.1368091  )
        86           H   tau(  86) = (   0.1352202  -0.2825312   0.1209623  )
        87           H   tau(  87) = (  -0.1837930  -0.2184592   0.2472795  )
        88           H   tau(  88) = (  -0.1787477  -0.1884457   0.1699870  )
        89           H   tau(  89) = (  -0.2497549  -0.3912101   0.0503548  )
        90           H   tau(  90) = (  -0.2540888  -0.3703726  -0.0200077  )
        91           H   tau(  91) = (  -0.1614012  -0.1988786  -0.1966604  )
        92           H   tau(  92) = (  -0.1663947  -0.2656650  -0.1624388  )
        93           H   tau(  93) = (   0.1560594  -0.1596512  -0.1226619  )
        94           H   tau(  94) = (   0.0839791  -0.1617820  -0.0928591  )
        95           H   tau(  95) = (  -0.1207450   0.1898217  -0.0751371  )
        96           H   tau(  96) = (  -0.0888907   0.1705751  -0.0076216  )
        97           H   tau(  97) = (  -0.0918178  -0.1430966   0.0513825  )
        98           H   tau(  98) = (  -0.0340428  -0.1124053   0.0916402  )
        99           H   tau(  99) = (   0.0433269  -0.1949348   0.1740191  )
       100           H   tau( 100) = (  -0.0158142  -0.2397045   0.1500439  )
       101           H   tau( 101) = (   0.2565538  -0.2517664  -0.2648166  )
       102           H   tau( 102) = (   0.2068129  -0.1841815  -0.2666587  )
       103           H   tau( 103) = (   0.2033645   0.2404264   0.1053562  )
       104           H   tau( 104) = (   0.2595679   0.2526818   0.1561188  )
       105           H   tau( 105) = (   0.3061552  -0.1771747   0.1708263  )
       106           H   tau( 106) = (   0.2403986  -0.1652001   0.2130063  )
       107           H   tau( 107) = (  -0.0760760  -0.1007171  -0.1790274  )
       108           H   tau( 108) = (  -0.1527090  -0.0790442  -0.1776997  )
       109           H   tau( 109) = (  -0.0131515   0.1470387  -0.2125958  )
       110           H   tau( 110) = (  -0.0895472   0.1227707  -0.2320103  )
       111           H   tau( 111) = (   0.2312473   0.1331280   0.0896693  )
       112           H   tau( 112) = (   0.1686398   0.0933497   0.0948265  )
       113           H   tau( 113) = (   0.1088883   0.0473772  -0.2064796  )
       114           H   tau( 114) = (   0.1356146   0.1115543  -0.1829438  )
       115           H   tau( 115) = (  -0.2673353   0.1593787  -0.2985951  )
       116           H   tau( 116) = (  -0.2349297   0.1293012  -0.2337482  )
       117           H   tau( 117) = (   0.2556450  -0.3234003   0.0228367  )
       118           H   tau( 118) = (   0.2910581  -0.2876142  -0.0357365  )
       119           H   tau( 119) = (  -0.0019709  -0.0347060  -0.3071330  )
       120           H   tau( 120) = (   0.0404484   0.0307036  -0.3003843  )
       121           H   tau( 121) = (  -0.1309728   0.0071147  -0.2949455  )
       122           H   tau( 122) = (  -0.1340856   0.0099644  -0.2183578  )
       123           H   tau( 123) = (   0.0090523  -0.0078354   0.0836232  )
       124           H   tau( 124) = (   0.0481780  -0.0574990   0.0389069  )
       125           H   tau( 125) = (   0.2719533  -0.1563501  -0.2033837  )
       126           H   tau( 126) = (   0.2936406  -0.1030676  -0.1508185  )
       127           H   tau( 127) = (   0.2087508   0.0319061  -0.0394530  )
       128           H   tau( 128) = (   0.2494406  -0.0345051  -0.0320378  )
       129           H   tau( 129) = (   0.0185264   0.2539074   0.2344733  )
       130           H   tau( 130) = (  -0.0180370   0.2047911   0.1952164  )
       131           H   tau( 131) = (  -0.2447644   0.0684392  -0.1546714  )
       132           H   tau( 132) = (  -0.2566599   0.0028849  -0.1950452  )
       133           H   tau( 133) = (  -0.0331117  -0.2221701  -0.0545300  )
       134           H   tau( 134) = (  -0.0038669  -0.1854785   0.0092080  )
       135           H   tau( 135) = (   0.2576844   0.2540387  -0.3665491  )
       136           H   tau( 136) = (   0.2808820   0.1807189  -0.3710504  )
       137           H   tau( 137) = (   0.1520605   0.3210099   0.2471471  )
       138           H   tau( 138) = (   0.1597822   0.3716334   0.3036020  )
       139           H   tau( 139) = (  -0.3235933   0.2670552  -0.1311757  )
       140           H   tau( 140) = (  -0.2437857   0.2490652  -0.1545314  )
       141           H   tau( 141) = (  -0.0471940   0.0514005  -0.1378898  )
       142           H   tau( 142) = (   0.0042804   0.0882567  -0.1007595  )
       143           H   tau( 143) = (  -0.1847706  -0.1895350  -0.0942884  )
       144           H   tau( 144) = (  -0.1826992  -0.2397005  -0.0422007  )
       145           H   tau( 145) = (  -0.1804897   0.2741898   0.1134913  )
       146           H   tau( 146) = (  -0.1737586   0.2936205   0.1878037  )
       147           H   tau( 147) = (  -0.1331124   0.2072032   0.1753369  )
       148           H   tau( 148) = (  -0.1766802   0.1489758   0.1980061  )
       149           H   tau( 149) = (  -0.0978752  -0.1073697  -0.0700778  )
       150           H   tau( 150) = (  -0.0897331  -0.0427884  -0.0228723  )
       151           H   tau( 151) = (  -0.0923826  -0.1109311   0.2331316  )
       152           H   tau( 152) = (  -0.0745726  -0.1037167   0.3054696  )
       153           H   tau( 153) = (   0.0364032   0.1333541   0.2618088  )
       154           H   tau( 154) = (  -0.0352763   0.1056301   0.2916974  )
       155           H   tau( 155) = (  -0.2577717   0.1275758   0.1083799  )
       156           H   tau( 156) = (  -0.1920450   0.1281618   0.0714951  )
       157           H   tau( 157) = (   0.2033542   0.2847891  -0.0780347  )
       158           H   tau( 158) = (   0.1944749   0.2347749  -0.1394559  )
       159           H   tau( 159) = (   0.0858503  -0.2657866  -0.2337225  )
       160           H   tau( 160) = (   0.0872995  -0.2509109  -0.1599273  )
       161           H   tau( 161) = (  -0.1557757   0.1868589  -0.1915122  )
       162           H   tau( 162) = (  -0.0978139   0.2192911  -0.1588312  )
       163           H   tau( 163) = (   0.2371230   0.0294586   0.3689348  )
       164           H   tau( 164) = (   0.2266840   0.0508835   0.2960591  )
       165           H   tau( 165) = (  -0.0671790   0.0039843   0.1265060  )
       166           H   tau( 166) = (  -0.0919939   0.0767788   0.1312337  )
       167           H   tau( 167) = (   0.0272425  -0.0852426  -0.1444522  )
       168           H   tau( 168) = (   0.0193915  -0.0484986  -0.2111867  )
       169           H   tau( 169) = (   0.0194756  -0.1384164  -0.2641790  )
       170           H   tau( 170) = (   0.0484792  -0.1766485  -0.3227643  )
       171           H   tau( 171) = (   0.3509772  -0.2890512   0.2423147  )
       172           H   tau( 172) = (   0.3467694  -0.2696337   0.1669621  )
       173           H   tau( 173) = (   0.2129396  -0.1824373   0.0475863  )
       174           H   tau( 174) = (   0.1659160  -0.1360338   0.0162756  )
       175           H   tau( 175) = (   0.2789109  -0.0375583   0.1100586  )
       176           H   tau( 176) = (   0.2602816  -0.0661083   0.1794490  )
       177           H   tau( 177) = (   0.0919386   0.1881662  -0.2569382  )
       178           H   tau( 178) = (   0.0854040   0.2296400  -0.1895507  )
       179           H   tau( 179) = (  -0.1078277  -0.3455395   0.0596496  )
       180           H   tau( 180) = (  -0.1170084  -0.3773014  -0.0052680  )
       181           H   tau( 181) = (  -0.2847593  -0.0931141  -0.3056269  )
       182           H   tau( 182) = (  -0.2354226  -0.1095818  -0.3648404  )
       183           H   tau( 183) = (  -0.1681945   0.0770521  -0.0345949  )
       184           H   tau( 184) = (  -0.2273857   0.1181270  -0.0087675  )
       185           H   tau( 185) = (   0.2861221   0.2011539  -0.2423049  )
       186           H   tau( 186) = (   0.2399688   0.1469008  -0.2118734  )
       187           H   tau( 187) = (   0.1242338  -0.0261174  -0.0862711  )
       188           H   tau( 188) = (   0.0481321  -0.0022488  -0.0734946  )
       189           H   tau( 189) = (  -0.2792564  -0.2000257   0.0898456  )
       190           H   tau( 190) = (  -0.2493028  -0.1360508   0.1214624  )
       191           H   tau( 191) = (   0.0583868   0.1585936   0.1384451  )
       192           H   tau( 192) = (   0.0563683   0.1461440   0.0606189  )

     number of k points=     1  Marzari-Vanderbilt smearing, width (Ry)=  0.0250
                       cart. coord. in units 2pi/alat
        k(    1) = (   0.0000000   0.0000000   0.0000000), wk =   2.0000000

     Dense  grid:   177509 G-vectors     FFT dimensions: (  72,  72,  72)

     Estimated max dynamical RAM per process >      67.80Mb

     Estimated total allocated dynamical RAM >    1898.40Mb

     Initial potential from superposition of free atoms
     Check: negative starting charge=   -0.738165

     starting charge  511.99856, renormalised to  512.00000

     negative rho (up, down):  7.382E-01 0.000E+00
     Starting wfc are  384 randomized atomic wfcs

     total cpu time spent up to now is        0.8 secs

     per-process dynamical memory:    45.9 Mb

     Self-consistent Calculation

     iteration #  1     ecut=    30.00 Ry     beta=0.70
     Davidson diagonalization with overlap
     ethr =  1.00E-02,  avg # of iterations =  8.0

     negative rho (up, down):  1.723E-01 0.000E+00

     total cpu time spent up to now is        9.1 secs

     total energy              =   -1797.68089627 Ry
     Harris-Foulkes estimate   =   -1824.93003500 Ry
     estimated scf accuracy    <      42.10507963 Ry

     iteration #  2     ecut=    30.00 Ry     beta=0.70
     Davidson diagonalization with overlap
     ethr =  8.22E-03,  avg # of iterations =  4.0

     negative rho (up, down):  1.154E-03 0.000E+00

     total cpu time spent up to now is       12.2 secs

     total energy              =   -1778.24697260 Ry
     Harris-Foulkes estimate   =   -1811.09563633 Ry
     estimated scf accuracy    <      73.00777821 Ry

     iteration #  3     ecut=    30.00 Ry     beta=0.70
     Davidson diagonalization with overlap
     ethr =  8.22E-03,  avg # of iterations =  5.0

     negative rho (up, down):  8.382E-06 0.000E+00

     total cpu time spent up to now is       16.0 secs

     total energy              =   -1797.88633424 Ry
     Harris-Foulkes estimate   =   -1813.32936023 Ry
     estimated scf accuracy    <      50.26343062 Ry

     iteration #  4     ecut=    30.00 Ry     beta=0.70
     Davidson diagonalization with overlap
     ethr =  8.22E-03,  avg # of iterations =  3.0

     total cpu time spent up to now is       17.8 secs

     total energy              =   -1805.24591959 Ry
     Harris-Foulkes estimate   =   -1807.42871876 Ry
     estimated scf accuracy    <       6.65337176 Ry

     iteration #  5     ecut=    30.00 Ry     beta=0.70
     Davidson diagonalization with overlap
     ethr =  1.30E-03,  avg # of iterations =  5.0

     total cpu time spent up to now is       20.4 secs

     total energy              =   -1805.05515557 Ry
     Harris-Foulkes estimate   =   -1805.66016272 Ry
     estimated scf accuracy    <       2.43373940 Ry

     iteration #  6     ecut=    30.00 Ry     beta=0.70
     Davidson diagonalization with overlap
     ethr =  4.75E-04,  avg # of iterations =  4.0

     total cpu time spent up to now is       22.5 secs

     total energy              =   -1804.87346393 Ry
     Harris-Foulkes estimate   =   -1805.14094648 Ry
     estimated scf accuracy    <       1.10010346 Ry

     iteration #  7     ecut=    30.00 Ry     beta=0.70
     Davidson diagonalization with overlap
     ethr =  2.15E-04,  avg # of iterations =  6.0

     total cpu time spent up to now is       25.2 secs

     total energy              =   -1804.82813914 Ry
     Harris-Foulkes estimate   =   -1804.93397574 Ry
     estimated scf accuracy    <       0.40400519 Ry

     iteration #  8     ecut=    30.00 Ry     beta=0.70
     Davidson diagonalization with overlap
     ethr =  7.89E-05,  avg # of iterations =  5.0

     total cpu time spent up to now is       27.6 secs

     total energy              =   -1804.81573500 Ry
     Harris-Foulkes estimate   =   -1804.90517648 Ry
     estimated scf accuracy    <       0.84876442 Ry

     iteration #  9     ecut=    30.00 Ry     beta=0.70
     Davidson diagonalization with overlap
     ethr =  7.89E-05,  avg # of iterations =  2.0

     total cpu time spent up to now is       29.0 secs

     total energy              =   -1804.81756960 Ry
     Harris-Foulkes estimate   =   -1804.85298089 Ry
     estimated scf accuracy    <       0.12620278 Ry

     iteration # 10     ecut=    30.00 Ry     beta=0.70
     Davidson diagonalization with overlap
     ethr =  2.46E-05,  avg # of iterations =  9.0

     total cpu time spent up to now is       32.8 secs

     total energy              =   -1804.83264332 Ry
     Harris-Foulkes estimate   =   -1804.84846231 Ry
     estimated scf accuracy    <       0.08364757 Ry

     iteration # 11     ecut=    30.00 Ry     beta=0.70
     Davidson diagonalization with overlap
     ethr =  1.63E-05,  avg # of iterations =  2.0

     total cpu time spent up to now is       34.2 secs

     total energy              =   -1804.82732429 Ry
     Harris-Foulkes estimate   =   -1804.83919569 Ry
     estimated scf accuracy    <       0.04369135 Ry

     iteration # 12     ecut=    30.00 Ry     beta=0.70
     Davidson diagonalization with overlap
     ethr =  8.53E-06,  avg # of iterations =  7.0

     total cpu time spent up to now is       37.3 secs

     total energy              =   -1804.83001531 Ry
     Harris-Foulkes estimate   =   -1804.83675810 Ry
     estimated scf accuracy    <       0.03565793 Ry

     iteration # 13     ecut=    30.00 Ry     beta=0.70
     Davidson diagonalization with overlap
     ethr =  6.96E-06,  avg # of iterations =  2.0

     total cpu time spent up to now is       38.7 secs

     total energy              =   -1804.83129662 Ry
     Harris-Foulkes estimate   =   -1804.83596573 Ry
     estimated scf accuracy    <       0.04081496 Ry

     iteration # 14     ecut=    30.00 Ry     beta=0.70
     Davidson diagonalization with overlap
     ethr =  6.96E-06,  avg # of iterations =  1.0

     total cpu time spent up to now is       39.8 secs

     total energy              =   -1804.83310806 Ry
     Harris-Foulkes estimate   =   -1804.83424845 Ry
     estimated scf accuracy    <       0.00645160 Ry

     iteration # 15     ecut=    30.00 Ry     beta=0.70
     Davidson diagonalization with overlap
     ethr =  1.26E-06,  avg # of iterations =  2.0

     total cpu time spent up to now is       41.3 secs

     total energy              =   -1804.83330643 Ry
     Harris-Foulkes estimate   =   -1804.83349529 Ry
     estimated scf accuracy    <       0.00096439 Ry

     iteration # 16     ecut=    30.00 Ry     beta=0.70
     Davidson diagonalization with overlap
     ethr =  1.88E-07,  avg # of iterations =  2.0

     total cpu time spent up to now is       42.7 secs

     total energy              =   -1804.83337601 Ry
     Harris-Foulkes estimate   =   -1804.83343108 Ry
     estimated scf accuracy    <       0.00034287 Ry

     iteration # 17     ecut=    30.00 Ry     beta=0.70
     Davidson diagonalization with overlap
     ethr =  6.70E-08,  avg # of iterations =  2.0

     total cpu time spent up to now is       44.1 secs

     total energy              =   -1804.83339735 Ry
     Harris-Foulkes estimate   =   -1804.83340410 Ry
     estimated scf accuracy    <       0.00002338 Ry

     iteration # 18     ecut=    30.00 Ry     beta=0.70
     Davidson diagonalization with overlap
     ethr =  4.57E-09,  avg # of iterations =  2.0

     total cpu time spent up to now is       45.6 secs

     total energy              =   -1804.83339879 Ry
     Harris-Foulkes estimate   =   -1804.83340520 Ry
     estimated scf accuracy    <       0.00004225 Ry

     iteration # 19     ecut=    30.00 Ry     beta=0.70
     Davidson diagonalization with overlap
     ethr =  4.57E-09,  avg # of iterations =  2.0

     total cpu time spent up to now is       47.1 secs

     total energy              =   -1804.83340269 Ry
     Harris-Foulkes estimate   =   -1804.83340316 Ry
     estimated scf accuracy    <       0.00000445 Ry

     iteration # 20     ecut=    30.00 Ry     beta=0.70
     Davidson diagonalization with overlap
     ethr =  8.69E-10,  avg # of iterations =  3.0

     total cpu time spent up to now is       48.8 secs

     total energy              =   -1804.83340316 Ry
     Harris-Foulkes estimate   =   -1804.83340323 Ry
     estimated scf accuracy    <       0.00000034 Ry

     iteration # 21     ecut=    30.00 Ry     beta=0.70
     Davidson diagonalization with overlap
     ethr =  6.67E-11,  avg # of iterations =  3.0

     total cpu time spent up to now is       50.7 secs

     total energy              =   -1804.83340324 Ry
     Harris-Foulkes estimate   =   -1804.83340324 Ry
     estimated scf accuracy    <       0.00000008 Ry

     iteration # 22     ecut=    30.00 Ry     beta=0.70
     Davidson diagonalization with overlap
     ethr =  1.50E-11,  avg # of iterations =  3.0

     total cpu time spent up to now is       52.6 secs

     total energy              =   -1804.83340327 Ry
     Harris-Foulkes estimate   =   -1804.83340326 Ry
     estimated scf accuracy    <       0.00000001 Ry

     iteration # 23     ecut=    30.00 Ry     beta=0.70
     Davidson diagonalization with overlap
     ethr =  2.76E-12,  avg # of iterations =  3.0

     total cpu time spent up to now is       54.7 secs

     total energy              =   -1804.83340327 Ry
     Harris-Foulkes estimate   =   -1804.83340328 Ry
     estimated scf accuracy    <       0.00000005 Ry

     iteration # 24     ecut=    30.00 Ry     beta=0.70
     Davidson diagonalization with overlap
     ethr =  2.76E-12,  avg # of iterations =  3.0

     total cpu time spent up to now is       56.6 secs

     End of self-consistent calculation

          k = 0.0000 0.0000 0.0000 ( 22119 PWs)   bands (ev):

   -41.5430 -39.8749 -39.1477 -38.4687 -38.2599 -36.8325 -36.5287 -36.2834
   -35.7961 -35.6106 -34.8232 -34.7313 -34.3181 -34.2170 -33.6533 -33.5014
   -33.3354 -33.1277 -32.6756 -32.4266 -32.2231 -31.7551 -31.5291 -31.2085
   -30.9897 -30.8781 -30.6742 -30.6033 -30.5046 -30.3755 -30.0059 -29.9274
   -29.6999 -29.5795 -29.3600 -29.3212 -28.9405 -28.6064 -28.4156 -28.3615
   -28.3138 -28.2860 -28.1911 -27.9473 -27.8543 -27.7329 -27.6125 -27.5014
   -27.0857 -27.0082 -26.7321 -26.6827 -26.6292 -26.3161 -26.0799 -25.9199
   -25.8844 -25.8037 -25.7619 -25.4902 -25.2304 -25.1620 -24.6747 -24.4700
   -22.1929 -21.6636 -20.9319 -20.6621 -20.4654 -20.2564 -19.9389 -19.7348
   -19.6521 -19.2216 -18.9238 -18.7397 -18.5870 -18.4264 -18.3333 -18.0644
   -17.8046 -17.2547 -16.9861 -16.8976 -16.5952 -16.4908 -16.4112 -16.2699
   -16.1373 -15.9503 -15.8906 -15.5149 -15.4366 -15.3525 -15.1183 -15.1041
   -14.9008 -14.6571 -14.5552 -14.4898 -14.2180 -14.1873 -13.9597 -13.8796
   -13.7705 -13.7058 -13.5717 -13.5390 -13.3962 -13.3277 -13.2537 -13.1517
   -13.1414 -12.9110 -12.7601 -12.6565 -12.5566 -12.3778 -12.2773 -12.2427
   -12.2030 -11.9961 -11.8533 -11.6899 -11.6099 -11.4799 -11.3975 -11.1179
   -11.0024 -10.6172 -10.0337  -9.5535  -9.1271  -9.0479  -8.6811  -8.5116
    -8.4442  -8.2729  -7.9193  -7.7615  -7.6432  -7.4301  -7.3821  -7.2459
    -7.1120  -6.9137  -6.8772  -6.7477  -6.5532  -6.4985  -6.3185  -6.2710
    -6.2056  -6.0879  -5.9330  -5.8082  -5.7168  -5.4777  -5.2895  -5.1520
    -5.0813  -5.0203  -4.9951  -4.8873  -4.8557  -4.7139  -4.5576  -4.4302
    -4.2531  -4.2404  -4.1141  -4.0585  -4.0237  -3.8541  -3.8145  -3.7529
    -3.6671  -3.5391  -3.4708  -3.4333  -3.3643  -3.3396  -3.2291  -3.0914
    -3.0490  -2.8935  -2.8145  -2.7691  -2.7059  -2.6663  -2.5681  -2.3566
    -2.2810  -2.1657  -2.1251  -1.9776  -1.9295  -1.7910  -1.7546  -1.6924
    -1.5248  -1.4876  -1.3880  -1.3282  -1.2515  -1.0919  -1.0566  -0.9239
    -0.7291  -0.6431  -0.5777  -0.5745  -0.5111  -0.3584  -0.3339  -0.1697
     0.0488   0.0623   0.1559   0.2585   0.3574   0.4181   0.6708   0.7145
     0.9116   1.0212   1.2586   1.3535   1.4335   1.6145   1.7362   1.7925
     1.8815   2.0649   2.0918   2.1772   2.2263   2.4324   2.6000   2.7363
     2.8796   3.0395   3.2913   3.4583   3.5992   3.8461   4.0547   4.5278
     4.6743   4.7072   4.7827   4.8962   5.1159   5.2054   5.3066   5.4412
     5.6031   6.3354   6.4946   6.6325   6.8600   7.1436   7.3092   7.5103
     7.6431   7.6971   7.7949   7.8535   7.9839   8.4183   8.5598   8.6850
     8.7472   8.8551   8.9850   9.6738   9.7366   9.8220   9.9909  10.1268
    10.1787  10.3236  10.3798  10.5198  10.5963  10.6978  10.8030  10.9208
    10.9918  11.0874  11.2388  11.2855  11.3440  11.4437  11.4534  11.5858
    11.6856  11.8098  11.8526  11.9047  11.9576  11.9900  12.0536  12.1317
    12.1687  12.2167  12.3156

     the Fermi energy is     5.5435 ev

!    total energy              =   -1804.83340327 Ry
     Harris-Foulkes estimate   =   -1804.83340328 Ry
     estimated scf accuracy    <          7.1E-09 Ry

     The total energy is the sum of the following terms:

     one-electron contribution =  -13566.03385430 Ry
     hartree contribution      =    6956.68986361 Ry
     xc contribution           =    -634.23752499 Ry
     ewald contribution        =    5438.73816774 Ry
     smearing contrib. (-TS)   =       0.00994467 Ry

     convergence has been achieved in  24 iterations

     Writing output data file pwscf.save
 
     init_run     :      0.60s CPU      0.65s WALL (       1 calls)
     electrons    :     54.20s CPU     55.85s WALL (       1 calls)

     Called by init_run:
     wfcinit      :      0.48s CPU      0.53s WALL (       1 calls)
     potinit      :      0.02s CPU      0.02s WALL (       1 calls)

     Called by electrons:
     c_bands      :     51.83s CPU     53.15s WALL (      24 calls)
     sum_band     :      1.99s CPU      2.05s WALL (      24 calls)
     v_of_rho     :      0.19s CPU      0.20s WALL (      25 calls)
     mix_rho      :      0.13s CPU      0.26s WALL (      24 calls)

     Called by c_bands:
     init_us_2    :      0.06s CPU      0.07s WALL (      49 calls)
     cegterg      :     51.73s CPU     52.95s WALL (      24 calls)

     Called by sum_band:

     Called by *egterg:
     h_psi        :      9.08s CPU      9.26s WALL (     113 calls)
     g_psi        :      0.08s CPU      0.08s WALL (      88 calls)
     cdiaghg      :     32.80s CPU     32.85s WALL (     112 calls)

     Called by h_psi:
     h_psi:pot    :      8.86s CPU      9.04s WALL (     113 calls)
     h_psi:calbec :      0.34s CPU      0.34s WALL (     113 calls)
     vloc_psi     :      8.23s CPU      8.40s WALL (     113 calls)
     add_vuspsi   :      0.29s CPU      0.30s WALL (     113 calls)

     General routines
     calbec       :      0.33s CPU      0.34s WALL (     113 calls)
     fft          :      0.11s CPU      0.11s WALL (     274 calls)
     fftw         :      9.17s CPU      9.39s WALL (   41476 calls)
     davcio       :      0.02s CPU      0.14s WALL (     388 calls)
 
     Parallel routines
     fft_scatter  :      3.48s CPU      3.58s WALL (   41750 calls)
 
     PWSCF        :    54.96s CPU        56.90s WALL

 
   This run was terminated on:  20:19:58   2Feb2018            

=------------------------------------------------------------------------------=
   JOB DONE.
=------------------------------------------------------------------------------=
