
     Program PWSCF v.6.0 (svn rev. 13079) starts on  2Feb2018 at 20:26:34 

     This program is part of the open-source Quantum ESPRESSO suite
     for quantum simulation of materials; please cite
         "P. Giannozzi et al., J. Phys.:Condens. Matter 21 395502 (2009);
          URL http://www.quantum-espresso.org", 
     in publications or presentations arising from this work. More details at
     http://www.quantum-espresso.org/quote

     Parallel version (MPI), running on    28 processors
     R & G space division:  proc/nbgrp/npool/nimage =      28
     Reading input from input/scf-bigwater-1/953.in
Warning: card &IONS ignored
Warning: card     POT_EXTRAPOLATION='SECOND-ORDER' ignored
Warning: card     WFC_EXTRAPOLATION='SECOND-ORDER' ignored
Warning: card     ION_TEMPERATURE = 'ANDERSEN' ignored
Warning: card     TEMPW = 1000 ignored
Warning: card / ignored

     Current dimensions of program PWSCF are:
     Max number of different atomic species (ntypx) = 10
     Max number of k-points (npk) =  40000
     Max angular momentum in pseudopotentials (lmaxx) =  3

     Subspace diagonalization in iterative solution of the eigenvalue problem:
     a serial algorithm will be used

 
     Parallelization info
     --------------------
     sticks:   dense  smooth     PW     G-vecs:    dense   smooth      PW
     Min         136     136     33                 6338     6338     787
     Max         137     137     34                 6341     6341     792
     Sum        3809    3809    949               177509   177509   22119
 


     bravais-lattice index     =            1
     lattice parameter (alat)  =      20.0000  a.u.
     unit-cell volume          =    8000.0000 (a.u.)^3
     number of atoms/cell      =          192
     number of atomic types    =            2
     number of electrons       =       512.00
     number of Kohn-Sham states=          307
     kinetic-energy cutoff     =      30.0000  Ry
     charge density cutoff     =     120.0000  Ry
     convergence threshold     =      1.0E-08
     mixing beta               =       0.7000
     number of iterations used =            8  plain     mixing
     Exchange-correlation      = BLYP ( 1  3  1  3 0 0)

     celldm(1)=  20.000000  celldm(2)=   0.000000  celldm(3)=   0.000000
     celldm(4)=   0.000000  celldm(5)=   0.000000  celldm(6)=   0.000000

     crystal axes: (cart. coord. in units of alat)
               a(1) = (   1.000000   0.000000   0.000000 )  
               a(2) = (   0.000000   1.000000   0.000000 )  
               a(3) = (   0.000000   0.000000   1.000000 )  

     reciprocal axes: (cart. coord. in units 2 pi/alat)
               b(1) = (  1.000000  0.000000  0.000000 )  
               b(2) = (  0.000000  1.000000  0.000000 )  
               b(3) = (  0.000000  0.000000  1.000000 )  


     PseudoPot. # 1 for  H read from file:
     ./H.blyp-hgh.UPF
     MD5 check sum: c576e69559cde411e611be972c763230
     Pseudo is Norm-conserving, Zval =  1.0
     Generated in analytical, separable form
     Using radial grid of  929 points,  0 beta functions with: 

     PseudoPot. # 2 for  O read from file:
     ./O.blyp-hgh.UPF
     MD5 check sum: d0b7156309aa9befef28faac7bc56342
     Pseudo is Norm-conserving, Zval =  6.0
     Generated in analytical, separable form
     Using radial grid of 1095 points,  1 beta functions with: 
                l(1) =   0

     atomic species   valence    mass     pseudopotential
        H              1.00     1.01000      H( 1.00)
        O              6.00    16.00000      O( 1.00)

     No symmetry found



   Cartesian axes

     site n.     atom                  positions (alat units)
         1           O   tau(   1) = (  -0.2657738  -0.0756892  -0.0445863  )
         2           O   tau(   2) = (   0.1351386  -0.1342404   0.3078066  )
         3           O   tau(   3) = (  -0.2770765   0.3255087  -0.2673014  )
         4           O   tau(   4) = (   0.0623892   0.1511243  -0.0509847  )
         5           O   tau(   5) = (  -0.2514559   0.0611297   0.1856244  )
         6           O   tau(   6) = (  -0.0005237   0.3036762   0.2961123  )
         7           O   tau(   7) = (  -0.0635556  -0.2772696  -0.1266912  )
         8           O   tau(   8) = (   0.1536751   0.0598849   0.2306110  )
         9           O   tau(   9) = (  -0.1431694  -0.3262056   0.2806311  )
        10           O   tau(  10) = (   0.1055003  -0.1234843   0.1819585  )
        11           O   tau(  11) = (   0.1252597  -0.3305331   0.1219026  )
        12           O   tau(  12) = (  -0.1693257  -0.1826930   0.2179972  )
        13           O   tau(  13) = (  -0.2362523  -0.3529642   0.0215624  )
        14           O   tau(  14) = (  -0.1952476  -0.2311453  -0.1849207  )
        15           O   tau(  15) = (   0.1248894  -0.1874648  -0.0950224  )
        16           O   tau(  16) = (  -0.0948280   0.1536804  -0.0538078  )
        17           O   tau(  17) = (  -0.0692381  -0.1464172   0.0935306  )
        18           O   tau(  18) = (   0.0259173  -0.2418407   0.1753814  )
        19           O   tau(  19) = (   0.2258700  -0.2202374  -0.2389391  )
        20           O   tau(  20) = (   0.2503938   0.2356764   0.1119126  )
        21           O   tau(  21) = (   0.2634320  -0.1960541   0.1839748  )
        22           O   tau(  22) = (  -0.1208002  -0.1101077  -0.1576121  )
        23           O   tau(  23) = (  -0.0589403   0.1605246  -0.2237627  )
        24           O   tau(  24) = (   0.2178720   0.0860108   0.0948792  )
        25           O   tau(  25) = (   0.1434636   0.0640797  -0.1749216  )
        26           O   tau(  26) = (  -0.2266545   0.1593164  -0.2717208  )
        27           O   tau(  27) = (   0.2501866  -0.2854738  -0.0068585  )
        28           O   tau(  28) = (   0.0430835  -0.0208241  -0.2952961  )
        29           O   tau(  29) = (  -0.1140077   0.0312837  -0.2571132  )
        30           O   tau(  30) = (   0.0428941  -0.0421994   0.0853775  )
        31           O   tau(  31) = (   0.2867431  -0.1082828  -0.1990984  )
        32           O   tau(  32) = (   0.2195447  -0.0097589  -0.0639925  )
        33           O   tau(  33) = (   0.0264835   0.2215568   0.1974578  )
        34           O   tau(  34) = (  -0.2224152   0.0262435  -0.1691722  )
        35           O   tau(  35) = (   0.0003965  -0.1909569  -0.0393939  )
        36           O   tau(  36) = (   0.2592218   0.2122202  -0.3433630  )
        37           O   tau(  37) = (   0.1797611   0.3292012   0.2880276  )
        38           O   tau(  38) = (  -0.2756518   0.2720985  -0.1227011  )
        39           O   tau(  39) = (   0.0008686   0.0524185  -0.1347814  )
        40           O   tau(  40) = (  -0.2054559  -0.1966492  -0.0505150  )
        41           O   tau(  41) = (  -0.1454635   0.2824047   0.1466092  )
        42           O   tau(  42) = (  -0.1324147   0.1659989   0.2042469  )
        43           O   tau(  43) = (  -0.0884852  -0.0903725  -0.0246307  )
        44           O   tau(  44) = (  -0.0719648  -0.0780185   0.2637348  )
        45           O   tau(  45) = (   0.0142766   0.1045632   0.2929791  )
        46           O   tau(  46) = (  -0.2339275   0.1535489   0.0723025  )
        47           O   tau(  47) = (   0.1838415   0.2417562  -0.0919076  )
        48           O   tau(  48) = (   0.0750369  -0.2879493  -0.1905084  )
        49           O   tau(  49) = (  -0.1461093   0.2250192  -0.1617381  )
        50           O   tau(  50) = (   0.2617974   0.0496584   0.3309152  )
        51           O   tau(  51) = (  -0.0773864   0.0423503   0.0970631  )
        52           O   tau(  52) = (   0.0004546  -0.0879906  -0.1860638  )
        53           O   tau(  53) = (   0.0135765  -0.1812947  -0.2876746  )
        54           O   tau(  54) = (   0.3485565  -0.3092300   0.1971795  )
        55           O   tau(  55) = (   0.1877318  -0.1419455   0.0601072  )
        56           O   tau(  56) = (   0.2991798  -0.0592984   0.1502500  )
        57           O   tau(  57) = (   0.0724042   0.1883429  -0.2123668  )
        58           O   tau(  58) = (  -0.0802082  -0.3640327   0.0246651  )
        59           O   tau(  59) = (  -0.2451408  -0.0764463  -0.3314204  )
        60           O   tau(  60) = (  -0.2174660   0.0779840  -0.0349585  )
        61           O   tau(  61) = (   0.2662835   0.1865636  -0.2010992  )
        62           O   tau(  62) = (   0.0775998  -0.0422046  -0.0747314  )
        63           O   tau(  63) = (  -0.2375646  -0.1825723   0.1089924  )
        64           O   tau(  64) = (   0.0856019   0.1550918   0.0991156  )
        65           H   tau(  65) = (  -0.2570797  -0.1230657  -0.0368241  )
        66           H   tau(  66) = (  -0.2365079  -0.0562905  -0.0782440  )
        67           H   tau(  67) = (   0.1311559  -0.0898748   0.3279685  )
        68           H   tau(  68) = (   0.1380878  -0.1213688   0.2595512  )
        69           H   tau(  69) = (  -0.2823008   0.2857395  -0.2400432  )
        70           H   tau(  70) = (  -0.2349475   0.3474314  -0.2521114  )
        71           H   tau(  71) = (   0.1032504   0.1293600  -0.0658239  )
        72           H   tau(  72) = (   0.0740579   0.1985133  -0.0573751  )
        73           H   tau(  73) = (  -0.2785103   0.0211536   0.1918675  )
        74           H   tau(  74) = (  -0.2128194   0.0561197   0.2143823  )
        75           H   tau(  75) = (   0.0018648   0.3488792   0.2770388  )
        76           H   tau(  76) = (  -0.0008120   0.3127639   0.3440964  )
        77           H   tau(  77) = (  -0.0328070  -0.2959699  -0.0930385  )
        78           H   tau(  78) = (  -0.0303222  -0.2788430  -0.1635144  )
        79           H   tau(  79) = (   0.1719301   0.0959925   0.2039972  )
        80           H   tau(  80) = (   0.1111952   0.0534922   0.2066087  )
        81           H   tau(  81) = (  -0.1451294  -0.3717089   0.2982438  )
        82           H   tau(  82) = (  -0.0982350  -0.3278835   0.2601423  )
        83           H   tau(  83) = (   0.0863097  -0.0887277   0.1530167  )
        84           H   tau(  84) = (   0.1253162  -0.1564388   0.1514900  )
        85           H   tau(  85) = (   0.0788206  -0.3297976   0.1370982  )
        86           H   tau(  86) = (   0.1383970  -0.2833261   0.1189877  )
        87           H   tau(  87) = (  -0.1835717  -0.2204070   0.2459191  )
        88           H   tau(  88) = (  -0.1763308  -0.1875784   0.1703545  )
        89           H   tau(  89) = (  -0.2479439  -0.3911413   0.0505919  )
        90           H   tau(  90) = (  -0.2558952  -0.3716137  -0.0192531  )
        91           H   tau(  91) = (  -0.1602152  -0.1993045  -0.1968215  )
        92           H   tau(  92) = (  -0.1663814  -0.2636185  -0.1621517  )
        93           H   tau(  93) = (   0.1566150  -0.1622753  -0.1229188  )
        94           H   tau(  94) = (   0.0832449  -0.1618774  -0.0914305  )
        95           H   tau(  95) = (  -0.1226581   0.1887510  -0.0765409  )
        96           H   tau(  96) = (  -0.0880019   0.1684108  -0.0064886  )
        97           H   tau(  97) = (  -0.0915849  -0.1414645   0.0499247  )
        98           H   tau(  98) = (  -0.0349315  -0.1120460   0.0921385  )
        99           H   tau(  99) = (   0.0405681  -0.1945479   0.1746826  )
       100           H   tau( 100) = (  -0.0157357  -0.2410088   0.1489525  )
       101           H   tau( 101) = (   0.2586057  -0.2507312  -0.2619445  )
       102           H   tau( 102) = (   0.2045816  -0.1829731  -0.2641611  )
       103           H   tau( 103) = (   0.2019416   0.2419227   0.1060565  )
       104           H   tau( 104) = (   0.2593401   0.2524662   0.1560042  )
       105           H   tau( 105) = (   0.3062123  -0.1765871   0.1713553  )
       106           H   tau( 106) = (   0.2389684  -0.1663675   0.2134556  )
       107           H   tau( 107) = (  -0.0764990  -0.0991703  -0.1795765  )
       108           H   tau( 108) = (  -0.1529928  -0.0781092  -0.1755931  )
       109           H   tau( 109) = (  -0.0137828   0.1455798  -0.2106586  )
       110           H   tau( 110) = (  -0.0883613   0.1226994  -0.2349301  )
       111           H   tau( 111) = (   0.2338705   0.1323128   0.0887967  )
       112           H   tau( 112) = (   0.1693756   0.0950896   0.0951484  )
       113           H   tau( 113) = (   0.1094290   0.0455550  -0.2059763  )
       114           H   tau( 114) = (   0.1351940   0.1124638  -0.1816367  )
       115           H   tau( 115) = (  -0.2679974   0.1608841  -0.2971943  )
       116           H   tau( 116) = (  -0.2363380   0.1294555  -0.2346347  )
       117           H   tau( 117) = (   0.2555667  -0.3233174   0.0237499  )
       118           H   tau( 118) = (   0.2902074  -0.2862697  -0.0349189  )
       119           H   tau( 119) = (  -0.0033954  -0.0340918  -0.3058609  )
       120           H   tau( 120) = (   0.0416395   0.0292119  -0.3040139  )
       121           H   tau( 121) = (  -0.1331791   0.0059472  -0.2941896  )
       122           H   tau( 122) = (  -0.1367824   0.0118382  -0.2184266  )
       123           H   tau( 123) = (   0.0075122  -0.0081180   0.0844706  )
       124           H   tau( 124) = (   0.0461225  -0.0567556   0.0385251  )
       125           H   tau( 125) = (   0.2748182  -0.1574069  -0.2050849  )
       126           H   tau( 126) = (   0.2962419  -0.1034203  -0.1508222  )
       127           H   tau( 127) = (   0.2072252   0.0313995  -0.0400546  )
       128           H   tau( 128) = (   0.2505443  -0.0339368  -0.0328562  )
       129           H   tau( 129) = (   0.0184908   0.2528185   0.2352215  )
       130           H   tau( 130) = (  -0.0180057   0.2010170   0.1967535  )
       131           H   tau( 131) = (  -0.2450948   0.0659194  -0.1510186  )
       132           H   tau( 132) = (  -0.2580074   0.0018061  -0.1927171  )
       133           H   tau( 133) = (  -0.0322887  -0.2232341  -0.0559588  )
       134           H   tau( 134) = (  -0.0062252  -0.1871926   0.0090265  )
       135           H   tau( 135) = (   0.2589985   0.2556936  -0.3663207  )
       136           H   tau( 136) = (   0.2803303   0.1798458  -0.3730196  )
       137           H   tau( 137) = (   0.1517994   0.3217198   0.2478831  )
       138           H   tau( 138) = (   0.1586348   0.3705386   0.3037660  )
       139           H   tau( 139) = (  -0.3239096   0.2676576  -0.1280053  )
       140           H   tau( 140) = (  -0.2433022   0.2512114  -0.1542641  )
       141           H   tau( 141) = (  -0.0474533   0.0531891  -0.1389498  )
       142           H   tau( 142) = (   0.0056443   0.0880872  -0.1007899  )
       143           H   tau( 143) = (  -0.1835223  -0.1883131  -0.0931676  )
       144           H   tau( 144) = (  -0.1827827  -0.2396513  -0.0384340  )
       145           H   tau( 145) = (  -0.1810512   0.2739889   0.1131487  )
       146           H   tau( 146) = (  -0.1733858   0.2913209   0.1876356  )
       147           H   tau( 147) = (  -0.1309956   0.2070831   0.1748377  )
       148           H   tau( 148) = (  -0.1791125   0.1522164   0.1968522  )
       149           H   tau( 149) = (  -0.0996426  -0.1053046  -0.0705329  )
       150           H   tau( 150) = (  -0.0890969  -0.0419386  -0.0232738  )
       151           H   tau( 151) = (  -0.0928622  -0.1100340   0.2323262  )
       152           H   tau( 152) = (  -0.0750516  -0.1031227   0.3054839  )
       153           H   tau( 153) = (   0.0367907   0.1333685   0.2616655  )
       154           H   tau( 154) = (  -0.0347660   0.1053537   0.2926312  )
       155           H   tau( 155) = (  -0.2571935   0.1293015   0.1089231  )
       156           H   tau( 156) = (  -0.1928475   0.1265618   0.0687336  )
       157           H   tau( 157) = (   0.2054868   0.2848158  -0.0794979  )
       158           H   tau( 158) = (   0.1937742   0.2365848  -0.1399545  )
       159           H   tau( 159) = (   0.0814857  -0.2651350  -0.2333716  )
       160           H   tau( 160) = (   0.0872963  -0.2509302  -0.1595822  )
       161           H   tau( 161) = (  -0.1559752   0.1864315  -0.1906805  )
       162           H   tau( 162) = (  -0.0972271   0.2181529  -0.1617334  )
       163           H   tau( 163) = (   0.2388040   0.0290148   0.3685288  )
       164           H   tau( 164) = (   0.2278910   0.0494756   0.2950339  )
       165           H   tau( 165) = (  -0.0677419   0.0055089   0.1294046  )
       166           H   tau( 166) = (  -0.0876737   0.0800354   0.1302523  )
       167           H   tau( 167) = (   0.0264399  -0.0828354  -0.1434611  )
       168           H   tau( 168) = (   0.0198835  -0.0508370  -0.2127730  )
       169           H   tau( 169) = (   0.0231914  -0.1387311  -0.2645408  )
       170           H   tau( 170) = (   0.0470079  -0.1782114  -0.3231827  )
       171           H   tau( 171) = (   0.3526598  -0.2884585   0.2413008  )
       172           H   tau( 172) = (   0.3482522  -0.2711018   0.1669298  )
       173           H   tau( 173) = (   0.2136973  -0.1813677   0.0468770  )
       174           H   tau( 174) = (   0.1677297  -0.1358224   0.0157398  )
       175           H   tau( 175) = (   0.2793947  -0.0362206   0.1112189  )
       176           H   tau( 176) = (   0.2599347  -0.0658506   0.1788346  )
       177           H   tau( 177) = (   0.0913740   0.1874801  -0.2567029  )
       178           H   tau( 178) = (   0.0833055   0.2297357  -0.1896095  )
       179           H   tau( 179) = (  -0.1076544  -0.3433118   0.0598545  )
       180           H   tau( 180) = (  -0.1177991  -0.3756032  -0.0045864  )
       181           H   tau( 181) = (  -0.2850395  -0.0929166  -0.3078510  )
       182           H   tau( 182) = (  -0.2343340  -0.1083105  -0.3666552  )
       183           H   tau( 183) = (  -0.1683096   0.0796096  -0.0371756  )
       184           H   tau( 184) = (  -0.2298167   0.1162705  -0.0066807  )
       185           H   tau( 185) = (   0.2872788   0.2027090  -0.2420406  )
       186           H   tau( 186) = (   0.2408124   0.1465600  -0.2145915  )
       187           H   tau( 187) = (   0.1238122  -0.0272201  -0.0867288  )
       188           H   tau( 188) = (   0.0486261  -0.0023848  -0.0719897  )
       189           H   tau( 189) = (  -0.2774148  -0.2020343   0.0872582  )
       190           H   tau( 190) = (  -0.2518975  -0.1370253   0.1211267  )
       191           H   tau( 191) = (   0.0591804   0.1586984   0.1393426  )
       192           H   tau( 192) = (   0.0557062   0.1455088   0.0623681  )

     number of k points=     1  Marzari-Vanderbilt smearing, width (Ry)=  0.0250
                       cart. coord. in units 2pi/alat
        k(    1) = (   0.0000000   0.0000000   0.0000000), wk =   2.0000000

     Dense  grid:   177509 G-vectors     FFT dimensions: (  72,  72,  72)

     Estimated max dynamical RAM per process >      67.80Mb

     Estimated total allocated dynamical RAM >    1898.40Mb

     Initial potential from superposition of free atoms
     Check: negative starting charge=   -0.737419

     starting charge  511.99856, renormalised to  512.00000

     negative rho (up, down):  7.374E-01 0.000E+00
     Starting wfc are  384 randomized atomic wfcs

     total cpu time spent up to now is        0.8 secs

     per-process dynamical memory:    45.9 Mb

     Self-consistent Calculation

     iteration #  1     ecut=    30.00 Ry     beta=0.70
     Davidson diagonalization with overlap
     ethr =  1.00E-02,  avg # of iterations =  8.0

     negative rho (up, down):  1.739E-01 0.000E+00

     total cpu time spent up to now is        9.2 secs

     total energy              =   -1797.94599735 Ry
     Harris-Foulkes estimate   =   -1825.21646999 Ry
     estimated scf accuracy    <      42.14192369 Ry

     iteration #  2     ecut=    30.00 Ry     beta=0.70
     Davidson diagonalization with overlap
     ethr =  8.23E-03,  avg # of iterations =  4.0

     negative rho (up, down):  1.452E-03 0.000E+00

     total cpu time spent up to now is       12.3 secs

     total energy              =   -1778.53745876 Ry
     Harris-Foulkes estimate   =   -1811.47395235 Ry
     estimated scf accuracy    <      73.06506391 Ry

     iteration #  3     ecut=    30.00 Ry     beta=0.70
     Davidson diagonalization with overlap
     ethr =  8.23E-03,  avg # of iterations =  5.0

     negative rho (up, down):  2.468E-05 0.000E+00

     total cpu time spent up to now is       16.2 secs

     total energy              =   -1797.53444269 Ry
     Harris-Foulkes estimate   =   -1813.57918277 Ry
     estimated scf accuracy    <      52.83699685 Ry

     iteration #  4     ecut=    30.00 Ry     beta=0.70
     Davidson diagonalization with overlap
     ethr =  8.23E-03,  avg # of iterations =  3.0

     total cpu time spent up to now is       18.0 secs

     total energy              =   -1805.54119360 Ry
     Harris-Foulkes estimate   =   -1807.76539387 Ry
     estimated scf accuracy    <       6.68958530 Ry

     iteration #  5     ecut=    30.00 Ry     beta=0.70
     Davidson diagonalization with overlap
     ethr =  1.31E-03,  avg # of iterations =  6.0

     total cpu time spent up to now is       20.9 secs

     total energy              =   -1805.34915753 Ry
     Harris-Foulkes estimate   =   -1805.94833555 Ry
     estimated scf accuracy    <       2.40956969 Ry

     iteration #  6     ecut=    30.00 Ry     beta=0.70
     Davidson diagonalization with overlap
     ethr =  4.71E-04,  avg # of iterations =  6.0

     total cpu time spent up to now is       23.6 secs

     total energy              =   -1805.19377219 Ry
     Harris-Foulkes estimate   =   -1805.43764076 Ry
     estimated scf accuracy    <       1.06995420 Ry

     iteration #  7     ecut=    30.00 Ry     beta=0.70
     Davidson diagonalization with overlap
     ethr =  2.09E-04,  avg # of iterations =  5.0

     total cpu time spent up to now is       26.0 secs

     total energy              =   -1805.15044610 Ry
     Harris-Foulkes estimate   =   -1805.26213841 Ry
     estimated scf accuracy    <       0.52569126 Ry

     iteration #  8     ecut=    30.00 Ry     beta=0.70
     Davidson diagonalization with overlap
     ethr =  1.03E-04,  avg # of iterations =  5.0

     total cpu time spent up to now is       28.3 secs

     total energy              =   -1805.12124841 Ry
     Harris-Foulkes estimate   =   -1805.17720278 Ry
     estimated scf accuracy    <       0.21553393 Ry

     iteration #  9     ecut=    30.00 Ry     beta=0.70
     Davidson diagonalization with overlap
     ethr =  4.21E-05,  avg # of iterations =  8.0

     total cpu time spent up to now is       31.9 secs

     total energy              =   -1805.10562968 Ry
     Harris-Foulkes estimate   =   -1805.15100128 Ry
     estimated scf accuracy    <       0.24348511 Ry

     iteration # 10     ecut=    30.00 Ry     beta=0.70
     Davidson diagonalization with overlap
     ethr =  4.21E-05,  avg # of iterations =  2.0

     total cpu time spent up to now is       33.3 secs

     total energy              =   -1805.12416290 Ry
     Harris-Foulkes estimate   =   -1805.14601005 Ry
     estimated scf accuracy    <       0.14192579 Ry

     iteration # 11     ecut=    30.00 Ry     beta=0.70
     Davidson diagonalization with overlap
     ethr =  2.77E-05,  avg # of iterations =  1.0

     total cpu time spent up to now is       34.4 secs

     total energy              =   -1805.13084113 Ry
     Harris-Foulkes estimate   =   -1805.13652915 Ry
     estimated scf accuracy    <       0.03641003 Ry

     iteration # 12     ecut=    30.00 Ry     beta=0.70
     Davidson diagonalization with overlap
     ethr =  7.11E-06,  avg # of iterations =  9.0

     total cpu time spent up to now is       38.1 secs

     total energy              =   -1805.13012155 Ry
     Harris-Foulkes estimate   =   -1805.13386421 Ry
     estimated scf accuracy    <       0.01973783 Ry

     iteration # 13     ecut=    30.00 Ry     beta=0.70
     Davidson diagonalization with overlap
     ethr =  3.86E-06,  avg # of iterations =  2.0

     total cpu time spent up to now is       39.5 secs

     total energy              =   -1805.13081618 Ry
     Harris-Foulkes estimate   =   -1805.13286540 Ry
     estimated scf accuracy    <       0.01050649 Ry

     iteration # 14     ecut=    30.00 Ry     beta=0.70
     Davidson diagonalization with overlap
     ethr =  2.05E-06,  avg # of iterations =  4.0

     total cpu time spent up to now is       41.5 secs

     total energy              =   -1805.13130639 Ry
     Harris-Foulkes estimate   =   -1805.13194634 Ry
     estimated scf accuracy    <       0.00417219 Ry

     iteration # 15     ecut=    30.00 Ry     beta=0.70
     Davidson diagonalization with overlap
     ethr =  8.15E-07,  avg # of iterations =  1.0

     total cpu time spent up to now is       42.6 secs

     total energy              =   -1805.13146527 Ry
     Harris-Foulkes estimate   =   -1805.13164700 Ry
     estimated scf accuracy    <       0.00097151 Ry

     iteration # 16     ecut=    30.00 Ry     beta=0.70
     Davidson diagonalization with overlap
     ethr =  1.90E-07,  avg # of iterations =  2.0

     total cpu time spent up to now is       44.0 secs

     total energy              =   -1805.13153076 Ry
     Harris-Foulkes estimate   =   -1805.13156147 Ry
     estimated scf accuracy    <       0.00015918 Ry

     iteration # 17     ecut=    30.00 Ry     beta=0.70
     Davidson diagonalization with overlap
     ethr =  3.11E-08,  avg # of iterations =  2.0

     total cpu time spent up to now is       45.5 secs

     total energy              =   -1805.13154443 Ry
     Harris-Foulkes estimate   =   -1805.13154807 Ry
     estimated scf accuracy    <       0.00001421 Ry

     iteration # 18     ecut=    30.00 Ry     beta=0.70
     Davidson diagonalization with overlap
     ethr =  2.77E-09,  avg # of iterations =  2.0

     total cpu time spent up to now is       47.0 secs

     total energy              =   -1805.13154529 Ry
     Harris-Foulkes estimate   =   -1805.13154834 Ry
     estimated scf accuracy    <       0.00001560 Ry

     iteration # 19     ecut=    30.00 Ry     beta=0.70
     Davidson diagonalization with overlap
     ethr =  2.77E-09,  avg # of iterations =  2.0

     total cpu time spent up to now is       48.5 secs

     total energy              =   -1805.13154689 Ry
     Harris-Foulkes estimate   =   -1805.13154761 Ry
     estimated scf accuracy    <       0.00000529 Ry

     iteration # 20     ecut=    30.00 Ry     beta=0.70
     Davidson diagonalization with overlap
     ethr =  1.03E-09,  avg # of iterations =  2.0

     total cpu time spent up to now is       49.9 secs

     total energy              =   -1805.13154730 Ry
     Harris-Foulkes estimate   =   -1805.13154751 Ry
     estimated scf accuracy    <       0.00000069 Ry

     iteration # 21     ecut=    30.00 Ry     beta=0.70
     Davidson diagonalization with overlap
     ethr =  1.34E-10,  avg # of iterations =  2.0

     total cpu time spent up to now is       51.4 secs

     total energy              =   -1805.13154744 Ry
     Harris-Foulkes estimate   =   -1805.13154743 Ry
     estimated scf accuracy    <       0.00000013 Ry

     iteration # 22     ecut=    30.00 Ry     beta=0.70
     Davidson diagonalization with overlap
     ethr =  2.50E-11,  avg # of iterations =  3.0

     total cpu time spent up to now is       53.1 secs

     End of self-consistent calculation

          k = 0.0000 0.0000 0.0000 ( 22119 PWs)   bands (ev):

   -41.4753 -39.9472 -39.1727 -38.5009 -38.2058 -36.7812 -36.6462 -36.2979
   -35.7581 -35.7091 -34.8363 -34.6784 -34.2608 -34.1300 -33.6099 -33.3899
   -33.2657 -33.0350 -32.5577 -32.3055 -32.0410 -31.7236 -31.4797 -31.1765
   -30.9612 -30.8254 -30.6125 -30.5084 -30.4787 -30.2881 -30.0061 -29.8782
   -29.6690 -29.5188 -29.3098 -29.2797 -28.9172 -28.6016 -28.4279 -28.3668
   -28.3293 -28.2809 -28.1789 -27.9586 -27.9228 -27.7602 -27.6713 -27.5265
   -27.0248 -26.9389 -26.6639 -26.6000 -26.5597 -26.1947 -26.0248 -25.9550
   -25.8853 -25.7119 -25.6643 -25.4122 -25.1382 -25.0433 -24.5340 -24.4523
   -22.1483 -21.4983 -20.8026 -20.5310 -20.4315 -20.2739 -19.9785 -19.7447
   -19.4461 -19.0659 -18.8542 -18.6332 -18.6095 -18.4793 -18.2933 -18.0312
   -17.6830 -17.2195 -16.9188 -16.8595 -16.5821 -16.5528 -16.3670 -16.2330
   -16.1999 -15.9895 -15.8854 -15.6548 -15.5608 -15.5012 -15.1180 -14.9385
   -14.8327 -14.6862 -14.5219 -14.4508 -14.3408 -14.1740 -14.0295 -13.9045
   -13.8831 -13.7825 -13.7123 -13.4866 -13.4611 -13.4172 -13.3287 -13.2315
   -13.2209 -12.9973 -12.8631 -12.7105 -12.4441 -12.2728 -12.1933 -12.1489
   -12.0916 -11.9333 -11.8093 -11.7068 -11.6014 -11.5062 -11.3925 -11.0562
   -10.9677 -10.5629  -9.9485  -9.5914  -9.1188  -9.0508  -8.6859  -8.4818
    -8.4485  -8.1852  -7.8954  -7.7726  -7.6191  -7.3501  -7.3151  -7.1896
    -7.1059  -6.9667  -6.8134  -6.7533  -6.5807  -6.3803  -6.2750  -6.2364
    -6.1731  -6.0585  -5.8468  -5.7307  -5.6028  -5.4283  -5.2476  -5.1407
    -5.0325  -4.9692  -4.9133  -4.8688  -4.8165  -4.7029  -4.4507  -4.3935
    -4.2320  -4.1953  -4.0886  -4.0456  -4.0018  -3.8161  -3.7965  -3.7035
    -3.6334  -3.5428  -3.4398  -3.3794  -3.3529  -3.3229  -3.1838  -3.0684
    -3.0191  -2.8310  -2.7987  -2.7319  -2.7096  -2.6607  -2.5290  -2.4007
    -2.2900  -2.2132  -2.1353  -2.0373  -1.8999  -1.7943  -1.7800  -1.7067
    -1.5629  -1.5243  -1.3719  -1.3347  -1.2662  -1.1431  -1.0744  -0.8666
    -0.7522  -0.6447  -0.5779  -0.5600  -0.4680  -0.3363  -0.2576  -0.2096
    -0.0020   0.1182   0.2799   0.3000   0.3397   0.4413   0.7052   0.7633
     0.8845   1.0143   1.2987   1.3712   1.4588   1.6777   1.7242   1.8341
     1.9145   2.0506   2.0920   2.2041   2.2232   2.4910   2.5212   2.7679
     2.9891   3.0773   3.3448   3.4831   3.5117   3.9178   4.0921   4.2641
     4.6548   4.7353   4.7690   4.9008   5.0946   5.2090   5.3002   5.4302
     5.5972   6.3277   6.4954   6.6226   6.8396   7.1620   7.2917   7.5259
     7.6373   7.6886   7.7999   7.8254   7.9789   8.4366   8.5634   8.6902
     8.7412   8.8542   8.9842   9.6323   9.7641   9.8239   9.9884  10.1308
    10.1821  10.3208  10.3804  10.5255  10.5869  10.6936  10.7962  10.9217
    10.9914  11.0792  11.2271  11.2776  11.3323  11.4378  11.4802  11.5839
    11.6798  11.8068  11.8546  11.9059  11.9706  12.0012  12.0659  12.1280
    12.1543  12.2208  12.3236

     the Fermi energy is     5.5360 ev

!    total energy              =   -1805.13154746 Ry
     Harris-Foulkes estimate   =   -1805.13154746 Ry
     estimated scf accuracy    <          6.1E-09 Ry

     The total energy is the sum of the following terms:

     one-electron contribution =  -13540.96122574 Ry
     hartree contribution      =    6944.49976771 Ry
     xc contribution           =    -634.16552033 Ry
     ewald contribution        =    5425.48535532 Ry
     smearing contrib. (-TS)   =       0.01007559 Ry

     convergence has been achieved in  22 iterations

     Writing output data file pwscf.save
 
     init_run     :      0.57s CPU      0.62s WALL (       1 calls)
     electrons    :     50.87s CPU     52.36s WALL (       1 calls)

     Called by init_run:
     wfcinit      :      0.47s CPU      0.52s WALL (       1 calls)
     potinit      :      0.02s CPU      0.02s WALL (       1 calls)

     Called by electrons:
     c_bands      :     48.73s CPU     49.96s WALL (      22 calls)
     sum_band     :      1.80s CPU      1.83s WALL (      22 calls)
     v_of_rho     :      0.17s CPU      0.19s WALL (      23 calls)
     mix_rho      :      0.13s CPU      0.24s WALL (      22 calls)

     Called by c_bands:
     init_us_2    :      0.06s CPU      0.06s WALL (      45 calls)
     cegterg      :     48.62s CPU     49.79s WALL (      22 calls)

     Called by sum_band:

     Called by *egterg:
     h_psi        :      8.26s CPU      8.43s WALL (     107 calls)
     g_psi        :      0.07s CPU      0.07s WALL (      84 calls)
     cdiaghg      :     31.08s CPU     31.11s WALL (     106 calls)

     Called by h_psi:
     h_psi:pot    :      8.06s CPU      8.22s WALL (     107 calls)
     h_psi:calbec :      0.30s CPU      0.31s WALL (     107 calls)
     vloc_psi     :      7.49s CPU      7.64s WALL (     107 calls)
     add_vuspsi   :      0.26s CPU      0.27s WALL (     107 calls)

     General routines
     calbec       :      0.30s CPU      0.31s WALL (     107 calls)
     fft          :      0.10s CPU      0.10s WALL (     252 calls)
     fftw         :      8.37s CPU      8.54s WALL (   37784 calls)
     davcio       :      0.02s CPU      0.12s WALL (     348 calls)
 
     Parallel routines
     fft_scatter  :      2.93s CPU      3.01s WALL (   38036 calls)
 
     PWSCF        :    51.62s CPU        53.39s WALL

 
   This run was terminated on:  20:27:28   2Feb2018            

=------------------------------------------------------------------------------=
   JOB DONE.
=------------------------------------------------------------------------------=
