
     Program PWSCF v.6.0 (svn rev. 13079) starts on  2Feb2018 at  6:25:41 

     This program is part of the open-source Quantum ESPRESSO suite
     for quantum simulation of materials; please cite
         "P. Giannozzi et al., J. Phys.:Condens. Matter 21 395502 (2009);
          URL http://www.quantum-espresso.org", 
     in publications or presentations arising from this work. More details at
     http://www.quantum-espresso.org/quote

     Parallel version (MPI), running on    28 processors
     R & G space division:  proc/nbgrp/npool/nimage =      28
     Reading input from input/scf-bigwater-1/96.in
Warning: card &IONS ignored
Warning: card     POT_EXTRAPOLATION='SECOND-ORDER' ignored
Warning: card     WFC_EXTRAPOLATION='SECOND-ORDER' ignored
Warning: card     ION_TEMPERATURE = 'ANDERSEN' ignored
Warning: card     TEMPW = 1000 ignored
Warning: card / ignored

     Current dimensions of program PWSCF are:
     Max number of different atomic species (ntypx) = 10
     Max number of k-points (npk) =  40000
     Max angular momentum in pseudopotentials (lmaxx) =  3

     Subspace diagonalization in iterative solution of the eigenvalue problem:
     a serial algorithm will be used

 
     Parallelization info
     --------------------
     sticks:   dense  smooth     PW     G-vecs:    dense   smooth      PW
     Min         136     136     33                 6338     6338     787
     Max         137     137     34                 6341     6341     792
     Sum        3809    3809    949               177509   177509   22119
 


     bravais-lattice index     =            1
     lattice parameter (alat)  =      20.0000  a.u.
     unit-cell volume          =    8000.0000 (a.u.)^3
     number of atoms/cell      =          192
     number of atomic types    =            2
     number of electrons       =       512.00
     number of Kohn-Sham states=          307
     kinetic-energy cutoff     =      30.0000  Ry
     charge density cutoff     =     120.0000  Ry
     convergence threshold     =      1.0E-08
     mixing beta               =       0.7000
     number of iterations used =            8  plain     mixing
     Exchange-correlation      = BLYP ( 1  3  1  3 0 0)

     celldm(1)=  20.000000  celldm(2)=   0.000000  celldm(3)=   0.000000
     celldm(4)=   0.000000  celldm(5)=   0.000000  celldm(6)=   0.000000

     crystal axes: (cart. coord. in units of alat)
               a(1) = (   1.000000   0.000000   0.000000 )  
               a(2) = (   0.000000   1.000000   0.000000 )  
               a(3) = (   0.000000   0.000000   1.000000 )  

     reciprocal axes: (cart. coord. in units 2 pi/alat)
               b(1) = (  1.000000  0.000000  0.000000 )  
               b(2) = (  0.000000  1.000000  0.000000 )  
               b(3) = (  0.000000  0.000000  1.000000 )  


     PseudoPot. # 1 for  H read from file:
     ./H.blyp-hgh.UPF
     MD5 check sum: c576e69559cde411e611be972c763230
     Pseudo is Norm-conserving, Zval =  1.0
     Generated in analytical, separable form
     Using radial grid of  929 points,  0 beta functions with: 

     PseudoPot. # 2 for  O read from file:
     ./O.blyp-hgh.UPF
     MD5 check sum: d0b7156309aa9befef28faac7bc56342
     Pseudo is Norm-conserving, Zval =  6.0
     Generated in analytical, separable form
     Using radial grid of 1095 points,  1 beta functions with: 
                l(1) =   0

     atomic species   valence    mass     pseudopotential
        H              1.00     1.01000      H( 1.00)
        O              6.00    16.00000      O( 1.00)

     No symmetry found



   Cartesian axes

     site n.     atom                  positions (alat units)
         1           O   tau(   1) = (  -0.2631353  -0.0776492  -0.0709194  )
         2           O   tau(   2) = (   0.1979526  -0.1081827   0.2695756  )
         3           O   tau(   3) = (  -0.2866215   0.2673336  -0.2754602  )
         4           O   tau(   4) = (  -0.0087344   0.1841009  -0.0774463  )
         5           O   tau(   5) = (  -0.2358301   0.0373694   0.1936548  )
         6           O   tau(   6) = (  -0.0117154   0.2721828   0.2602030  )
         7           O   tau(   7) = (  -0.0063402  -0.2691357  -0.1703626  )
         8           O   tau(   8) = (   0.1185809   0.0112263   0.1816919  )
         9           O   tau(   9) = (  -0.1426173  -0.2646051   0.2817896  )
        10           O   tau(  10) = (   0.0960895  -0.1467537   0.0893019  )
        11           O   tau(  11) = (   0.1264311  -0.3043690   0.1453259  )
        12           O   tau(  12) = (  -0.2070778  -0.1519016   0.2206748  )
        13           O   tau(  13) = (  -0.2218078  -0.2954065   0.0361272  )
        14           O   tau(  14) = (  -0.1792926  -0.2843511  -0.1847209  )
        15           O   tau(  15) = (   0.1113473  -0.1372886  -0.1111882  )
        16           O   tau(  16) = (  -0.0948940   0.1226279   0.0621180  )
        17           O   tau(  17) = (  -0.0579167  -0.0780178   0.0883698  )
        18           O   tau(  18) = (   0.0108761  -0.2115598   0.1855561  )
        19           O   tau(  19) = (   0.2714369  -0.2107547  -0.2481633  )
        20           O   tau(  20) = (   0.2746735   0.2436198   0.1094243  )
        21           O   tau(  21) = (   0.2976564  -0.1489126   0.1626063  )
        22           O   tau(  22) = (  -0.1619347  -0.1484130  -0.1918336  )
        23           O   tau(  23) = (  -0.0446706   0.1308741  -0.2470547  )
        24           O   tau(  24) = (   0.1947134   0.1176915   0.1430616  )
        25           O   tau(  25) = (   0.1163031   0.0656262  -0.1552784  )
        26           O   tau(  26) = (  -0.2444834   0.1389762  -0.3088411  )
        27           O   tau(  27) = (   0.2227973  -0.2981403  -0.0623564  )
        28           O   tau(  28) = (   0.0985508  -0.0651745  -0.2299151  )
        29           O   tau(  29) = (  -0.1013599   0.0102540  -0.2416164  )
        30           O   tau(  30) = (   0.0439613  -0.0163438   0.0356002  )
        31           O   tau(  31) = (   0.2386556  -0.0873229  -0.1866076  )
        32           O   tau(  32) = (   0.2587852   0.0038733  -0.0045387  )
        33           O   tau(  33) = (  -0.0112792   0.2276664   0.0934234  )
        34           O   tau(  34) = (  -0.2577357   0.0360249  -0.2002947  )
        35           O   tau(  35) = (   0.0362560  -0.1908999  -0.0183630  )
        36           O   tau(  36) = (   0.2294203   0.1802992  -0.2199460  )
        37           O   tau(  37) = (   0.1747409   0.2736681   0.2922318  )
        38           O   tau(  38) = (  -0.2581948   0.1879845  -0.0940968  )
        39           O   tau(  39) = (  -0.0186876   0.0516791  -0.0827772  )
        40           O   tau(  40) = (  -0.1525486  -0.1687479  -0.0543358  )
        41           O   tau(  41) = (  -0.1308194   0.2733275   0.1672819  )
        42           O   tau(  42) = (  -0.0753875   0.1402605   0.2014038  )
        43           O   tau(  43) = (  -0.1312793  -0.0128951  -0.0344308  )
        44           O   tau(  44) = (  -0.0763917  -0.1095392   0.2446292  )
        45           O   tau(  45) = (   0.0342988   0.0913546   0.2462140  )
        46           O   tau(  46) = (  -0.2384299   0.1679149   0.0710791  )
        47           O   tau(  47) = (   0.1420975   0.1964846  -0.0296451  )
        48           O   tau(  48) = (   0.1345398  -0.3002718  -0.1792069  )
        49           O   tau(  49) = (  -0.1304778   0.2278127  -0.1160094  )
        50           O   tau(  50) = (   0.2776054   0.0303931   0.2652763  )
        51           O   tau(  51) = (  -0.1532333   0.0112681   0.0989206  )
        52           O   tau(  52) = (  -0.0330773  -0.1200943  -0.1172625  )
        53           O   tau(  53) = (   0.0005195  -0.1639335  -0.2746563  )
        54           O   tau(  54) = (   0.2855480  -0.2984218   0.2186880  )
        55           O   tau(  55) = (   0.2534305  -0.1529451  -0.0112246  )
        56           O   tau(  56) = (   0.2335386  -0.0354470   0.1222162  )
        57           O   tau(  57) = (   0.0553843   0.2155285  -0.2161708  )
        58           O   tau(  58) = (  -0.0322103  -0.2899119   0.0231436  )
        59           O   tau(  59) = (  -0.2769967  -0.0702363  -0.2873795  )
        60           O   tau(  60) = (  -0.2318118   0.0689217  -0.0443312  )
        61           O   tau(  61) = (   0.2600620   0.0784879  -0.1314542  )
        62           O   tau(  62) = (   0.1391814  -0.0138758  -0.0515080  )
        63           O   tau(  63) = (  -0.2643516  -0.0618435   0.0633778  )
        64           O   tau(  64) = (   0.0774589   0.1321150   0.0730823  )
        65           H   tau(  65) = (  -0.2518730  -0.0716162  -0.0227595  )
        66           H   tau(  66) = (  -0.2228168  -0.0565710  -0.0899120  )
        67           H   tau(  67) = (   0.1793390  -0.1467332   0.2928384  )
        68           H   tau(  68) = (   0.1625154  -0.0883084   0.2424623  )
        69           H   tau(  69) = (  -0.3180711   0.2455103  -0.2446927  )
        70           H   tau(  70) = (  -0.2854449   0.2353225  -0.3125031  )
        71           H   tau(  71) = (   0.0172617   0.1553122  -0.0477235  )
        72           H   tau(  72) = (   0.0241266   0.2137297  -0.0979360  )
        73           H   tau(  73) = (  -0.2761418   0.0099265   0.1901868  )
        74           H   tau(  74) = (  -0.2454439   0.0671008   0.2319704  )
        75           H   tau(  75) = (   0.0096173   0.3157920   0.2553934  )
        76           H   tau(  76) = (  -0.0001842   0.2555285   0.3045537  )
        77           H   tau(  77) = (  -0.0219290  -0.2766754  -0.1248690  )
        78           H   tau(  78) = (  -0.0428769  -0.2877403  -0.1967140  )
        79           H   tau(  79) = (   0.1276501   0.0573807   0.1660956  )
        80           H   tau(  80) = (   0.0698889   0.0079875   0.1793736  )
        81           H   tau(  81) = (  -0.1739752  -0.2763549   0.3175616  )
        82           H   tau(  82) = (  -0.0989496  -0.2692142   0.3030448  )
        83           H   tau(  83) = (   0.1005400  -0.1008047   0.0709829  )
        84           H   tau(  84) = (   0.1412491  -0.1655514   0.0907528  )
        85           H   tau(  85) = (   0.1640081  -0.3182731   0.1173012  )
        86           H   tau(  86) = (   0.0871193  -0.3259384   0.1259582  )
        87           H   tau(  87) = (  -0.1683483  -0.1732907   0.2001114  )
        88           H   tau(  88) = (  -0.2223281  -0.1156157   0.1917308  )
        89           H   tau(  89) = (  -0.1842661  -0.3225752   0.0204496  )
        90           H   tau(  90) = (  -0.2164625  -0.2522367   0.0134892  )
        91           H   tau(  91) = (  -0.2236359  -0.2731400  -0.1680037  )
        92           H   tau(  92) = (  -0.1799079  -0.3328162  -0.1899271  )
        93           H   tau(  93) = (   0.1114209  -0.0886626  -0.1040720  )
        94           H   tau(  94) = (   0.1008746  -0.1530072  -0.0648627  )
        95           H   tau(  95) = (  -0.0605170   0.1527886   0.0432717  )
        96           H   tau(  96) = (  -0.0791187   0.0772647   0.0539748  )
        97           H   tau(  97) = (  -0.0147510  -0.0777236   0.0635008  )
        98           H   tau(  98) = (  -0.0425288  -0.0823886   0.1345746  )
        99           H   tau(  99) = (   0.0535343  -0.1886595   0.1747253  )
       100           H   tau( 100) = (  -0.0187056  -0.1905870   0.1529294  )
       101           H   tau( 101) = (   0.3050229  -0.2436946  -0.2619644  )
       102           H   tau( 102) = (   0.2909591  -0.1677919  -0.2331417  )
       103           H   tau( 103) = (   0.2897240   0.2727521   0.1474224  )
       104           H   tau( 104) = (   0.3141311   0.2523080   0.0809462  )
       105           H   tau( 105) = (   0.2704050  -0.1192422   0.1343631  )
       106           H   tau( 106) = (   0.3180286  -0.1841399   0.1359091  )
       107           H   tau( 107) = (  -0.1170426  -0.1385491  -0.2078221  )
       108           H   tau( 108) = (  -0.1911467  -0.1472209  -0.2308073  )
       109           H   tau( 109) = (  -0.0190179   0.1458461  -0.2085145  )
       110           H   tau( 110) = (  -0.0606640   0.0843972  -0.2381173  )
       111           H   tau( 111) = (   0.2385449   0.1290596   0.1607679  )
       112           H   tau( 112) = (   0.1732234   0.1603202   0.1335822  )
       113           H   tau( 113) = (   0.1431325   0.0521760  -0.1935034  )
       114           H   tau( 114) = (   0.0944603   0.1077641  -0.1673301  )
       115           H   tau( 115) = (  -0.2508052   0.1091986  -0.2696836  )
       116           H   tau( 116) = (  -0.1987350   0.1556501  -0.3055533  )
       117           H   tau( 117) = (   0.2067585  -0.2534527  -0.0734068  )
       118           H   tau( 118) = (   0.2699834  -0.2910060  -0.0529985  )
       119           H   tau( 119) = (   0.1384993  -0.0620773  -0.2580648  )
       120           H   tau( 120) = (   0.0615361  -0.0503581  -0.2578476  )
       121           H   tau( 121) = (  -0.1014545  -0.0256949  -0.2746928  )
       122           H   tau( 122) = (  -0.1435182   0.0339334  -0.2477593  )
       123           H   tau( 123) = (   0.0519679   0.0314651   0.0468095  )
       124           H   tau( 124) = (   0.0646361  -0.0206516  -0.0089783  )
       125           H   tau( 125) = (   0.1995732  -0.1098766  -0.1671885  )
       126           H   tau( 126) = (   0.2689991  -0.0831916  -0.1484348  )
       127           H   tau( 127) = (   0.2650585   0.0512795  -0.0165184  )
       128           H   tau( 128) = (   0.2983834  -0.0187675  -0.0273546  )
       129           H   tau( 129) = (  -0.0351604   0.1976199   0.1250928  )
       130           H   tau( 130) = (  -0.0329103   0.2707905   0.1037524  )
       131           H   tau( 131) = (  -0.2343767   0.0450432  -0.1581559  )
       132           H   tau( 132) = (  -0.3063144   0.0329292  -0.1888426  )
       133           H   tau( 133) = (   0.0261831  -0.2365456  -0.0323950  )
       134           H   tau( 134) = (   0.0539481  -0.1928014   0.0279373  )
       135           H   tau( 135) = (   0.1825524   0.1942565  -0.2209290  )
       136           H   tau( 136) = (   0.2318146   0.1407155  -0.2482612  )
       137           H   tau( 137) = (   0.1656624   0.2550146   0.2477784  )
       138           H   tau( 138) = (   0.1373725   0.3040148   0.2992562  )
       139           H   tau( 139) = (  -0.2862046   0.1951596  -0.0544450  )
       140           H   tau( 140) = (  -0.2355712   0.2315302  -0.0973137  )
       141           H   tau( 141) = (   0.0000134   0.0145974  -0.1081719  )
       142           H   tau( 142) = (  -0.0663238   0.0360774  -0.0758301  )
       143           H   tau( 143) = (  -0.1479923  -0.1549295  -0.1020990  )
       144           H   tau( 144) = (  -0.1277378  -0.2111314  -0.0574361  )
       145           H   tau( 145) = (  -0.1714244   0.2902029   0.1458687  )
       146           H   tau( 146) = (  -0.1338556   0.2942030   0.2123261  )
       147           H   tau( 147) = (  -0.0724279   0.0985311   0.1754447  )
       148           H   tau( 148) = (  -0.1110802   0.1615450   0.1754545  )
       149           H   tau( 149) = (  -0.1076154  -0.0545684  -0.0249858  )
       150           H   tau( 150) = (  -0.1510258   0.0009422   0.0090862  )
       151           H   tau( 151) = (  -0.1248661  -0.1123496   0.2525576  )
       152           H   tau( 152) = (  -0.0575653  -0.1520300   0.2598169  )
       153           H   tau( 153) = (   0.0753008   0.0782259   0.2689819  )
       154           H   tau( 154) = (   0.0092813   0.1222173   0.2745655  )
       155           H   tau( 155) = (  -0.2614830   0.1784312   0.1128850  )
       156           H   tau( 156) = (  -0.1940370   0.1498984   0.0814266  )
       157           H   tau( 157) = (   0.1688579   0.2329634  -0.0112473  )
       158           H   tau( 158) = (   0.1419414   0.2068950  -0.0772465  )
       159           H   tau( 159) = (   0.1806795  -0.2881556  -0.1906628  )
       160           H   tau( 160) = (   0.1097106  -0.2589513  -0.1888200  )
       161           H   tau( 161) = (  -0.1240279   0.1958282  -0.1524352  )
       162           H   tau( 162) = (  -0.0967638   0.2122775  -0.0837282  )
       163           H   tau( 163) = (   0.2986127  -0.0106706   0.2876229  )
       164           H   tau( 164) = (   0.2311791   0.0152514   0.2649520  )
       165           H   tau( 165) = (  -0.1316299  -0.0309832   0.1112059  )
       166           H   tau( 166) = (  -0.1900089   0.0219902   0.1308136  )
       167           H   tau( 167) = (   0.0021237  -0.1538357  -0.1218690  )
       168           H   tau( 168) = (  -0.0237117  -0.1014986  -0.0730726  )
       169           H   tau( 169) = (   0.0184675  -0.1641441  -0.2292984  )
       170           H   tau( 170) = (   0.0397800  -0.1500705  -0.3001966  )
       171           H   tau( 171) = (   0.2477690  -0.2860743   0.2474858  )
       172           H   tau( 172) = (   0.3249962  -0.2821985   0.2418381  )
       173           H   tau( 173) = (   0.2899742  -0.1700772   0.0164071  )
       174           H   tau( 174) = (   0.2360251  -0.1181342   0.0183323  )
       175           H   tau( 175) = (   0.2334558  -0.0103050   0.0789243  )
       176           H   tau( 176) = (   0.1978453  -0.0188111   0.1523656  )
       177           H   tau( 177) = (   0.0677747   0.1953316  -0.2591623  )
       178           H   tau( 178) = (   0.0807592   0.2593000  -0.2176480  )
       179           H   tau( 179) = (  -0.0512724  -0.3313145   0.0055464  )
       180           H   tau( 180) = (  -0.0666635  -0.2555419   0.0268964  )
       181           H   tau( 181) = (  -0.2676577  -0.0975955  -0.3268549  )
       182           H   tau( 182) = (  -0.2354689  -0.0490798  -0.2728844  )
       183           H   tau( 183) = (  -0.2032695   0.1080308  -0.0518343  )
       184           H   tau( 184) = (  -0.2394055   0.0693093   0.0037359  )
       185           H   tau( 185) = (   0.2914868   0.1160932  -0.1322719  )
       186           H   tau( 186) = (   0.2165749   0.0985299  -0.1215304  )
       187           H   tau( 187) = (   0.1863952  -0.0099007  -0.0344409  )
       188           H   tau( 188) = (   0.1344826   0.0171937  -0.0898162  )
       189           H   tau( 189) = (  -0.3063245  -0.0423960   0.0788423  )
       190           H   tau( 190) = (  -0.2427711  -0.0771800   0.1041383  )
       191           H   tau( 191) = (   0.0432087   0.1680600   0.0685600  )
       192           H   tau( 192) = (   0.1111554   0.1438905   0.0390042  )

     number of k points=     1  Marzari-Vanderbilt smearing, width (Ry)=  0.0250
                       cart. coord. in units 2pi/alat
        k(    1) = (   0.0000000   0.0000000   0.0000000), wk =   2.0000000

     Dense  grid:   177509 G-vectors     FFT dimensions: (  72,  72,  72)

     Estimated max dynamical RAM per process >      67.80Mb

     Estimated total allocated dynamical RAM >    1898.40Mb

     Initial potential from superposition of free atoms
     Check: negative starting charge=   -0.848905

     starting charge  511.99856, renormalised to  512.00000

     negative rho (up, down):  8.489E-01 0.000E+00
     Starting wfc are  384 randomized atomic wfcs

     total cpu time spent up to now is        0.8 secs

     per-process dynamical memory:    45.9 Mb

     Self-consistent Calculation

     iteration #  1     ecut=    30.00 Ry     beta=0.70
     Davidson diagonalization with overlap
     ethr =  1.00E-02,  avg # of iterations =  8.0

     negative rho (up, down):  2.068E-01 0.000E+00

     total cpu time spent up to now is        8.8 secs

     total energy              =   -1785.57933902 Ry
     Harris-Foulkes estimate   =   -1813.51106189 Ry
     estimated scf accuracy    <      42.51686000 Ry

     iteration #  2     ecut=    30.00 Ry     beta=0.70
     Davidson diagonalization with overlap
     ethr =  8.30E-03,  avg # of iterations =  4.0

     negative rho (up, down):  5.974E-04 0.000E+00

     total cpu time spent up to now is       12.1 secs

     total energy              =   -1752.86627301 Ry
     Harris-Foulkes estimate   =   -1804.85540237 Ry
     estimated scf accuracy    <     154.48163454 Ry

     iteration #  3     ecut=    30.00 Ry     beta=0.70
     Davidson diagonalization with overlap
     ethr =  8.30E-03,  avg # of iterations =  5.0

     total cpu time spent up to now is       16.4 secs

     total energy              =   -1788.52492662 Ry
     Harris-Foulkes estimate   =   -1802.07561163 Ry
     estimated scf accuracy    <      47.24110265 Ry

     iteration #  4     ecut=    30.00 Ry     beta=0.70
     Davidson diagonalization with overlap
     ethr =  8.30E-03,  avg # of iterations =  3.0

     total cpu time spent up to now is       18.2 secs

     total energy              =   -1794.16001547 Ry
     Harris-Foulkes estimate   =   -1796.67202311 Ry
     estimated scf accuracy    <       8.78430078 Ry

     iteration #  5     ecut=    30.00 Ry     beta=0.70
     Davidson diagonalization with overlap
     ethr =  1.72E-03,  avg # of iterations =  5.0

     total cpu time spent up to now is       20.7 secs

     total energy              =   -1793.84010948 Ry
     Harris-Foulkes estimate   =   -1794.62241950 Ry
     estimated scf accuracy    <       4.05263826 Ry

     iteration #  6     ecut=    30.00 Ry     beta=0.70
     Davidson diagonalization with overlap
     ethr =  7.92E-04,  avg # of iterations =  4.0

     total cpu time spent up to now is       22.7 secs

     total energy              =   -1793.53910217 Ry
     Harris-Foulkes estimate   =   -1793.93292869 Ry
     estimated scf accuracy    <       2.30963864 Ry

     iteration #  7     ecut=    30.00 Ry     beta=0.70
     Davidson diagonalization with overlap
     ethr =  4.51E-04,  avg # of iterations =  4.0

     total cpu time spent up to now is       24.8 secs

     total energy              =   -1793.38279701 Ry
     Harris-Foulkes estimate   =   -1793.61653473 Ry
     estimated scf accuracy    <       1.05651625 Ry

     iteration #  8     ecut=    30.00 Ry     beta=0.70
     Davidson diagonalization with overlap
     ethr =  2.06E-04,  avg # of iterations =  7.0

     total cpu time spent up to now is       27.8 secs

     total energy              =   -1793.37166518 Ry
     Harris-Foulkes estimate   =   -1793.42691670 Ry
     estimated scf accuracy    <       0.28119633 Ry

     iteration #  9     ecut=    30.00 Ry     beta=0.70
     Davidson diagonalization with overlap
     ethr =  5.49E-05,  avg # of iterations =  6.0

     total cpu time spent up to now is       30.6 secs

     total energy              =   -1793.37185543 Ry
     Harris-Foulkes estimate   =   -1793.40269176 Ry
     estimated scf accuracy    <       0.17836696 Ry

     iteration # 10     ecut=    30.00 Ry     beta=0.70
     Davidson diagonalization with overlap
     ethr =  3.48E-05,  avg # of iterations =  2.0

     total cpu time spent up to now is       32.0 secs

     total energy              =   -1793.37325373 Ry
     Harris-Foulkes estimate   =   -1793.38742560 Ry
     estimated scf accuracy    <       0.06756295 Ry

     iteration # 11     ecut=    30.00 Ry     beta=0.70
     Davidson diagonalization with overlap
     ethr =  1.32E-05,  avg # of iterations =  5.0

     total cpu time spent up to now is       34.5 secs

     total energy              =   -1793.37688610 Ry
     Harris-Foulkes estimate   =   -1793.38300734 Ry
     estimated scf accuracy    <       0.02513504 Ry

     iteration # 12     ecut=    30.00 Ry     beta=0.70
     Davidson diagonalization with overlap
     ethr =  4.91E-06,  avg # of iterations =  4.0

     total cpu time spent up to now is       36.7 secs

     total energy              =   -1793.37837398 Ry
     Harris-Foulkes estimate   =   -1793.38162295 Ry
     estimated scf accuracy    <       0.01089445 Ry

     iteration # 13     ecut=    30.00 Ry     beta=0.70
     Davidson diagonalization with overlap
     ethr =  2.13E-06,  avg # of iterations =  3.0

     total cpu time spent up to now is       38.6 secs

     total energy              =   -1793.37993112 Ry
     Harris-Foulkes estimate   =   -1793.38072639 Ry
     estimated scf accuracy    <       0.00336355 Ry

     iteration # 14     ecut=    30.00 Ry     beta=0.70
     Davidson diagonalization with overlap
     ethr =  6.57E-07,  avg # of iterations =  2.0

     total cpu time spent up to now is       40.0 secs

     total energy              =   -1793.38032627 Ry
     Harris-Foulkes estimate   =   -1793.38053587 Ry
     estimated scf accuracy    <       0.00107140 Ry

     iteration # 15     ecut=    30.00 Ry     beta=0.70
     Davidson diagonalization with overlap
     ethr =  2.09E-07,  avg # of iterations =  2.0

     total cpu time spent up to now is       41.4 secs

     total energy              =   -1793.38041472 Ry
     Harris-Foulkes estimate   =   -1793.38048005 Ry
     estimated scf accuracy    <       0.00026847 Ry

     iteration # 16     ecut=    30.00 Ry     beta=0.70
     Davidson diagonalization with overlap
     ethr =  5.24E-08,  avg # of iterations =  2.0

     total cpu time spent up to now is       42.9 secs

     total energy              =   -1793.38043740 Ry
     Harris-Foulkes estimate   =   -1793.38047703 Ry
     estimated scf accuracy    <       0.00020250 Ry

     iteration # 17     ecut=    30.00 Ry     beta=0.70
     Davidson diagonalization with overlap
     ethr =  3.96E-08,  avg # of iterations =  2.0

     total cpu time spent up to now is       44.3 secs

     total energy              =   -1793.38046186 Ry
     Harris-Foulkes estimate   =   -1793.38046655 Ry
     estimated scf accuracy    <       0.00002785 Ry

     iteration # 18     ecut=    30.00 Ry     beta=0.70
     Davidson diagonalization with overlap
     ethr =  5.44E-09,  avg # of iterations =  2.0

     total cpu time spent up to now is       45.8 secs

     total energy              =   -1793.38046653 Ry
     Harris-Foulkes estimate   =   -1793.38046616 Ry
     estimated scf accuracy    <       0.00000296 Ry

     iteration # 19     ecut=    30.00 Ry     beta=0.70
     Davidson diagonalization with overlap
     ethr =  5.79E-10,  avg # of iterations =  3.0

     total cpu time spent up to now is       47.7 secs

     total energy              =   -1793.38046740 Ry
     Harris-Foulkes estimate   =   -1793.38046746 Ry
     estimated scf accuracy    <       0.00000090 Ry

     iteration # 20     ecut=    30.00 Ry     beta=0.70
     Davidson diagonalization with overlap
     ethr =  1.75E-10,  avg # of iterations =  2.0

     total cpu time spent up to now is       49.2 secs

     total energy              =   -1793.38046764 Ry
     Harris-Foulkes estimate   =   -1793.38046760 Ry
     estimated scf accuracy    <       0.00000044 Ry

     iteration # 21     ecut=    30.00 Ry     beta=0.70
     Davidson diagonalization with overlap
     ethr =  8.66E-11,  avg # of iterations =  3.0

     total cpu time spent up to now is       51.0 secs

     total energy              =   -1793.38046770 Ry
     Harris-Foulkes estimate   =   -1793.38046779 Ry
     estimated scf accuracy    <       0.00000054 Ry

     iteration # 22     ecut=    30.00 Ry     beta=0.70
     Davidson diagonalization with overlap
     ethr =  8.66E-11,  avg # of iterations =  2.0

     total cpu time spent up to now is       52.4 secs

     total energy              =   -1793.38046776 Ry
     Harris-Foulkes estimate   =   -1793.38046777 Ry
     estimated scf accuracy    <       0.00000012 Ry

     iteration # 23     ecut=    30.00 Ry     beta=0.70
     Davidson diagonalization with overlap
     ethr =  2.35E-11,  avg # of iterations =  2.0

     total cpu time spent up to now is       53.8 secs

     total energy              =   -1793.38046778 Ry
     Harris-Foulkes estimate   =   -1793.38046778 Ry
     estimated scf accuracy    <       0.00000004 Ry

     iteration # 24     ecut=    30.00 Ry     beta=0.70
     Davidson diagonalization with overlap
     ethr =  7.35E-12,  avg # of iterations =  2.0

     total cpu time spent up to now is       55.3 secs

     total energy              =   -1793.38046780 Ry
     Harris-Foulkes estimate   =   -1793.38046779 Ry
     estimated scf accuracy    <       0.00000004 Ry

     iteration # 25     ecut=    30.00 Ry     beta=0.70
     Davidson diagonalization with overlap
     ethr =  6.89E-12,  avg # of iterations =  2.0

     total cpu time spent up to now is       56.8 secs

     End of self-consistent calculation

          k = 0.0000 0.0000 0.0000 ( 22119 PWs)   bands (ev):

   -43.6898 -42.6025 -40.9814 -40.3134 -39.1955 -38.4953 -38.0340 -37.3056
   -37.1750 -36.7675 -36.0344 -35.7539 -35.5816 -35.3986 -34.9212 -34.6860
   -34.1913 -33.8446 -33.8112 -33.0502 -32.8123 -32.6730 -32.4817 -32.3970
   -32.0521 -31.8008 -31.5034 -31.1553 -31.0518 -30.9729 -30.8670 -30.5371
   -30.3748 -30.0755 -29.9410 -29.7795 -29.6239 -29.5177 -29.3155 -29.0604
   -29.0305 -28.8716 -28.6783 -28.6402 -28.2216 -28.0956 -28.0492 -27.8555
   -27.7662 -27.6512 -27.5074 -27.4065 -27.3393 -27.1889 -26.8922 -26.8354
   -26.7751 -26.6943 -26.4569 -26.2210 -26.0124 -25.9345 -25.8192 -25.2174
   -24.6202 -24.0936 -23.4158 -22.4927 -22.1769 -21.8921 -21.6245 -21.3792
   -21.1109 -20.7943 -20.4206 -20.1239 -19.8881 -19.5151 -19.3819 -19.1526
   -19.1008 -18.8859 -18.5485 -18.2420 -18.1699 -18.0680 -17.8298 -17.5994
   -17.4194 -17.2637 -17.0277 -17.0080 -16.8173 -16.5464 -16.3900 -16.3025
   -16.1996 -15.9092 -15.8626 -15.6354 -15.4354 -15.3256 -15.2146 -15.1448
   -15.0249 -14.8268 -14.7699 -14.7249 -14.5381 -14.4161 -14.1454 -14.1036
   -14.0097 -13.8136 -13.6543 -13.5283 -13.3802 -13.2787 -13.1947 -12.9597
   -12.6644 -12.4416 -12.1001 -11.9509 -11.8254 -11.7831 -11.6849 -11.5804
   -11.4117 -11.2311 -11.0436 -10.9596 -10.3589 -10.1606  -9.9197  -9.4665
    -9.2839  -9.1399  -9.0128  -8.8656  -8.5340  -8.4481  -8.2999  -8.1628
    -8.0518  -8.0168  -7.6797  -7.5591  -7.3266  -7.1993  -7.0869  -6.9679
    -6.7127  -6.5511  -6.3798  -6.3425  -6.1962  -6.0758  -5.8967  -5.8011
    -5.7917  -5.6194  -5.5500  -5.4682  -5.3703  -5.2129  -5.1638  -5.0226
    -4.9286  -4.8420  -4.7996  -4.6817  -4.6052  -4.5538  -4.3499  -4.2325
    -4.2262  -4.0726  -4.0381  -3.9182  -3.8536  -3.6808  -3.5336  -3.4988
    -3.4480  -3.1690  -3.1304  -2.9589  -2.9340  -2.7929  -2.6386  -2.5787
    -2.4466  -2.4053  -2.3512  -2.2121  -2.1677  -2.0916  -1.9572  -1.8099
    -1.7092  -1.6059  -1.5571  -1.4190  -1.3023  -1.2166  -1.1048  -1.0063
    -0.9207  -0.8997  -0.7803  -0.6092  -0.5695  -0.3540  -0.3271  -0.1344
    -0.0655  -0.0075   0.0873   0.1881   0.3344   0.6077   0.7666   0.8802
     0.9595   1.0858   1.1555   1.2400   1.4170   1.5848   1.8254   1.8947
     2.2137   2.2707   2.3296   2.4592   2.5977   2.7872   2.8698   2.9650
     3.0351   3.1650   3.3362   3.4024   3.6579   3.6767   4.0592   4.1750
     4.3698   4.4231   4.7452   4.9567   5.1617   5.3286   5.4713   5.5169
     5.7532   6.2801   6.4000   6.5952   6.7056   7.1671   7.3105   7.3911
     7.4146   7.5133   7.6897   7.7540   8.1306   8.3700   8.5398   8.7491
     8.8291   8.9198   9.1564   9.4787   9.5699   9.6685   9.8169   9.8669
     9.9572   9.9952  10.3599  10.4619  10.5229  10.5978  10.6830  10.7762
    10.8324  10.9058  11.0380  11.2084  11.3275  11.4357  11.5104  11.5911
    11.6447  11.6818  11.7551  11.8026  11.9463  12.0071  12.1424  12.2167
    12.2570  12.3269  12.3919

     the Fermi energy is     5.6775 ev

!    total energy              =   -1793.38046780 Ry
     Harris-Foulkes estimate   =   -1793.38046781 Ry
     estimated scf accuracy    <          3.7E-09 Ry

     The total energy is the sum of the following terms:

     one-electron contribution =  -16165.44904173 Ry
     hartree contribution      =    8246.75801714 Ry
     xc contribution           =    -639.25737201 Ry
     ewald contribution        =    6764.56367534 Ry
     smearing contrib. (-TS)   =       0.00425345 Ry

     convergence has been achieved in  25 iterations

     Writing output data file pwscf.save
 
     init_run     :      0.57s CPU      0.63s WALL (       1 calls)
     electrons    :     54.34s CPU     56.06s WALL (       1 calls)

     Called by init_run:
     wfcinit      :      0.47s CPU      0.52s WALL (       1 calls)
     potinit      :      0.02s CPU      0.02s WALL (       1 calls)

     Called by electrons:
     c_bands      :     51.85s CPU     53.24s WALL (      25 calls)
     sum_band     :      2.09s CPU      2.15s WALL (      25 calls)
     v_of_rho     :      0.20s CPU      0.22s WALL (      26 calls)
     mix_rho      :      0.14s CPU      0.30s WALL (      25 calls)

     Called by c_bands:
     init_us_2    :      0.07s CPU      0.07s WALL (      51 calls)
     cegterg      :     51.72s CPU     53.03s WALL (      25 calls)

     Called by sum_band:

     Called by *egterg:
     h_psi        :      9.52s CPU      9.70s WALL (     112 calls)
     g_psi        :      0.08s CPU      0.08s WALL (      86 calls)
     cdiaghg      :     31.75s CPU     31.78s WALL (     111 calls)

     Called by h_psi:
     h_psi:pot    :      9.28s CPU      9.46s WALL (     112 calls)
     h_psi:calbec :      0.34s CPU      0.35s WALL (     112 calls)
     vloc_psi     :      8.64s CPU      8.80s WALL (     112 calls)
     add_vuspsi   :      0.30s CPU      0.31s WALL (     112 calls)

     General routines
     calbec       :      0.34s CPU      0.35s WALL (     112 calls)
     fft          :      0.12s CPU      0.12s WALL (     285 calls)
     fftw         :      9.61s CPU      9.81s WALL (   42781 calls)
     davcio       :      0.03s CPU      0.18s WALL (     408 calls)
 
     Parallel routines
     fft_scatter  :      3.41s CPU      3.50s WALL (   43066 calls)
 
     PWSCF        :    55.08s CPU        57.05s WALL

 
   This run was terminated on:   6:26:38   2Feb2018            

=------------------------------------------------------------------------------=
   JOB DONE.
=------------------------------------------------------------------------------=
