
     Program PWSCF v.6.0 (svn rev. 13079) starts on  2Feb2018 at 21: 8:45 

     This program is part of the open-source Quantum ESPRESSO suite
     for quantum simulation of materials; please cite
         "P. Giannozzi et al., J. Phys.:Condens. Matter 21 395502 (2009);
          URL http://www.quantum-espresso.org", 
     in publications or presentations arising from this work. More details at
     http://www.quantum-espresso.org/quote

     Parallel version (MPI), running on    28 processors
     R & G space division:  proc/nbgrp/npool/nimage =      28
     Reading input from input/scf-bigwater-1/996.in
Warning: card &IONS ignored
Warning: card     POT_EXTRAPOLATION='SECOND-ORDER' ignored
Warning: card     WFC_EXTRAPOLATION='SECOND-ORDER' ignored
Warning: card     ION_TEMPERATURE = 'ANDERSEN' ignored
Warning: card     TEMPW = 1000 ignored
Warning: card / ignored

     Current dimensions of program PWSCF are:
     Max number of different atomic species (ntypx) = 10
     Max number of k-points (npk) =  40000
     Max angular momentum in pseudopotentials (lmaxx) =  3

     Subspace diagonalization in iterative solution of the eigenvalue problem:
     a serial algorithm will be used

 
     Parallelization info
     --------------------
     sticks:   dense  smooth     PW     G-vecs:    dense   smooth      PW
     Min         136     136     33                 6338     6338     787
     Max         137     137     34                 6341     6341     792
     Sum        3809    3809    949               177509   177509   22119
 


     bravais-lattice index     =            1
     lattice parameter (alat)  =      20.0000  a.u.
     unit-cell volume          =    8000.0000 (a.u.)^3
     number of atoms/cell      =          192
     number of atomic types    =            2
     number of electrons       =       512.00
     number of Kohn-Sham states=          307
     kinetic-energy cutoff     =      30.0000  Ry
     charge density cutoff     =     120.0000  Ry
     convergence threshold     =      1.0E-08
     mixing beta               =       0.7000
     number of iterations used =            8  plain     mixing
     Exchange-correlation      = BLYP ( 1  3  1  3 0 0)

     celldm(1)=  20.000000  celldm(2)=   0.000000  celldm(3)=   0.000000
     celldm(4)=   0.000000  celldm(5)=   0.000000  celldm(6)=   0.000000

     crystal axes: (cart. coord. in units of alat)
               a(1) = (   1.000000   0.000000   0.000000 )  
               a(2) = (   0.000000   1.000000   0.000000 )  
               a(3) = (   0.000000   0.000000   1.000000 )  

     reciprocal axes: (cart. coord. in units 2 pi/alat)
               b(1) = (  1.000000  0.000000  0.000000 )  
               b(2) = (  0.000000  1.000000  0.000000 )  
               b(3) = (  0.000000  0.000000  1.000000 )  


     PseudoPot. # 1 for  H read from file:
     ./H.blyp-hgh.UPF
     MD5 check sum: c576e69559cde411e611be972c763230
     Pseudo is Norm-conserving, Zval =  1.0
     Generated in analytical, separable form
     Using radial grid of  929 points,  0 beta functions with: 

     PseudoPot. # 2 for  O read from file:
     ./O.blyp-hgh.UPF
     MD5 check sum: d0b7156309aa9befef28faac7bc56342
     Pseudo is Norm-conserving, Zval =  6.0
     Generated in analytical, separable form
     Using radial grid of 1095 points,  1 beta functions with: 
                l(1) =   0

     atomic species   valence    mass     pseudopotential
        H              1.00     1.01000      H( 1.00)
        O              6.00    16.00000      O( 1.00)

     No symmetry found



   Cartesian axes

     site n.     atom                  positions (alat units)
         1           O   tau(   1) = (  -0.2696887  -0.0767055  -0.0382674  )
         2           O   tau(   2) = (   0.1397069  -0.1325415   0.3066829  )
         3           O   tau(   3) = (  -0.2801664   0.3271314  -0.2712331  )
         4           O   tau(   4) = (   0.0681006   0.1457357  -0.0517102  )
         5           O   tau(   5) = (  -0.2507108   0.0566739   0.1915589  )
         6           O   tau(   6) = (   0.0037597   0.3029634   0.2943835  )
         7           O   tau(   7) = (  -0.0673180  -0.2828205  -0.1273961  )
         8           O   tau(   8) = (   0.1566831   0.0630359   0.2332810  )
         9           O   tau(   9) = (  -0.1465154  -0.3302428   0.2780644  )
        10           O   tau(  10) = (   0.1022526  -0.1250266   0.1868495  )
        11           O   tau(  11) = (   0.1292765  -0.3312265   0.1193355  )
        12           O   tau(  12) = (  -0.1680448  -0.1808242   0.2245256  )
        13           O   tau(  13) = (  -0.2345494  -0.3540107   0.0150998  )
        14           O   tau(  14) = (  -0.1923412  -0.2244941  -0.1881702  )
        15           O   tau(  15) = (   0.1220827  -0.1916298  -0.0933925  )
        16           O   tau(  16) = (  -0.0910545   0.1569303  -0.0576648  )
        17           O   tau(  17) = (  -0.0664099  -0.1461315   0.0889522  )
        18           O   tau(  18) = (   0.0208933  -0.2423119   0.1760809  )
        19           O   tau(  19) = (   0.2218853  -0.2186055  -0.2373303  )
        20           O   tau(  20) = (   0.2426451   0.2336266   0.1108960  )
        21           O   tau(  21) = (   0.2643184  -0.1967156   0.1869998  )
        22           O   tau(  22) = (  -0.1201638  -0.1081649  -0.1563464  )
        23           O   tau(  23) = (  -0.0586778   0.1641847  -0.2239696  )
        24           O   tau(  24) = (   0.2191063   0.0854183   0.0876897  )
        25           O   tau(  25) = (   0.1441106   0.0678741  -0.1739446  )
        26           O   tau(  26) = (  -0.2272203   0.1642338  -0.2709575  )
        27           O   tau(  27) = (   0.2481184  -0.2845526  -0.0005925  )
        28           O   tau(  28) = (   0.0405259  -0.0258616  -0.2954645  )
        29           O   tau(  29) = (  -0.1174079   0.0290714  -0.2586178  )
        30           O   tau(  30) = (   0.0383304  -0.0398154   0.0843862  )
        31           O   tau(  31) = (   0.2871551  -0.1092310  -0.1974354  )
        32           O   tau(  32) = (   0.2182056  -0.0100934  -0.0665436  )
        33           O   tau(  33) = (   0.0230324   0.2234227   0.1973519  )
        34           O   tau(  34) = (  -0.2235306   0.0222040  -0.1687027  )
        35           O   tau(  35) = (  -0.0001097  -0.1929282  -0.0398740  )
        36           O   tau(  36) = (   0.2617634   0.2114405  -0.3530036  )
        37           O   tau(  37) = (   0.1865762   0.3300235   0.2855854  )
        38           O   tau(  38) = (  -0.2772727   0.2790473  -0.1183421  )
        39           O   tau(  39) = (  -0.0002962   0.0534604  -0.1350047  )
        40           O   tau(  40) = (  -0.2078879  -0.2005644  -0.0511567  )
        41           O   tau(  41) = (  -0.1461709   0.2830708   0.1407470  )
        42           O   tau(  42) = (  -0.1374405   0.1625578   0.1989384  )
        43           O   tau(  43) = (  -0.0912798  -0.0860179  -0.0244226  )
        44           O   tau(  44) = (  -0.0752084  -0.0768647   0.2633488  )
        45           O   tau(  45) = (   0.0148342   0.1098575   0.2896149  )
        46           O   tau(  46) = (  -0.2295082   0.1547767   0.0737513  )
        47           O   tau(  47) = (   0.1841366   0.2462773  -0.0935786  )
        48           O   tau(  48) = (   0.0735973  -0.2864363  -0.1877717  )
        49           O   tau(  49) = (  -0.1417181   0.2266527  -0.1620889  )
        50           O   tau(  50) = (   0.2664549   0.0530383   0.3317515  )
        51           O   tau(  51) = (  -0.0744732   0.0415525   0.0983236  )
        52           O   tau(  52) = (   0.0024411  -0.0884685  -0.1840119  )
        53           O   tau(  53) = (   0.0129806  -0.1802093  -0.2849228  )
        54           O   tau(  54) = (   0.3542081  -0.3143953   0.1982426  )
        55           O   tau(  55) = (   0.1888553  -0.1422030   0.0599032  )
        56           O   tau(  56) = (   0.3009259  -0.0636263   0.1498242  )
        57           O   tau(  57) = (   0.0754034   0.1876872  -0.2096659  )
        58           O   tau(  58) = (  -0.0834939  -0.3684555   0.0329024  )
        59           O   tau(  59) = (  -0.2414462  -0.0743477  -0.3364860  )
        60           O   tau(  60) = (  -0.2181187   0.0766414  -0.0336030  )
        61           O   tau(  61) = (   0.2643123   0.1859838  -0.2076217  )
        62           O   tau(  62) = (   0.0756091  -0.0475443  -0.0714163  )
        63           O   tau(  63) = (  -0.2420390  -0.1873334   0.1154752  )
        64           O   tau(  64) = (   0.0855645   0.1532431   0.1021813  )
        65           H   tau(  65) = (  -0.2569200  -0.1247178  -0.0408592  )
        66           H   tau(  66) = (  -0.2376507  -0.0607254  -0.0709701  )
        67           H   tau(  67) = (   0.1205389  -0.1011226   0.3393626  )
        68           H   tau(  68) = (   0.1243882  -0.1116548   0.2641760  )
        69           H   tau(  69) = (  -0.2773917   0.2863530  -0.2448707  )
        70           H   tau(  70) = (  -0.2460630   0.3576970  -0.2509861  )
        71           H   tau(  71) = (   0.1139476   0.1374198  -0.0678500  )
        72           H   tau(  72) = (   0.0634407   0.1942767  -0.0520912  )
        73           H   tau(  73) = (  -0.2813634   0.0221175   0.2076878  )
        74           H   tau(  74) = (  -0.2141453   0.0457792   0.2227049  )
        75           H   tau(  75) = (   0.0135319   0.3485318   0.2792217  )
        76           H   tau(  76) = (   0.0005649   0.3001748   0.3431489  )
        77           H   tau(  77) = (  -0.0365478  -0.3038114  -0.0950409  )
        78           H   tau(  78) = (  -0.0396622  -0.2802951  -0.1678012  )
        79           H   tau(  79) = (   0.1797438   0.0937460   0.2038561  )
        80           H   tau(  80) = (   0.1251225   0.0388412   0.2047008  )
        81           H   tau(  81) = (  -0.1404834  -0.3712379   0.3029950  )
        82           H   tau(  82) = (  -0.1030806  -0.3196280   0.2573221  )
        83           H   tau(  83) = (   0.0828333  -0.0944682   0.1528729  )
        84           H   tau(  84) = (   0.1310118  -0.1469656   0.1540990  )
        85           H   tau(  85) = (   0.0847904  -0.3235420   0.1375855  )
        86           H   tau(  86) = (   0.1502063  -0.2886442   0.1080094  )
        87           H   tau(  87) = (  -0.1775385  -0.2286170   0.2335917  )
        88           H   tau(  88) = (  -0.1653479  -0.1889023   0.1766015  )
        89           H   tau(  89) = (  -0.2354572  -0.3877964   0.0502478  )
        90           H   tau(  90) = (  -0.2610369  -0.3698025  -0.0230863  )
        91           H   tau(  91) = (  -0.1563448  -0.1932665  -0.2004544  )
        92           H   tau(  92) = (  -0.1709221  -0.2599732  -0.1611978  )
        93           H   tau(  93) = (   0.1552538  -0.1728482  -0.1239608  )
        94           H   tau(  94) = (   0.0847287  -0.1625164  -0.0827500  )
        95           H   tau(  95) = (  -0.1287815   0.1796927  -0.0797854  )
        96           H   tau(  96) = (  -0.0847833   0.1614514  -0.0099536  )
        97           H   tau(  97) = (  -0.0878552  -0.1290366   0.0482880  )
        98           H   tau(  98) = (  -0.0347536  -0.1076744   0.0953218  )
        99           H   tau(  99) = (   0.0267757  -0.1934356   0.1795683  )
       100           H   tau( 100) = (  -0.0160696  -0.2470694   0.1437345  )
       101           H   tau( 101) = (   0.2654892  -0.2360892  -0.2548087  )
       102           H   tau( 102) = (   0.2011206  -0.1818671  -0.2631279  )
       103           H   tau( 103) = (   0.1948470   0.2485520   0.1134386  )
       104           H   tau( 104) = (   0.2607296   0.2530907   0.1511259  )
       105           H   tau( 105) = (   0.3028564  -0.1679560   0.1788895  )
       106           H   tau( 106) = (   0.2356435  -0.1715886   0.2170707  )
       107           H   tau( 107) = (  -0.0758926  -0.0914902  -0.1755926  )
       108           H   tau( 108) = (  -0.1551033  -0.0746550  -0.1633504  )
       109           H   tau( 109) = (  -0.0198628   0.1420243  -0.2048746  )
       110           H   tau( 110) = (  -0.0771397   0.1258104  -0.2472755  )
       111           H   tau( 111) = (   0.2476080   0.1251675   0.0856946  )
       112           H   tau( 112) = (   0.1736879   0.1040768   0.0942554  )
       113           H   tau( 113) = (   0.1127128   0.0396509  -0.1982927  )
       114           H   tau( 114) = (   0.1273246   0.1141611  -0.1768551  )
       115           H   tau( 115) = (  -0.2703194   0.1703618  -0.2942728  )
       116           H   tau( 116) = (  -0.2420598   0.1275817  -0.2417883  )
       117           H   tau( 117) = (   0.2579713  -0.3220239   0.0303241  )
       118           H   tau( 118) = (   0.2892252  -0.2782659  -0.0267307  )
       119           H   tau( 119) = (  -0.0073544  -0.0319741  -0.3060290  )
       120           H   tau( 120) = (   0.0480953   0.0163637  -0.3203343  )
       121           H   tau( 121) = (  -0.1412211   0.0023273  -0.2913416  )
       122           H   tau( 122) = (  -0.1518786   0.0311491  -0.2221539  )
       123           H   tau( 123) = (   0.0023790  -0.0056549   0.0878272  )
       124           H   tau( 124) = (   0.0400546  -0.0516560   0.0369065  )
       125           H   tau( 125) = (   0.2888159  -0.1561373  -0.2104728  )
       126           H   tau( 126) = (   0.3089664  -0.1072732  -0.1537366  )
       127           H   tau( 127) = (   0.2027268   0.0289049  -0.0409053  )
       128           H   tau( 128) = (   0.2574425  -0.0281666  -0.0416722  )
       129           H   tau( 129) = (   0.0224871   0.2484407   0.2420666  )
       130           H   tau( 130) = (  -0.0097224   0.1902129   0.2012545  )
       131           H   tau( 131) = (  -0.2401686   0.0453047  -0.1262868  )
       132           H   tau( 132) = (  -0.2630549  -0.0036395  -0.1821988  )
       133           H   tau( 133) = (  -0.0293277  -0.2224245  -0.0659597  )
       134           H   tau( 134) = (  -0.0189979  -0.1950921   0.0052928  )
       135           H   tau( 135) = (   0.2694596   0.2585167  -0.3628173  )
       136           H   tau( 136) = (   0.2771177   0.1815567  -0.3878324  )
       137           H   tau( 137) = (   0.1564100   0.3168886   0.2494814  )
       138           H   tau( 138) = (   0.1621775   0.3630802   0.3117554  )
       139           H   tau( 139) = (  -0.3222051   0.2574731  -0.1250566  )
       140           H   tau( 140) = (  -0.2489086   0.2572728  -0.1531213  )
       141           H   tau( 141) = (  -0.0466923   0.0607117  -0.1448387  )
       142           H   tau( 142) = (   0.0152661   0.0906513  -0.1059081  )
       143           H   tau( 143) = (  -0.1799372  -0.1853133  -0.0875358  )
       144           H   tau( 144) = (  -0.1883806  -0.2327684  -0.0198111  )
       145           H   tau( 145) = (  -0.1836327   0.2745889   0.1102654  )
       146           H   tau( 146) = (  -0.1681038   0.2829757   0.1854764  )
       147           H   tau( 147) = (  -0.1213915   0.2025409   0.1758702  )
       148           H   tau( 148) = (  -0.1857029   0.1678517   0.1951018  )
       149           H   tau( 149) = (  -0.1071182  -0.0924823  -0.0710466  )
       150           H   tau( 150) = (  -0.0891479  -0.0375024  -0.0240156  )
       151           H   tau( 151) = (  -0.0961422  -0.1063434   0.2301280  )
       152           H   tau( 152) = (  -0.0781891  -0.1044730   0.3037503  )
       153           H   tau( 153) = (   0.0310420   0.1416095   0.2551671  )
       154           H   tau( 154) = (  -0.0351018   0.1137496   0.2911211  )
       155           H   tau( 155) = (  -0.2542851   0.1352005   0.1113849  )
       156           H   tau( 156) = (  -0.1972082   0.1207618   0.0590041  )
       157           H   tau( 157) = (   0.2097970   0.2860016  -0.0788589  )
       158           H   tau( 158) = (   0.1898814   0.2428380  -0.1422329  )
       159           H   tau( 159) = (   0.0596340  -0.2619643  -0.2281429  )
       160           H   tau( 160) = (   0.0911559  -0.2534028  -0.1534490  )
       161           H   tau( 161) = (  -0.1643312   0.1899153  -0.1862874  )
       162           H   tau( 162) = (  -0.0956232   0.2176650  -0.1799217  )
       163           H   tau( 163) = (   0.2464601   0.0265557   0.3679022  )
       164           H   tau( 164) = (   0.2364439   0.0425919   0.2949194  )
       165           H   tau( 165) = (  -0.0793128   0.0157275   0.1401460  )
       166           H   tau( 166) = (  -0.0635870   0.0872726   0.1121576  )
       167           H   tau( 167) = (   0.0189621  -0.0698953  -0.1410625  )
       168           H   tau( 168) = (   0.0203661  -0.0599114  -0.2208496  )
       169           H   tau( 169) = (   0.0389808  -0.1470711  -0.2591460  )
       170           H   tau( 170) = (   0.0394173  -0.1841658  -0.3262488  )
       171           H   tau( 171) = (   0.3573513  -0.2911165   0.2416453  )
       172           H   tau( 172) = (   0.3531030  -0.2778901   0.1649499  )
       173           H   tau( 173) = (   0.2200839  -0.1791099   0.0511055  )
       174           H   tau( 174) = (   0.1715122  -0.1292347   0.0163162  )
       175           H   tau( 175) = (   0.2868132  -0.0303953   0.1160947  )
       176           H   tau( 176) = (   0.2598465  -0.0669625   0.1761153  )
       177           H   tau( 177) = (   0.0894484   0.1907854  -0.2564372  )
       178           H   tau( 178) = (   0.0756111   0.2362525  -0.1964028  )
       179           H   tau( 179) = (  -0.0948664  -0.3324215   0.0647993  )
       180           H   tau( 180) = (  -0.1179592  -0.3629551  -0.0014800  )
       181           H   tau( 181) = (  -0.2835313  -0.0916030  -0.3188680  )
       182           H   tau( 182) = (  -0.2269150  -0.1051071  -0.3712946  )
       183           H   tau( 183) = (  -0.1764091   0.0992881  -0.0492081  )
       184           H   tau( 184) = (  -0.2438906   0.1045046  -0.0021655  )
       185           H   tau( 185) = (   0.2851206   0.2089930  -0.2452763  )
       186           H   tau( 186) = (   0.2477316   0.1457937  -0.2320245  )
       187           H   tau( 187) = (   0.1212625  -0.0336016  -0.0853453  )
       188           H   tau( 188) = (   0.0521472  -0.0042530  -0.0721365  )
       189           H   tau( 189) = (  -0.2580812  -0.2081256   0.0730924  )
       190           H   tau( 190) = (  -0.2635363  -0.1427911   0.1137083  )
       191           H   tau( 191) = (   0.0631182   0.1662769   0.1439491  )
       192           H   tau( 192) = (   0.0523436   0.1429576   0.0682118  )

     number of k points=     1  Marzari-Vanderbilt smearing, width (Ry)=  0.0250
                       cart. coord. in units 2pi/alat
        k(    1) = (   0.0000000   0.0000000   0.0000000), wk =   2.0000000

     Dense  grid:   177509 G-vectors     FFT dimensions: (  72,  72,  72)

     Estimated max dynamical RAM per process >      67.80Mb

     Estimated total allocated dynamical RAM >    1898.40Mb

     Initial potential from superposition of free atoms
     Check: negative starting charge=   -0.726195

     starting charge  511.99856, renormalised to  512.00000

     negative rho (up, down):  7.262E-01 0.000E+00
     Starting wfc are  384 randomized atomic wfcs

     total cpu time spent up to now is        0.8 secs

     per-process dynamical memory:    45.9 Mb

     Self-consistent Calculation

     iteration #  1     ecut=    30.00 Ry     beta=0.70
     Davidson diagonalization with overlap
     ethr =  1.00E-02,  avg # of iterations =  8.0

     negative rho (up, down):  1.715E-01 0.000E+00

     total cpu time spent up to now is        9.3 secs

     total energy              =   -1798.52234985 Ry
     Harris-Foulkes estimate   =   -1825.74311089 Ry
     estimated scf accuracy    <      42.23476091 Ry

     iteration #  2     ecut=    30.00 Ry     beta=0.70
     Davidson diagonalization with overlap
     ethr =  8.25E-03,  avg # of iterations =  4.0

     negative rho (up, down):  2.053E-03 0.000E+00

     total cpu time spent up to now is       12.4 secs

     total energy              =   -1777.81560503 Ry
     Harris-Foulkes estimate   =   -1812.43025560 Ry
     estimated scf accuracy    <      78.78351880 Ry

     iteration #  3     ecut=    30.00 Ry     beta=0.70
     Davidson diagonalization with overlap
     ethr =  8.25E-03,  avg # of iterations =  4.0

     negative rho (up, down):  1.791E-05 0.000E+00

     total cpu time spent up to now is       15.6 secs

     total energy              =   -1801.14769467 Ry
     Harris-Foulkes estimate   =   -1813.81480057 Ry
     estimated scf accuracy    <      39.21719768 Ry

     iteration #  4     ecut=    30.00 Ry     beta=0.70
     Davidson diagonalization with overlap
     ethr =  7.66E-03,  avg # of iterations =  3.0

     total cpu time spent up to now is       17.5 secs

     total energy              =   -1806.35982650 Ry
     Harris-Foulkes estimate   =   -1808.43628765 Ry
     estimated scf accuracy    <       6.66966843 Ry

     iteration #  5     ecut=    30.00 Ry     beta=0.70
     Davidson diagonalization with overlap
     ethr =  1.30E-03,  avg # of iterations =  5.0

     total cpu time spent up to now is       19.9 secs

     total energy              =   -1806.06115079 Ry
     Harris-Foulkes estimate   =   -1806.74579939 Ry
     estimated scf accuracy    <       2.69414757 Ry

     iteration #  6     ecut=    30.00 Ry     beta=0.70
     Davidson diagonalization with overlap
     ethr =  5.26E-04,  avg # of iterations =  5.0

     total cpu time spent up to now is       22.3 secs

     total energy              =   -1805.92822429 Ry
     Harris-Foulkes estimate   =   -1806.16358182 Ry
     estimated scf accuracy    <       1.15353448 Ry

     iteration #  7     ecut=    30.00 Ry     beta=0.70
     Davidson diagonalization with overlap
     ethr =  2.25E-04,  avg # of iterations =  7.0

     total cpu time spent up to now is       25.3 secs

     total energy              =   -1805.87224101 Ry
     Harris-Foulkes estimate   =   -1806.00683781 Ry
     estimated scf accuracy    <       0.96996964 Ry

     iteration #  8     ecut=    30.00 Ry     beta=0.70
     Davidson diagonalization with overlap
     ethr =  1.89E-04,  avg # of iterations =  1.0

     total cpu time spent up to now is       26.4 secs

     total energy              =   -1805.78762505 Ry
     Harris-Foulkes estimate   =   -1805.91822268 Ry
     estimated scf accuracy    <       0.44909279 Ry

     iteration #  9     ecut=    30.00 Ry     beta=0.70
     Davidson diagonalization with overlap
     ethr =  8.77E-05,  avg # of iterations =  6.0

     total cpu time spent up to now is       29.3 secs

     total energy              =   -1805.78485166 Ry
     Harris-Foulkes estimate   =   -1805.83438556 Ry
     estimated scf accuracy    <       0.25520982 Ry

     iteration # 10     ecut=    30.00 Ry     beta=0.70
     Davidson diagonalization with overlap
     ethr =  4.98E-05,  avg # of iterations = 10.0

     total cpu time spent up to now is       33.1 secs

     total energy              =   -1805.79534197 Ry
     Harris-Foulkes estimate   =   -1805.80710878 Ry
     estimated scf accuracy    <       0.08045776 Ry

     iteration # 11     ecut=    30.00 Ry     beta=0.70
     Davidson diagonalization with overlap
     ethr =  1.57E-05,  avg # of iterations =  9.0

     total cpu time spent up to now is       36.7 secs

     total energy              =   -1805.80043811 Ry
     Harris-Foulkes estimate   =   -1805.80694167 Ry
     estimated scf accuracy    <       0.09769459 Ry

     iteration # 12     ecut=    30.00 Ry     beta=0.70
     Davidson diagonalization with overlap
     ethr =  1.57E-05,  avg # of iterations =  1.0

     total cpu time spent up to now is       37.8 secs

     total energy              =   -1805.79406719 Ry
     Harris-Foulkes estimate   =   -1805.80759163 Ry
     estimated scf accuracy    <       0.07895925 Ry

     iteration # 13     ecut=    30.00 Ry     beta=0.70
     Davidson diagonalization with overlap
     ethr =  1.54E-05,  avg # of iterations =  2.0

     total cpu time spent up to now is       39.3 secs

     total energy              =   -1805.79755549 Ry
     Harris-Foulkes estimate   =   -1805.80750312 Ry
     estimated scf accuracy    <       0.04881427 Ry

     iteration # 14     ecut=    30.00 Ry     beta=0.70
     Davidson diagonalization with overlap
     ethr =  9.53E-06,  avg # of iterations =  2.0

     total cpu time spent up to now is       40.7 secs

     total energy              =   -1805.79946061 Ry
     Harris-Foulkes estimate   =   -1805.80144783 Ry
     estimated scf accuracy    <       0.01273301 Ry

     iteration # 15     ecut=    30.00 Ry     beta=0.70
     Davidson diagonalization with overlap
     ethr =  2.49E-06,  avg # of iterations =  5.0

     total cpu time spent up to now is       43.0 secs

     total energy              =   -1805.79981609 Ry
     Harris-Foulkes estimate   =   -1805.80043252 Ry
     estimated scf accuracy    <       0.00408024 Ry

     iteration # 16     ecut=    30.00 Ry     beta=0.70
     Davidson diagonalization with overlap
     ethr =  7.97E-07,  avg # of iterations =  2.0

     total cpu time spent up to now is       44.4 secs

     total energy              =   -1805.79994445 Ry
     Harris-Foulkes estimate   =   -1805.80020951 Ry
     estimated scf accuracy    <       0.00116567 Ry

     iteration # 17     ecut=    30.00 Ry     beta=0.70
     Davidson diagonalization with overlap
     ethr =  2.28E-07,  avg # of iterations =  2.0

     total cpu time spent up to now is       45.8 secs

     total energy              =   -1805.80001773 Ry
     Harris-Foulkes estimate   =   -1805.80021012 Ry
     estimated scf accuracy    <       0.00150332 Ry

     iteration # 18     ecut=    30.00 Ry     beta=0.70
     Davidson diagonalization with overlap
     ethr =  2.28E-07,  avg # of iterations =  2.0

     total cpu time spent up to now is       47.3 secs

     total energy              =   -1805.80007445 Ry
     Harris-Foulkes estimate   =   -1805.80013562 Ry
     estimated scf accuracy    <       0.00034593 Ry

     iteration # 19     ecut=    30.00 Ry     beta=0.70
     Davidson diagonalization with overlap
     ethr =  6.76E-08,  avg # of iterations =  2.0

     total cpu time spent up to now is       48.7 secs

     total energy              =   -1805.80009803 Ry
     Harris-Foulkes estimate   =   -1805.80010861 Ry
     estimated scf accuracy    <       0.00004451 Ry

     iteration # 20     ecut=    30.00 Ry     beta=0.70
     Davidson diagonalization with overlap
     ethr =  8.69E-09,  avg # of iterations =  2.0

     total cpu time spent up to now is       50.1 secs

     total energy              =   -1805.80010018 Ry
     Harris-Foulkes estimate   =   -1805.80010826 Ry
     estimated scf accuracy    <       0.00004994 Ry

     iteration # 21     ecut=    30.00 Ry     beta=0.70
     Davidson diagonalization with overlap
     ethr =  8.69E-09,  avg # of iterations =  2.0

     total cpu time spent up to now is       51.6 secs

     total energy              =   -1805.80010340 Ry
     Harris-Foulkes estimate   =   -1805.80010683 Ry
     estimated scf accuracy    <       0.00003077 Ry

     iteration # 22     ecut=    30.00 Ry     beta=0.70
     Davidson diagonalization with overlap
     ethr =  6.01E-09,  avg # of iterations =  2.0

     total cpu time spent up to now is       53.0 secs

     total energy              =   -1805.80010518 Ry
     Harris-Foulkes estimate   =   -1805.80010526 Ry
     estimated scf accuracy    <       0.00000023 Ry

     iteration # 23     ecut=    30.00 Ry     beta=0.70
     Davidson diagonalization with overlap
     ethr =  4.52E-11,  avg # of iterations =  3.0

     total cpu time spent up to now is       55.2 secs

     total energy              =   -1805.80010525 Ry
     Harris-Foulkes estimate   =   -1805.80010528 Ry
     estimated scf accuracy    <       0.00000020 Ry

     iteration # 24     ecut=    30.00 Ry     beta=0.70
     Davidson diagonalization with overlap
     ethr =  3.84E-11,  avg # of iterations =  2.0

     total cpu time spent up to now is       56.8 secs

     total energy              =   -1805.80010529 Ry
     Harris-Foulkes estimate   =   -1805.80010528 Ry
     estimated scf accuracy    <       0.00000002 Ry

     iteration # 25     ecut=    30.00 Ry     beta=0.70
     Davidson diagonalization with overlap
     ethr =  4.83E-12,  avg # of iterations =  3.0

     total cpu time spent up to now is       58.7 secs

     total energy              =   -1805.80010530 Ry
     Harris-Foulkes estimate   =   -1805.80010530 Ry
     estimated scf accuracy    <       0.00000007 Ry

     iteration # 26     ecut=    30.00 Ry     beta=0.70
     Davidson diagonalization with overlap
     ethr =  4.83E-12,  avg # of iterations =  3.0

     total cpu time spent up to now is       60.5 secs

     total energy              =   -1805.80010530 Ry
     Harris-Foulkes estimate   =   -1805.80010530 Ry
     estimated scf accuracy    <       0.00000002 Ry

     iteration # 27     ecut=    30.00 Ry     beta=0.70
     Davidson diagonalization with overlap
     ethr =  3.10E-12,  avg # of iterations =  2.0

     total cpu time spent up to now is       62.0 secs

     total energy              =   -1805.80010529 Ry
     Harris-Foulkes estimate   =   -1805.80010530 Ry
     estimated scf accuracy    <       0.00000002 Ry

     iteration # 28     ecut=    30.00 Ry     beta=0.70
     Davidson diagonalization with overlap
     ethr =  3.10E-12,  avg # of iterations =  2.0

     total cpu time spent up to now is       63.4 secs

     End of self-consistent calculation

          k = 0.0000 0.0000 0.0000 ( 22119 PWs)   bands (ev):

   -41.2758 -40.3348 -39.0515 -38.7505 -37.9881 -37.6358 -36.6080 -36.1833
   -35.8305 -35.3512 -34.6300 -34.5413 -34.1843 -33.7354 -33.5606 -33.3756
   -33.0436 -32.7584 -32.5346 -32.1904 -31.9245 -31.5578 -31.3083 -31.1539
   -30.7411 -30.6972 -30.3781 -30.2072 -30.1775 -30.0919 -29.7900 -29.6478
   -29.5423 -29.3049 -29.2216 -29.0407 -28.9175 -28.8936 -28.6763 -28.2288
   -28.0647 -28.0197 -27.9296 -27.8675 -27.7352 -27.4218 -27.2864 -27.0409
   -26.9105 -26.5555 -26.2578 -26.1482 -26.1064 -26.0354 -25.8780 -25.7618
   -25.7383 -25.6212 -25.5598 -25.3847 -25.2680 -24.9875 -24.7733 -24.1332
   -22.2437 -21.4895 -21.1938 -20.9767 -20.7773 -20.0196 -19.7089 -19.4276
   -19.3453 -18.8404 -18.6035 -18.3604 -18.2782 -17.8282 -17.6650 -17.3311
   -17.0738 -16.8013 -16.7374 -16.6393 -16.4933 -16.3514 -16.2115 -16.1165
   -15.9530 -15.7908 -15.7443 -15.6299 -15.4888 -15.3872 -15.3288 -15.2352
   -15.0959 -14.8809 -14.7550 -14.7103 -14.4302 -14.4145 -14.3476 -14.2473
   -14.1030 -14.0443 -13.8997 -13.7978 -13.5514 -13.4894 -13.3258 -13.2926
   -13.2720 -13.1591 -13.1089 -12.9377 -12.6686 -12.5745 -12.3135 -12.2889
   -11.9500 -11.8706 -11.7604 -11.6927 -11.3737 -11.3257 -11.0169 -10.8081
   -10.6951 -10.3766  -9.6144  -9.2157  -9.0071  -8.8621  -8.6889  -8.3721
    -8.2237  -7.9806  -7.8328  -7.6526  -7.5477  -7.3585  -7.1369  -7.0745
    -6.9242  -6.8487  -6.7657  -6.6303  -6.4477  -6.3713  -6.0869  -5.9785
    -5.9641  -5.7787  -5.6712  -5.5508  -5.3675  -5.3075  -5.1080  -5.0248
    -4.8321  -4.7795  -4.6654  -4.5641  -4.5519  -4.5022  -4.4374  -4.3514
    -4.2518  -4.1917  -4.1218  -3.9252  -3.9057  -3.8271  -3.6940  -3.6340
    -3.5234  -3.4495  -3.4186  -3.3409  -3.2812  -3.1974  -3.0748  -3.0420
    -2.9674  -2.8812  -2.8126  -2.7250  -2.6311  -2.5449  -2.4602  -2.3121
    -2.1473  -2.0996  -2.0974  -1.9783  -1.9183  -1.8587  -1.7569  -1.6347
    -1.4746  -1.4557  -1.3600  -1.3255  -1.2489  -1.1381  -1.0257  -0.8430
    -0.7886  -0.7104  -0.5658  -0.4472  -0.3653  -0.1875  -0.0034   0.0975
     0.1240   0.1349   0.3027   0.5077   0.5734   0.6598   0.7810   0.9312
     1.0227   1.1514   1.1734   1.2473   1.4758   1.5862   1.6566   1.7635
     1.8402   2.0535   2.0961   2.1869   2.3914   2.5245   2.6198   2.7658
     2.8710   3.1362   3.2028   3.4279   3.6833   3.8408   4.0488   4.2932
     4.4497   4.5447   4.7714   4.9407   5.0656   5.1411   5.2128   5.3376
     5.5573   6.3015   6.4918   6.6379   6.7741   7.2377   7.3001   7.4329
     7.5458   7.6650   7.7458   7.9521   8.0357   8.4976   8.5801   8.6861
     8.7745   8.9030   8.9862   9.5244   9.7042   9.8266   9.9621  10.1579
    10.2033  10.2591  10.3844  10.4929  10.5415  10.6368  10.7992  10.8729
    11.0111  11.0187  11.1724  11.2532  11.3742  11.4655  11.4995  11.5720
    11.7162  11.8112  11.8509  11.8819  12.0149  12.0423  12.0940  12.1329
    12.1830  12.2833  12.3239

     the Fermi energy is     5.4599 ev

!    total energy              =   -1805.80010528 Ry
     Harris-Foulkes estimate   =   -1805.80010529 Ry
     estimated scf accuracy    <          8.2E-09 Ry

     The total energy is the sum of the following terms:

     one-electron contribution =  -13414.69718560 Ry
     hartree contribution      =    6882.60403058 Ry
     xc contribution           =    -633.84285201 Ry
     ewald contribution        =    5360.12328643 Ry
     smearing contrib. (-TS)   =       0.01261531 Ry

     convergence has been achieved in  28 iterations

     Writing output data file pwscf.save
 
     init_run     :      0.56s CPU      0.63s WALL (       1 calls)
     electrons    :     60.83s CPU     62.70s WALL (       1 calls)

     Called by init_run:
     wfcinit      :      0.47s CPU      0.53s WALL (       1 calls)
     potinit      :      0.02s CPU      0.02s WALL (       1 calls)

     Called by electrons:
     c_bands      :     58.06s CPU     59.58s WALL (      28 calls)
     sum_band     :      2.28s CPU      2.33s WALL (      28 calls)
     v_of_rho     :      0.22s CPU      0.23s WALL (      29 calls)
     mix_rho      :      0.18s CPU      0.31s WALL (      28 calls)

     Called by c_bands:
     init_us_2    :      0.07s CPU      0.07s WALL (      57 calls)
     cegterg      :     57.91s CPU     59.35s WALL (      28 calls)

     Called by sum_band:

     Called by *egterg:
     h_psi        :     10.33s CPU     10.51s WALL (     130 calls)
     g_psi        :      0.08s CPU      0.08s WALL (     101 calls)
     cdiaghg      :     36.03s CPU     36.07s WALL (     129 calls)

     Called by h_psi:
     h_psi:pot    :     10.07s CPU     10.25s WALL (     130 calls)
     h_psi:calbec :      0.38s CPU      0.38s WALL (     130 calls)
     vloc_psi     :      9.36s CPU      9.53s WALL (     130 calls)
     add_vuspsi   :      0.33s CPU      0.34s WALL (     130 calls)

     General routines
     calbec       :      0.38s CPU      0.38s WALL (     130 calls)
     fft          :      0.13s CPU      0.13s WALL (     318 calls)
     fftw         :     10.47s CPU     10.67s WALL (   47432 calls)
     davcio       :      0.04s CPU      0.15s WALL (     468 calls)
 
     Parallel routines
     fft_scatter  :      3.63s CPU      3.72s WALL (   47750 calls)
 
     PWSCF        :  1m 1.56s CPU     1m 3.73s WALL

 
   This run was terminated on:  21: 9:49   2Feb2018            

=------------------------------------------------------------------------------=
   JOB DONE.
=------------------------------------------------------------------------------=
